METHYL-ACCEPTING CHEMOTAXIS PROTEIN II in water
95969
    1LIG      N    1   2.533   9.387   5.015  0.2299  0.7770 -0.0934
    1LIG     H1    2   2.480   9.423   4.933  0.1459  0.1478 -0.3241
    1LIG     H2    3   2.555   9.464   5.081  2.6822 -1.1915  1.5841
    1LIG     H3    4   2.622   9.345   4.983 -0.3506  0.8719 -1.9238
    1LIG     CA    5   2.452   9.282   5.094 -0.8413 -0.1281  0.2125
    1LIG     HA    6   2.523   9.228   5.155  1.5726 -0.0330 -2.2962
    1LIG     CB    7   2.351   9.362   5.172  0.1517  0.1717  0.0321
    1LIG    HB1    8   2.261   9.383   5.111 -0.8120 -0.2464  1.2734
    1LIG    HB2    9   2.387   9.459   5.213  1.0881  0.8084 -2.1359
    1LIG     CG   10   2.301   9.274   5.289  0.2330  0.4128 -0.4486
    1LIG    OD1   11   2.180   9.267   5.314  0.1914  0.2264 -0.3514
    1LIG    OD2   12   2.385   9.214   5.357  0.1865  0.0329 -0.7876
    1LIG      C   13   2.382   9.179   5.000  0.2546 -0.2439 -0.4614
    1LIG    OT1   14   2.388   9.190   4.877 -0.1271  0.3575  0.0199
    1LIG    OT2   15   2.315   9.085   5.056 -0.3313 -0.0597  0.4071
    2LIG      N   16   0.371   2.451   0.530  0.0954  0.2720  0.7979
    2LIG     H1   17   0.293   2.410   0.585 -0.3190  0.6030  0.4571
    2LIG     H2   18   0.336   2.495   0.443 -1.9933 -0.2804  1.3237
    2LIG     H3   19   0.443   2.377   0.512 -0.6152  0.0843 -1.6002
    2LIG     CA   20   0.438   2.546   0.627  0.0422  0.1157  1.0580
    2LIG     HA   21   0.381   2.638   0.622  0.0281  0.1513  1.7281
    2LIG     CB   22   0.438   2.502   0.774  0.2773  0.1003 -0.3480
    2LIG    HB1   23   0.510   2.418   0.781  1.4479  1.0348 -0.8709
    2LIG    HB2   24   0.341   2.464   0.812  1.0067 -2.7124 -1.0278
    2LIG     CG   25   0.477   2.619   0.874  0.0361 -1.1334 -0.2180
    2LIG    OD1   26   0.525   2.594   0.986 -0.7645 -0.1426 -0.0796
    2LIG    OD2   27   0.436   2.737   0.838 -0.3542 -0.8516 -0.5322
    2LIG      C   28   0.581   2.581   0.569 -0.1533  0.2071 -0.4732
    2LIG    OT1   29   0.627   2.518   0.470 -0.2259  0.0331 -0.2981
    2LIG    OT2   30   0.653   2.659   0.634  0.1238 -0.8192  0.1477
    3LIG      N   31   4.051   1.209   1.428  0.1212  0.3671 -0.3237
    3LIG     H1   32   4.019   1.119   1.386 -1.8558 -0.2729  2.3113
    3LIG     H2   33   4.146   1.217   1.386 -0.7833 -2.2486 -3.3316
    3LIG     H3   34   4.060   1.205   1.531 -0.1556 -0.2670 -0.3189
    3LIG     CA   35   3.963   1.314   1.377  0.1866 -0.5064  0.6300
    3LIG     HA   36   4.008   1.413   1.380 -1.3786  0.2484  0.3005
    3LIG     CB   37   3.964   1.272   1.226 -0.2099 -0.0467 -0.1328
    3LIG    HB1   38   3.902   1.185   1.197 -0.3597  0.8302 -2.6746
    3LIG    HB2   39   4.066   1.264   1.184 -0.8557  1.4540 -2.1402
    3LIG     CG   40   3.907   1.390   1.152  0.1123  1.0118  0.0334
    3LIG    OD1   41   3.840   1.362   1.047  0.0091 -0.4839  0.0755
    3LIG    OD2   42   3.932   1.502   1.186 -0.2561 -0.0089  0.4047
    3LIG      C   43   3.821   1.321   1.442 -0.2569  0.7896  0.1939
    3LIG    OT1   44   3.801   1.241   1.538  0.6410 -0.4265  0.0715
    3LIG    OT2   45   3.732   1.396   1.400  0.0375  0.5984  0.2526
    4LIG      N   46   0.783   8.848   1.145  0.4412  0.1139  0.0367
    4LIG     H1   47   0.739   8.762   1.182  1.3572 -0.2052  0.4205
    4LIG     H2   48   0.762   8.874   1.046  0.2989 -1.4600 -0.3660
    4LIG     H3   49   0.885   8.829   1.153  0.2491 -0.6120  0.8919
    4LIG     CA   50   0.744   8.973   1.227 -0.0561 -0.3580  0.3634
    4LIG     HA   51   0.639   8.983   1.201 -0.1598 -0.9192  0.5493
    4LIG     CB   52   0.777   8.951   1.385  0.8475  0.8957 -0.7042
    4LIG    HB1   53   0.880   8.979   1.416  0.7859  1.0395 -0.6262
    4LIG    HB2   54   0.743   8.848   1.410 -0.1187  0.9506 -1.7172
    4LIG     CG   55   0.691   9.048   1.470  0.7730  1.3602 -0.4927
    4LIG    OD1   56   0.743   9.098   1.574 -0.1413  0.3007 -0.0855
    4LIG    OD2   57   0.568   9.060   1.440 -0.3895  0.0761  0.3344
    4LIG      C   58   0.825   9.096   1.177  0.0193  0.5654  0.5523
    4LIG    OT1   59   0.916   9.082   1.094  0.7650 -0.7557 -0.1964
    4LIG    OT2   60   0.801   9.208   1.220 -0.5442 -0.0486 -0.3380
    5LIG      N   61   8.856   3.179   0.503 -0.2432  0.1272  0.1871
    5LIG     H1   62   8.905   3.088   0.494 -2.2968 -0.9419 -0.7429
    5LIG     H2   63   8.757   3.167   0.533  0.1949 -2.6283  0.8449
    5LIG     H3   64   8.856   3.215   0.405 -1.1119 -1.5724 -0.4761
    5LIG     CA   65   8.939   3.275   0.587  0.0700  0.4894 -0.4113
    5LIG     HA   66   8.919   3.381   0.571  1.4717  1.1189  1.6702
    5LIG     CB   67   8.895   3.252   0.739  0.3683 -0.8941 -0.1364
    5LIG    HB1   68   8.924   3.154   0.782  1.2383 -0.1786  0.9609
    5LIG    HB2   69   8.784   3.249   0.746  0.4478  0.0021  3.5161
    5LIG     CG   70   8.926   3.373   0.828 -0.3133 -0.3241 -0.3067
    5LIG    OD1   71   8.983   3.361   0.939 -0.1130 -0.1509  0.6813
    5LIG    OD2   72   8.895   3.484   0.786  0.4391 -0.2371  0.4713
    5LIG      C   73   9.089   3.253   0.563  0.2822  0.2695 -0.1564
    5LIG    OT1   74   9.137   3.175   0.480 -0.2875 -0.9153 -0.3482
    5LIG    OT2   75   9.171   3.319   0.642 -0.6297 -0.0532  0.2778
    6LIG      N   76   5.284   9.813   8.462 -0.0805 -0.4022 -0.6085
    6LIG     H1   77   5.342   9.896   8.437 -1.3843  0.3303 -1.2723
    6LIG     H2   78   5.202   9.812   8.399  0.9306  0.3381 -1.9740
    6LIG     H3   79   5.252   9.832   8.559  3.9882  3.9875  0.2284
    6LIG     CA   80   5.353   9.687   8.468 -0.9020 -0.1197 -0.1453
    6LIG     HA   81   5.415   9.698   8.556 -0.3573  2.1928 -0.7642
    6LIG     CB   82   5.243   9.579   8.497  0.5812 -0.2005 -0.4044
    6LIG    HB1   83   5.188   9.564   8.401  1.7247  1.6984 -1.3944
    6LIG    HB2   84   5.174   9.605   8.580  0.8933 -1.5361  0.3096
    6LIG     CG   85   5.308   9.453   8.547 -0.5623  0.4954 -0.6658
    6LIG    OD1   86   5.262   9.344   8.502 -0.2510 -0.2535  0.3097
    6LIG    OD2   87   5.399   9.454   8.636 -0.3906 -0.1927  0.1725
    6LIG      C   88   5.443   9.643   8.343 -0.2503 -0.1302 -0.4465
    6LIG    OT1   89   5.418   9.700   8.234  0.0726 -0.8133 -0.1234
    6LIG    OT2   90   5.524   9.551   8.360 -0.8439  0.3848 -0.3446
    7LIG      N   91   2.348   6.867   4.947 -0.5922  0.0609 -0.4847
    7LIG     H1   92   2.317   6.771   4.918  0.0569 -0.3381  0.1114
    7LIG     H2   93   2.395   6.860   5.039  1.0518  0.7355 -1.2315
    7LIG     H3   94   2.260   6.920   4.961  0.2245  1.2668  0.2265
    7LIG     CA   95   2.448   6.921   4.852 -0.1278 -0.5642 -0.5402
    7LIG     HA   96   2.378   6.954   4.776 -1.1569 -1.1958  0.1024
    7LIG     CB   97   2.533   7.031   4.913  0.7853  0.1362  0.4612
    7LIG    HB1   98   2.603   6.993   4.991 -0.6423  1.0046  2.2471
    7LIG    HB2   99   2.471   7.107   4.965  1.4271  0.9757  0.0215
    7LIG     CG  100   2.602   7.101   4.802 -0.5899 -1.3191  0.4736
    7LIG    OD1  101   2.729   7.118   4.812  0.1140  0.1325 -0.0707
    7LIG    OD2  102   2.533   7.157   4.712 -0.0509 -0.5887 -0.0045
    7LIG      C  103   2.545   6.812   4.793  0.5915 -0.3550 -0.1398
    7LIG    OT1  104   2.554   6.698   4.850  0.4087  0.1353 -0.2031
    7LIG    OT2  105   2.602   6.840   4.684  0.1384  0.1322 -0.6269
    8LIG      N  106   8.455   2.248   5.102 -0.0065  0.4583  0.3627
    8LIG     H1  107   8.558   2.256   5.094 -0.0236 -0.5215 -1.1699
    8LIG     H2  108   8.425   2.149   5.116  0.3105  0.1215 -1.2219
    8LIG     H3  109   8.414   2.272   5.010 -0.6331  2.0122  1.0069
    8LIG     CA  110   8.399   2.351   5.203  0.0468 -0.3599  0.2118
    8LIG     HA  111   8.433   2.444   5.159 -0.6294  1.2281  2.8667
    8LIG     CB  112   8.245   2.337   5.200  0.1110  0.2819 -0.1494
    8LIG    HB1  113   8.207   2.252   5.260 -0.2629  0.7616  0.3042
    8LIG    HB2  114   8.204   2.330   5.097 -0.1784 -0.6865  0.0292
    8LIG     CG  115   8.179   2.468   5.265 -0.5347 -0.4845 -0.0529
    8LIG    OD1  116   8.098   2.449   5.358 -0.4662  0.0476 -0.2847
    8LIG    OD2  117   8.195   2.576   5.206  0.1929  0.2884  0.1935
    8LIG      C  118   8.473   2.350   5.339 -0.4045  0.7519  0.0409
    8LIG    OT1  119   8.556   2.254   5.365  0.1380 -0.4957  0.0044
    8LIG    OT2  120   8.463   2.443   5.425 -0.1458 -0.5032  0.1341
    9LIG      N  121   9.649   5.499   5.206 -0.4944 -0.6062 -0.1951
    9LIG     H1  122   9.559   5.538   5.171 -2.5421 -1.7021  3.2963
    9LIG     H2  123   9.652   5.514   5.309  0.9923 -1.5759 -0.0591
    9LIG     H3  124   9.732   5.533   5.155 -0.7168  0.0335 -0.1383
    9LIG     CA  125   9.664   5.349   5.203  0.0292  0.3985 -0.9760
    9LIG     HA  126   9.577   5.306   5.251 -0.4421  1.6670 -0.6761
    9LIG     CB  127   9.665   5.309   5.059  0.5772  0.5462 -0.5519
    9LIG    HB1  128   9.753   5.351   5.006  1.2454 -0.5491 -0.3366
    9LIG    HB2  129   9.568   5.343   5.016 -0.9841 -1.0063  1.5307
    9LIG     CG  130   9.656   5.157   5.036  0.1974  0.1851  0.4258
    9LIG    OD1  131   9.740   5.101   4.962 -0.2946  0.2956  0.3399
    9LIG    OD2  132   9.563   5.094   5.093  0.1210  0.0624 -0.2345
    9LIG      C  133   9.798   5.295   5.281 -0.5538 -0.1260 -0.6362
    9LIG    OT1  134   9.864   5.383   5.343  0.0711  0.2618  0.1630
    9LIG    OT2  135   9.831   5.174   5.282 -0.5255 -0.3894 -0.1463
   10LIG      N  136   0.412   3.214   4.529  0.1064 -0.1975 -0.0256
   10LIG     H1  137   0.461   3.239   4.617  0.7970  1.8678 -0.9315
   10LIG     H2  138   0.311   3.238   4.540  0.0635 -0.1946 -0.4139
   10LIG     H3  139   0.415   3.112   4.510 -2.3902  0.0220 -2.2516
   10LIG     CA  140   0.460   3.290   4.403 -0.1294  0.1535  0.3337
   10LIG     HA  141   0.440   3.392   4.433  1.9652  0.6889  0.0330
   10LIG     CB  142   0.608   3.236   4.370 -0.5228 -0.3797 -0.3112
   10LIG    HB1  143   0.608   3.128   4.343  0.0827 -0.5917  0.5093
   10LIG    HB2  144   0.667   3.242   4.463 -1.6240 -4.0295  0.8007
   10LIG     CG  145   0.683   3.321   4.266 -0.5179  0.4608 -0.6349
   10LIG    OD1  146   0.779   3.269   4.212 -0.0173  1.1229  0.2952
   10LIG    OD2  147   0.650   3.444   4.253 -0.0506  0.4609  0.3792
   10LIG      C  148   0.357   3.267   4.281  0.1166  0.4744 -0.1894
   10LIG    OT1  149   0.262   3.186   4.303  0.1350 -0.0250 -1.1138
   10LIG    OT2  150   0.376   3.314   4.164  0.4420  0.2151 -0.4560
   11LIG      N  151   9.024   1.925   5.145  0.1887 -0.3560  0.6754
   11LIG     H1  152   9.049   1.839   5.197  1.7593 -1.1878 -1.3280
   11LIG     H2  153   9.026   2.000   5.218 -2.3376  0.6975 -0.2155
   11LIG     H3  154   8.924   1.925   5.119  0.2979  4.4223 -0.8036
   11LIG     CA  155   9.114   1.965   5.031  0.4337  0.3803 -0.7668
   11LIG     HA  156   9.212   1.976   5.077  0.0099 -1.0398  0.5428
   11LIG     CB  157   9.109   1.843   4.943 -0.2880 -0.0870  0.7999
   11LIG    HB1  158   9.013   1.836   4.889  0.2124 -3.0536  0.1430
   11LIG    HB2  159   9.131   1.748   4.995  0.1759  0.1724  1.0887
   11LIG     CG  160   9.215   1.844   4.830  0.2492 -1.1954 -1.2264
   11LIG    OD1  161   9.175   1.859   4.710  0.2259 -0.4640 -0.2061
   11LIG    OD2  162   9.338   1.833   4.862  0.5772  0.1292 -0.5725
   11LIG      C  163   9.066   2.100   4.969  0.4426  0.1270  0.3741
   11LIG    OT1  164   8.966   2.163   5.021 -0.1215 -0.1593  0.9666
   11LIG    OT2  165   9.141   2.151   4.884  0.5011  0.4085 -0.1107
   12LIG      N  166   5.576   8.861   7.469  0.2078 -0.0848  0.2614
   12LIG     H1  167   5.490   8.854   7.527  0.2899 -1.0370  0.2875
   12LIG     H2  168   5.570   8.773   7.414 -2.4854 -2.0051  3.2627
   12LIG     H3  169   5.657   8.870   7.534  0.2140 -0.9236  0.3867
   12LIG     CA  170   5.567   8.976   7.378 -0.4632 -0.0416  0.3462
   12LIG     HA  171   5.466   8.999   7.351 -0.0031  2.4519  0.5629
   12LIG     CB  172   5.627   9.096   7.455  0.4194 -0.4593  0.4328
   12LIG    HB1  173   5.738   9.098   7.445  0.3387  0.6284 -0.5326
   12LIG    HB2  174   5.589   9.101   7.559 -2.7500 -0.1384 -0.6160
   12LIG     CG  175   5.572   9.218   7.393 -0.3534 -0.8639 -0.1265
   12LIG    OD1  176   5.651   9.314   7.364 -0.3528  0.4875 -0.5109
   12LIG    OD2  177   5.447   9.230   7.397 -0.0864 -0.1716  0.2913
   12LIG      C  178   5.656   8.942   7.257 -0.0422 -0.0715 -0.1059
   12LIG    OT1  179   5.728   8.841   7.244  0.6065  0.9433  0.0320
   12LIG    OT2  180   5.658   9.024   7.162  0.0252  0.6578  0.6518
   13LIG      N  181   0.435   5.727   1.950 -0.9566 -0.4648  0.1468
   13LIG     H1  182   0.485   5.813   1.982 -0.9346  0.0924 -1.2888
   13LIG     H2  183   0.497   5.644   1.960 -1.2681 -0.6418  0.6494
   13LIG     H3  184   0.409   5.745   1.851 -1.5653  0.9190  0.5340
   13LIG     CA  185   0.307   5.699   2.023 -0.1053 -0.7473  0.0345
   13LIG     HA  186   0.344   5.670   2.121  2.0496 -1.3718 -0.9120
   13LIG     CB  187   0.211   5.832   2.034  0.1248 -0.6863  0.3223
   13LIG    HB1  188   0.143   5.833   1.946  1.1611  0.9310 -0.4951
   13LIG    HB2  189   0.263   5.931   2.035 -1.7541  0.3525  0.9614
   13LIG     CG  190   0.134   5.832   2.168 -0.3308  0.1442 -0.0475
   13LIG    OD1  191   0.013   5.867   2.164 -0.0375 -0.1899  0.2254
   13LIG    OD2  192   0.188   5.796   2.273 -0.1356 -0.8750  0.5125
   13LIG      C  193   0.224   5.580   1.959 -0.6757 -0.1579 -0.7171
   13LIG    OT1  194   0.238   5.544   1.842  0.1119 -0.5517 -0.1986
   13LIG    OT2  195   0.149   5.520   2.047 -0.3670 -0.9911  0.5965
   14LIG      N  196   2.342   8.122   7.806  0.3326 -1.0678  0.3185
   14LIG     H1  197   2.359   8.067   7.892 -0.9067  0.2011  1.4209
   14LIG     H2  198   2.241   8.146   7.795  0.3389 -1.4631 -0.7297
   14LIG     H3  199   2.370   8.071   7.719 -1.9579  0.1155 -1.2141
   14LIG     CA  200   2.420   8.249   7.804  0.3815  0.2371 -0.0528
   14LIG     HA  201   2.380   8.313   7.881 -2.6671 -0.5653 -0.8344
   14LIG     CB  202   2.559   8.204   7.832 -0.6175  0.0711 -0.7885
   14LIG    HB1  203   2.602   8.164   7.738 -0.2709  0.7964 -0.9424
   14LIG    HB2  204   2.562   8.127   7.912  0.3308  0.6508 -0.2365
   14LIG     CG  205   2.644   8.318   7.888 -0.4516 -0.1093  0.0170
   14LIG    OD1  206   2.763   8.334   7.848  0.3686  1.0435 -0.4498
   14LIG    OD2  207   2.580   8.396   7.963 -0.0431  0.4310  0.0801
   14LIG      C  208   2.401   8.325   7.667  0.4495  0.8618 -0.5442
   14LIG    OT1  209   2.331   8.278   7.571 -0.6321 -0.9194 -0.8984
   14LIG    OT2  210   2.463   8.433   7.653 -0.1803  0.3699 -0.8916
   15LIG      N  211   9.186   0.420   1.948  0.1754 -0.0610 -0.3246
   15LIG     H1  212   9.159   0.359   1.868  1.1280 -3.2239  1.6246
   15LIG     H2  213   9.268   0.378   1.996 -1.1105 -2.1189  0.1865
   15LIG     H3  214   9.102   0.425   2.009 -0.2116 -0.2178 -0.8338
   15LIG     CA  215   9.214   0.558   1.900 -0.7198 -0.2691  0.4060
   15LIG     HA  216   9.259   0.616   1.981 -0.3423 -0.4426  0.3220
   15LIG     CB  217   9.321   0.554   1.787 -0.4916  0.6679 -0.0143
   15LIG    HB1  218   9.288   0.510   1.691 -0.2020  0.4116  0.0042
   15LIG    HB2  219   9.395   0.480   1.825 -0.3855  0.8332  0.1031
   15LIG     CG  220   9.385   0.684   1.780 -0.7416 -0.1824 -0.6242
   15LIG    OD1  221   9.406   0.735   1.666  0.0542 -0.2172  0.3059
   15LIG    OD2  222   9.440   0.736   1.882 -0.4923  0.4375 -0.5760
   15LIG      C  223   9.088   0.639   1.858 -0.1217  0.3571 -0.5973
   15LIG    OT1  224   8.974   0.578   1.847 -0.0773 -0.2843 -0.0458
   15LIG    OT2  225   9.096   0.763   1.850 -0.6202 -0.1419  0.5586
   16LIG      N  226   7.723   3.374   0.053  0.3115 -0.6572  0.3361
   16LIG     H1  227   7.823   3.343   0.055  0.9349  1.2724  0.6494
   16LIG     H2  228   7.689   3.387  -0.045 -0.4538  2.0041  0.8874
   16LIG     H3  229   7.703   3.464   0.100  0.4077 -0.7886  0.6309
   16LIG     CA  230   7.640   3.265   0.113  0.5952 -0.0826 -0.2688
   16LIG     HA  231   7.638   3.277   0.221  0.8278 -1.4598 -0.0892
   16LIG     CB  232   7.499   3.275   0.051 -0.8121 -0.0746 -0.3495
   16LIG    HB1  233   7.511   3.251  -0.057  1.4550  0.1538 -0.2082
   16LIG    HB2  234   7.464   3.380   0.065 -1.0439 -0.2758  0.6455
   16LIG     CG  235   7.386   3.211   0.125 -0.0916  0.4282 -0.7403
   16LIG    OD1  236   7.286   3.174   0.054 -0.4085  0.0457 -0.0860
   16LIG    OD2  237   7.375   3.224   0.248 -0.0517 -0.2387  0.0301
   16LIG      C  238   7.707   3.126   0.098 -0.7115 -0.2646  0.9383
   16LIG    OT1  239   7.808   3.121   0.021 -0.7306  0.1347 -0.0155
   16LIG    OT2  240   7.667   3.025   0.160 -0.1561  0.1714 -0.6967
   17LIG      N  241   3.305   0.704   9.159  0.1385  0.0842  0.1397
   17LIG     H1  242   3.296   0.667   9.256  2.2670 -0.9387  0.0110
   17LIG     H2  243   3.365   0.790   9.160  1.0935 -0.5627  0.0685
   17LIG     H3  244   3.214   0.734   9.120  0.9100  0.5930 -1.3684
   17LIG     CA  245   3.382   0.602   9.084  0.3696  0.1802 -0.2058
   17LIG     HA  246   3.426   0.643   8.994  0.9888  0.3314  0.1562
   17LIG     CB  247   3.502   0.558   9.173 -0.1567 -0.2168  0.0578
   17LIG    HB1  248   3.459   0.522   9.269 -2.2073  3.3548  0.6541
   17LIG    HB2  249   3.568   0.643   9.202  1.3664 -1.9854  2.1665
   17LIG     CG  250   3.597   0.462   9.114  0.2732  0.5669 -0.4561
   17LIG    OD1  251   3.612   0.349   9.168  0.3606 -0.0251  0.1963
   17LIG    OD2  252   3.658   0.493   9.012 -0.1480 -0.5855  1.0327
   17LIG      C  253   3.294   0.486   9.051 -0.2285  0.3654  0.0846
   17LIG    OT1  254   3.176   0.486   9.103  0.1642  0.7468  0.2701
   17LIG    OT2  255   3.333   0.396   8.974  0.2048  0.4943  0.5911
   18LIG      N  256   2.523   0.560   0.266  0.2971  0.3015 -0.2077
   18LIG     H1  257   2.510   0.587   0.366 -1.7578  0.7205 -0.5460
   18LIG     H2  258   2.453   0.485   0.246 -0.1986  1.1880 -1.9919
   18LIG     H3  259   2.621   0.528   0.250  0.9743  1.0498  2.0431
   18LIG     CA  260   2.487   0.673   0.179  0.2779  0.2685  0.2749
   18LIG     HA  261   2.560   0.751   0.199 -0.1118  1.0890 -1.3678
   18LIG     CB  262   2.476   0.626   0.032 -0.7089  0.4306 -0.1231
   18LIG    HB1  263   2.385   0.563   0.019 -1.1858  0.1982  3.3175
   18LIG    HB2  264   2.568   0.571   0.003 -0.6375  0.6930 -0.3897
   18LIG     CG  265   2.476   0.740  -0.070  0.8508  0.2952 -0.5038
   18LIG    OD1  266   2.377   0.746  -0.147 -0.0150 -0.0321 -0.2930
   18LIG    OD2  267   2.576   0.814  -0.072  0.4860 -0.1888 -0.5938
   18LIG      C  268   2.354   0.732   0.230  0.3688 -0.6862 -0.8425
   18LIG    OT1  269   2.281   0.675   0.311 -0.2848  0.1227 -0.5064
   18LIG    OT2  270   2.311   0.841   0.180 -0.4848  0.2745 -0.0532
   19LIG      N  271   4.495   9.842   5.481  0.1810  0.1274 -0.0794
   19LIG     H1  272   4.437   9.797   5.407  0.4637 -0.2398 -0.0817
   19LIG     H2  273   4.570   9.772   5.499  0.5291  0.0021 -1.8261
   19LIG     H3  274   4.429   9.834   5.561 -3.8046 -1.7848 -3.1688
   19LIG     CA  275   4.556   9.971   5.455 -0.8213  0.3696 -0.2576
   19LIG     HA  276   4.659   9.962   5.486 -1.1711 -5.3209  0.2953
   19LIG     CB  277   4.545  10.002   5.308 -0.1008 -0.1736 -0.0189
   19LIG    HB1  278   4.594  10.099   5.283  2.0967 -0.1283  3.7697
   19LIG    HB2  279   4.439   9.990   5.275 -0.2902  2.1335 -0.4348
   19LIG     CG  280   4.630   9.905   5.238 -1.2913 -0.1516 -0.9227
   19LIG    OD1  281   4.613   9.890   5.112  0.3954  0.3612 -0.3314
   19LIG    OD2  282   4.731   9.854   5.300  0.1291  0.5358 -0.0953
   19LIG      C  283   4.501  10.088   5.537  0.1466 -0.5419 -0.1209
   19LIG    OT1  284   4.415  10.080   5.626 -0.0537 -0.3604  0.2331
   19LIG    OT2  285   4.540  10.207   5.512 -0.4596 -0.2328 -0.8745
   20LIG      N  286   7.938   9.023   4.350 -0.6158 -0.0527 -0.8086
   20LIG     H1  287   7.853   8.998   4.295 -0.8742  0.4407 -0.6420
   20LIG     H2  288   8.018   9.031   4.283 -0.5933  0.9305 -0.6828
   20LIG     H3  289   7.961   8.946   4.416  2.7627  0.4295 -1.2230
   20LIG     CA  290   7.926   9.146   4.432 -0.0372 -0.1083  0.1474
   20LIG     HA  291   8.023   9.189   4.455  0.0076 -0.4447  0.5992
   20LIG     CB  292   7.850   9.257   4.345  0.7056  0.5129  0.0958
   20LIG    HB1  293   7.739   9.256   4.352  0.7908 -0.8277  2.8194
   20LIG    HB2  294   7.877   9.247   4.238 -2.1726 -1.7450 -0.5411
   20LIG     CG  295   7.890   9.382   4.405 -0.4466 -0.9835  0.9626
   20LIG    OD1  296   7.804   9.466   4.448  0.9418 -0.5325 -0.0988
   20LIG    OD2  297   8.014   9.425   4.414 -0.0573  0.3269  0.2194
   20LIG      C  298   7.858   9.123   4.568 -0.0888 -0.1189  0.3105
   20LIG    OT1  299   7.779   9.024   4.590 -0.0228  0.5382  0.8828
   20LIG    OT2  300   7.879   9.207   4.660  0.4654 -0.3809  0.2832
   21LIG      N  301   8.580   7.118   0.605  0.8193  0.3422  0.3983
   21LIG     H1  302   8.483   7.082   0.615  1.3865 -1.4241 -0.1217
   21LIG     H2  303   8.635   7.033   0.631  0.2544 -1.2239 -3.0583
   21LIG     H3  304   8.594   7.193   0.676 -2.0449  0.4229  0.9833
   21LIG     CA  305   8.611   7.146   0.463 -0.5137 -0.1428  0.2951
   21LIG     HA  306   8.576   7.245   0.437 -1.2542 -0.4730  0.0047
   21LIG     CB  307   8.760   7.142   0.449  0.2726 -0.2761  0.3143
   21LIG    HB1  308   8.803   7.039   0.451  0.6185 -0.1379  0.1375
   21LIG    HB2  309   8.827   7.193   0.521  1.7387  2.7832 -2.8733
   21LIG     CG  310   8.814   7.211   0.322 -0.3929 -0.0981 -0.0828
   21LIG    OD1  311   8.911   7.152   0.269  0.2812 -0.4192  0.2330
   21LIG    OD2  312   8.778   7.327   0.289 -0.3065 -0.4473  0.2755
   21LIG      C  313   8.528   7.068   0.364  1.2034  0.2222  0.0492
   21LIG    OT1  314   8.448   6.977   0.404 -0.1848  0.6107 -0.4362
   21LIG    OT2  315   8.535   7.090   0.242 -0.2589 -0.0910  0.5465
   22LIG      N  316   2.588   4.639   0.013  0.3818  0.7043  0.1722
   22LIG     H1  317   2.678   4.585   0.014  0.1157  0.1524 -1.4464
   22LIG     H2  318   2.569   4.647  -0.089 -2.7132  0.7907  0.6631
   22LIG     H3  319   2.605   4.731   0.058  0.3126  1.3882 -1.1413
   22LIG     CA  320   2.478   4.566   0.075 -0.4781  0.1615 -0.1777
   22LIG     HA  321   2.491   4.577   0.182  0.3445 -0.1923 -0.2282
   22LIG     CB  322   2.351   4.633   0.023 -0.0863 -0.3621  0.4202
   22LIG    HB1  323   2.325   4.585  -0.073 -1.2877  0.3530  0.3642
   22LIG    HB2  324   2.357   4.744   0.015  0.0471 -0.3002  1.2636
   22LIG     CG  325   2.241   4.616   0.124  0.4281  0.2261  0.0656
   22LIG    OD1  326   2.122   4.595   0.083  0.0008  0.4913  0.1520
   22LIG    OD2  327   2.269   4.627   0.248  0.2458  0.3190  0.4639
   22LIG      C  328   2.474   4.411   0.060 -0.1261  0.1428  0.3322
   22LIG    OT1  329   2.539   4.353  -0.031 -0.0226 -0.4185  0.2861
   22LIG    OT2  330   2.388   4.353   0.132 -0.2597 -0.0623  0.0075
   23LIG      N  331   2.132   1.771   8.449  0.0177 -0.1787 -0.1601
   23LIG     H1  332   2.081   1.758   8.360  0.3172  0.4302 -0.4171
   23LIG     H2  333   2.159   1.871   8.453 -2.3839  0.5217  2.5188
   23LIG     H3  334   2.221   1.716   8.452 -0.3656 -0.8933 -1.1954
   23LIG     CA  335   2.029   1.727   8.550  0.2516  0.1307 -0.1708
   23LIG     HA  336   1.988   1.640   8.501 -0.1640  1.0149 -1.4337
   23LIG     CB  337   2.099   1.704   8.687  0.2615 -0.0443 -0.2027
   23LIG    HB1  338   2.122   1.802   8.733  1.9155 -1.1287  1.4077
   23LIG    HB2  339   2.194   1.648   8.670 -0.1228 -1.0923  0.9537
   23LIG     CG  340   2.032   1.621   8.780 -0.1760  0.6497  0.2982
   23LIG    OD1  341   2.051   1.625   8.902  0.0157 -0.8178 -0.2840
   23LIG    OD2  342   1.978   1.518   8.724  0.3716 -0.1348 -0.3769
   23LIG      C  343   1.897   1.811   8.576  0.6015 -0.9423  0.2267
   23LIG    OT1  344   1.878   1.919   8.510 -0.0572  0.7266 -0.9750
   23LIG    OT2  345   1.810   1.775   8.658  0.3448  0.0789  0.2105
   24LIG      N  346   0.526   2.222   2.367  0.2504  0.1230  0.0862
   24LIG     H1  347   0.518   2.165   2.453  0.9314  3.5840  2.6231
   24LIG     H2  348   0.446   2.289   2.365 -0.4153 -0.6290 -2.0264
   24LIG     H3  349   0.509   2.156   2.288  0.8794  1.2732 -1.0440
   24LIG     CA  350   0.661   2.291   2.372 -0.0424 -0.1043  0.2500
   24LIG     HA  351   0.730   2.216   2.337 -0.3291 -0.0963 -0.3371
   24LIG     CB  352   0.661   2.415   2.278  0.0101  0.1151  0.7757
   24LIG    HB1  353   0.598   2.500   2.310  0.4191  1.3817 -1.5701
   24LIG    HB2  354   0.610   2.383   2.184  0.8565 -0.3744  0.4742
   24LIG     CG  355   0.798   2.460   2.237  0.0705  0.0050  0.8700
   24LIG    OD1  356   0.818   2.584   2.242 -0.3085  0.1387  0.5750
   24LIG    OD2  357   0.880   2.378   2.193 -0.1169  0.1449  0.4679
   24LIG      C  358   0.696   2.333   2.526  0.3378 -0.1101  0.7264
   24LIG    OT1  359   0.599   2.333   2.610 -0.1883  0.0568 -0.5601
   24LIG    OT2  360   0.810   2.369   2.560  0.2681 -0.1289 -0.0998
   25LIG      N  361   0.784   3.339   8.382  0.5361 -0.0890 -0.1605
   25LIG     H1  362   0.741   3.262   8.326 -1.1109  2.1975 -2.2518
   25LIG     H2  363   0.722   3.362   8.462  2.0939 -0.5389  1.2354
   25LIG     H3  364   0.789   3.419   8.316 -0.9022 -0.0432 -0.2325
   25LIG     CA  365   0.916   3.297   8.445  0.5541 -0.3533 -0.2778
   25LIG     HA  366   0.934   3.192   8.431  3.8368  0.1736 -0.9189
   25LIG     CB  367   1.027   3.383   8.369  0.2459 -0.0151 -0.3845
   25LIG    HB1  368   1.005   3.491   8.378 -3.5513 -0.5155 -1.7765
   25LIG    HB2  369   1.007   3.370   8.261  0.6381 -0.1338 -0.4474
   25LIG     CG  370   1.163   3.325   8.394 -0.1821  0.0996  1.0517
   25LIG    OD1  371   1.256   3.408   8.408 -0.3984  0.1307  0.9380
   25LIG    OD2  372   1.174   3.204   8.403  0.1047  0.2329  0.4787
   25LIG      C  373   0.910   3.326   8.597  0.6181  0.5088 -0.1162
   25LIG    OT1  374   0.797   3.360   8.649 -0.2961 -0.3996  0.6650
   25LIG    OT2  375   1.014   3.317   8.669 -0.0026 -0.0630  0.2578
   26LIG      N  376   0.603   7.183   0.836  0.6004 -0.5644 -0.6633
   26LIG     H1  377   0.622   7.163   0.936 -0.1942 -1.1136 -0.6160
   26LIG     H2  378   0.503   7.209   0.821  0.6328 -0.9690 -1.6626
   26LIG     H3  379   0.619   7.099   0.778  0.0505 -1.1927  0.0797
   26LIG     CA  380   0.694   7.296   0.792 -0.1111  0.7432 -0.0592
   26LIG     HA  381   0.784   7.242   0.764 -2.0264 -1.9661 -1.4527
   26LIG     CB  382   0.626   7.359   0.669 -0.5831 -0.4689 -0.0166
   26LIG    HB1  383   0.539   7.425   0.690  0.1362  0.5002 -0.0222
   26LIG    HB2  384   0.587   7.275   0.609 -0.0596  0.2954 -1.4726
   26LIG     CG  385   0.722   7.433   0.577  0.2945 -0.2501  0.1959
   26LIG    OD1  386   0.691   7.541   0.528 -0.0739  0.0157 -0.2393
   26LIG    OD2  387   0.836   7.388   0.555  0.1102  0.4107  0.6445
   26LIG      C  388   0.737   7.396   0.901 -0.3956  0.0360  0.7114
   26LIG    OT1  389   0.675   7.401   1.010  0.4157  0.0620 -0.2407
   26LIG    OT2  390   0.839   7.464   0.875 -0.0006  0.3841 -0.1115
   27LIG      N  391   4.642   9.764   4.876 -0.4238 -0.3371 -0.0824
   27LIG     H1  392   4.620   9.665   4.896  0.3770 -0.5291 -0.1100
   27LIG     H2  393   4.742   9.766   4.848 -0.5007  0.0916 -0.3420
   27LIG     H3  394   4.636   9.813   4.968 -0.2127  0.1012 -0.2957
   27LIG     CA  395   4.532   9.807   4.784 -0.4836  0.2662  0.5579
   27LIG     HA  396   4.476   9.883   4.836 -0.2509  0.0363  1.1475
   27LIG     CB  397   4.590   9.849   4.650  0.0044 -1.2481  0.2650
   27LIG    HB1  398   4.611   9.763   4.583  0.1872  0.0424 -1.4148
   27LIG    HB2  399   4.683   9.908   4.664  0.6507 -2.2243  0.2203
   27LIG     CG  400   4.496   9.930   4.568 -0.0167 -0.2473 -0.1599
   27LIG    OD1  401   4.480   9.913   4.447  0.0099  0.4102  0.6807
   27LIG    OD2  402   4.425  10.009   4.630 -0.7911  0.0981  0.1591
   27LIG      C  403   4.426   9.692   4.769 -0.8067  0.0467 -0.0593
   27LIG    OT1  404   4.455   9.585   4.823 -0.1971  0.2601  0.3753
   27LIG    OT2  405   4.322   9.705   4.702 -0.4463  0.2979  0.0617
   28LIG      N  406   9.501   8.897   3.185 -0.2537 -0.1756 -0.0694
   28LIG     H1  407   9.505   8.900   3.081  1.9442 -0.2381 -0.0369
   28LIG     H2  408   9.581   8.845   3.227 -0.2500  0.8393  1.2467
   28LIG     H3  409   9.415   8.843   3.209 -0.8766  0.0789 -1.6226
   28LIG     CA  410   9.482   9.025   3.254  0.6467  0.4723  1.0922
   28LIG     HA  411   9.550   9.096   3.209 -1.2630  2.1107  0.6466
   28LIG     CB  412   9.339   9.078   3.212  0.5942 -0.8285  0.1354
   28LIG    HB1  413   9.245   9.041   3.256  0.1827  0.8942  0.8076
   28LIG    HB2  414   9.317   9.079   3.103  0.9075 -0.2257  0.0707
   28LIG     CG  415   9.337   9.232   3.243 -0.0123 -0.3569  0.2739
   28LIG    OD1  416   9.241   9.283   3.303  0.1062 -0.1261 -0.4410
   28LIG    OD2  417   9.443   9.292   3.212 -0.0588 -0.0134 -0.2769
   28LIG      C  418   9.498   9.013   3.398 -0.1175 -0.8496 -0.2105
   28LIG    OT1  419   9.523   8.899   3.456  0.2340 -0.3779 -0.1067
   28LIG    OT2  420   9.482   9.111   3.477  0.2213  0.4013  0.0217
   29LIG      N  421   3.400   1.303   1.851 -0.2664 -0.0161  0.6141
   29LIG     H1  422   3.471   1.293   1.776 -2.8065  1.1024 -2.1651
   29LIG     H2  423   3.342   1.381   1.813  2.0085  1.1146 -0.8005
   29LIG     H3  424   3.441   1.336   1.941  1.0565  1.4025 -0.4338
   29LIG     CA  425   3.347   1.164   1.870 -1.0599 -0.5798 -0.4263
   29LIG     HA  426   3.281   1.156   1.955  1.3905 -3.9219  1.4279
   29LIG     CB  427   3.290   1.114   1.736 -0.4325  0.3994  0.3140
   29LIG    HB1  428   3.362   1.083   1.658 -0.5245  0.3383  0.2530
   29LIG    HB2  429   3.222   1.189   1.690 -2.7182  0.1751  3.0122
   29LIG     CG  430   3.199   0.989   1.749 -0.7670 -0.6540  0.0304
   29LIG    OD1  431   3.202   0.912   1.653  0.0402 -0.0973 -0.7489
   29LIG    OD2  432   3.114   0.987   1.838  0.1197  0.3984 -0.1337
   29LIG      C  433   3.461   1.072   1.925 -0.0124  0.3075  0.0200
   29LIG    OT1  434   3.584   1.107   1.931  0.3782 -0.3312  0.2301
   29LIG    OT2  435   3.437   0.948   1.953  0.4001 -0.4728  0.2349
   30LIG      N  436   1.255   9.198   4.639 -0.3982 -0.5151 -0.2402
   30LIG     H1  437   1.244   9.244   4.546 -0.4456  0.3017  0.1618
   30LIG     H2  438   1.250   9.095   4.627 -0.0022 -0.3827 -1.7902
   30LIG     H3  439   1.172   9.232   4.692  0.8622 -0.6286  1.9217
   30LIG     CA  440   1.377   9.230   4.707 -0.7617  0.2525  0.6029
   30LIG     HA  441   1.384   9.193   4.809  0.2897  0.7548  0.7328
   30LIG     CB  442   1.487   9.171   4.613 -0.4541 -0.4538 -0.6496
   30LIG    HB1  443   1.481   9.238   4.525 -2.4755 -1.0136 -0.9871
   30LIG    HB2  444   1.470   9.069   4.573 -1.3211 -0.3277 -0.6255
   30LIG     CG  445   1.625   9.159   4.678 -0.1920  0.5592 -0.1739
   30LIG    OD1  446   1.722   9.221   4.631 -0.3627  0.4768  0.1035
   30LIG    OD2  447   1.631   9.090   4.788  0.7355 -0.5423 -0.5993
   30LIG      C  448   1.402   9.385   4.734  1.1400  0.8838 -0.5087
   30LIG    OT1  449   1.321   9.465   4.679 -0.3614  0.2859  0.4659
   30LIG    OT2  450   1.497   9.418   4.811  0.0601  0.0289  1.1318
   31LIG      N  451   6.290   9.313   6.927  0.0856 -0.5635 -0.0015
   31LIG     H1  452   6.237   9.225   6.941  1.8944 -1.9942 -1.6588
   31LIG     H2  453   6.249   9.363   6.846  0.0297  0.1566  0.4610
   31LIG     H3  454   6.392   9.301   6.909  0.0897  0.4231 -0.7334
   31LIG     CA  455   6.276   9.386   7.060  0.1558  0.5551  0.7033
   31LIG     HA  456   6.281   9.490   7.031  0.9861  0.1365 -0.7903
   31LIG     CB  457   6.140   9.362   7.135  0.1081 -0.2710 -0.1610
   31LIG    HB1  458   6.144   9.274   7.203  1.9784  1.8131  2.6617
   31LIG    HB2  459   6.059   9.357   7.059 -0.4034 -1.1249  0.4190
   31LIG     CG  460   6.109   9.482   7.216 -0.3349  0.0546 -0.8245
   31LIG    OD1  461   6.103   9.475   7.342  0.4410  0.4492  0.9326
   31LIG    OD2  462   6.088   9.592   7.156  0.1389 -0.1034  0.4717
   31LIG      C  463   6.396   9.360   7.155  0.8881 -0.1461  0.3701
   31LIG    OT1  464   6.488   9.287   7.118 -0.8527  0.1550 -0.1863
   31LIG    OT2  465   6.400   9.422   7.262  0.0951  0.7231 -0.2911
   32LIG      N  466   4.131   1.477   5.111  0.1745  0.2207 -0.3528
   32LIG     H1  467   4.141   1.390   5.167  1.1143  0.5355 -0.0122
   32LIG     H2  468   4.136   1.460   5.009  2.6818 -0.5618 -0.1691
   32LIG     H3  469   4.203   1.545   5.143  0.0915  0.3571 -0.4556
   32LIG     CA  470   3.999   1.537   5.138  0.3633 -0.3314 -0.0061
   32LIG     HA  471   3.916   1.479   5.099 -1.1927  1.8599 -0.0971
   32LIG     CB  472   3.980   1.543   5.290 -0.7894  0.5128  1.1605
   32LIG    HB1  473   4.043   1.624   5.333  1.0546 -0.7302  0.9048
   32LIG    HB2  474   4.018   1.457   5.349  0.7917  0.9953  0.8961
   32LIG     CG  475   3.840   1.541   5.321  0.2967 -0.4799 -0.7170
   32LIG    OD1  476   3.799   1.638   5.394 -0.0572  0.1058  0.0692
   32LIG    OD2  477   3.765   1.451   5.284  0.0107  0.7487 -0.1387
   32LIG      C  478   3.989   1.685   5.079 -0.2176  0.0660 -0.3329
   32LIG    OT1  479   4.095   1.739   5.041 -0.5298 -0.1836  0.1480
   32LIG    OT2  480   3.882   1.746   5.081  0.5149  0.1586 -0.5017
   33LIG      N  481   8.436   3.769   6.170 -0.0683 -0.3561  0.6995
   33LIG     H1  482   8.522   3.816   6.205  0.3027 -2.5124  2.9400
   33LIG     H2  483   8.360   3.778   6.240  1.2589 -1.1164  2.3191
   33LIG     H3  484   8.453   3.667   6.163  0.5716 -0.2077 -0.1393
   33LIG     CA  485   8.405   3.829   6.035  0.3953 -0.1996 -0.2172
   33LIG     HA  486   8.498   3.829   5.979  1.2407 -1.1079  1.1210
   33LIG     CB  487   8.301   3.738   5.960  1.0261  0.4788  0.4803
   33LIG    HB1  488   8.197   3.750   5.995 -0.0365 -0.9807 -1.9377
   33LIG    HB2  489   8.322   3.629   5.970 -0.1738  0.3491  2.0465
   33LIG     CG  490   8.304   3.762   5.811 -0.0271  0.2601 -0.7886
   33LIG    OD1  491   8.196   3.775   5.750  0.6025  0.0779 -0.0887
   33LIG    OD2  492   8.414   3.741   5.754 -0.3105 -0.0899  0.2731
   33LIG      C  493   8.339   3.971   6.040 -0.2822 -0.4810 -0.0031
   33LIG    OT1  494   8.302   4.023   6.150  0.4002  0.7450 -0.1370
   33LIG    OT2  495   8.331   4.037   5.931  0.4965 -0.3020 -0.2745
   34LIG      N  496   9.777   5.603   2.572  0.4279 -0.5822 -0.2062
   34LIG     H1  497   9.811   5.513   2.611 -1.0865 -1.7379 -1.4279
   34LIG     H2  498   9.768   5.600   2.469  0.9126  0.2563 -0.2791
   34LIG     H3  499   9.834   5.681   2.609  2.1264 -2.0701  0.4867
   34LIG     CA  500   9.647   5.632   2.643  0.0349 -0.2230  0.3723
   34LIG     HA  501   9.583   5.548   2.617  0.2678 -0.9714  2.0762
   34LIG     CB  502   9.679   5.630   2.796  0.6850  0.3503 -0.4285
   34LIG    HB1  503   9.732   5.723   2.826 -0.3108  0.9873 -0.5974
   34LIG    HB2  504   9.737   5.538   2.819 -0.8167 -0.3415  0.7836
   34LIG     CG  505   9.551   5.620   2.875 -0.0303  0.5911 -0.3309
   34LIG    OD1  506   9.507   5.705   2.957 -0.4394  0.1340  0.4613
   34LIG    OD2  507   9.484   5.511   2.859 -0.8223 -0.3317 -0.2240
   34LIG      C  508   9.571   5.752   2.582 -0.5164 -0.3536  0.0926
   34LIG    OT1  509   9.632   5.838   2.513 -0.1536 -0.1231 -0.1934
   34LIG    OT2  510   9.450   5.755   2.612 -0.0428  0.0970 -0.1712
   35LIG      N  511   0.254   1.022   5.938  0.0257  0.0363 -0.0306
   35LIG     H1  512   0.198   1.053   5.856 -0.7230 -0.4553  0.2839
   35LIG     H2  513   0.290   0.926   5.918  1.4294  0.5024  0.1041
   35LIG     H3  514   0.187   1.017   6.017 -1.6729 -0.9880 -1.4813
   35LIG     CA  515   0.375   1.104   5.964  0.3082  0.2860 -0.1671
   35LIG     HA  516   0.367   1.190   5.899 -0.0062  0.5672  0.2438
   35LIG     CB  517   0.395   1.133   6.113 -0.0504 -0.1883 -0.3448
   35LIG    HB1  518   0.418   1.049   6.181  0.2416  0.7817  0.7960
   35LIG    HB2  519   0.299   1.171   6.157  0.2717 -0.2338  0.4174
   35LIG     CG  520   0.492   1.248   6.139  0.1714  0.0607 -0.1571
   35LIG    OD1  521   0.584   1.231   6.220  0.0623  0.0164 -0.1641
   35LIG    OD2  522   0.471   1.359   6.088 -0.9067 -0.2884  0.0045
   35LIG      C  523   0.498   1.029   5.905 -0.2702 -0.4526 -0.5123
   35LIG    OT1  524   0.487   0.913   5.859  0.4272 -0.0656  0.1773
   35LIG    OT2  525   0.607   1.095   5.894  0.7172  0.3153 -0.2527
   36LIG      N  526   9.008   2.980   7.515 -0.1544 -0.3152 -0.2408
   36LIG     H1  527   9.023   2.953   7.416 -2.7306  0.6650 -0.9784
   36LIG     H2  528   8.908   3.004   7.529 -0.1818 -0.5582 -0.0087
   36LIG     H3  529   9.082   3.046   7.547  3.1332 -2.7391 -2.1315
   36LIG     CA  530   9.020   2.843   7.583  0.2732 -0.3827  1.1322
   36LIG     HA  531   9.124   2.815   7.572  0.6291  0.7647  1.4452
   36LIG     CB  532   8.989   2.864   7.731  0.1988  0.0218 -0.1420
   36LIG    HB1  533   8.880   2.874   7.752  0.6146  0.9395  1.9011
   36LIG    HB2  534   9.022   2.955   7.786 -2.6034 -0.2345  2.2665
   36LIG     CG  535   9.051   2.751   7.816  0.9751 -0.3578 -0.1046
   36LIG    OD1  536   9.001   2.736   7.932  0.6386 -0.0187 -0.2397
   36LIG    OD2  537   9.147   2.686   7.775  0.3201 -0.3796  0.0283
   36LIG      C  538   8.925   2.738   7.513 -0.3313  0.3384  0.2722
   36LIG    OT1  539   8.831   2.777   7.436  0.2091  0.0654 -0.0938
   36LIG    OT2  540   8.936   2.616   7.533 -0.6570  0.6148  0.5630
   37LIG      N  541   6.680   7.835   4.510  0.0996  0.5530 -0.3925
   37LIG     H1  542   6.682   7.880   4.417 -0.4231  1.9975  0.2587
   37LIG     H2  543   6.772   7.788   4.519  0.2849  0.6046 -1.9109
   37LIG     H3  544   6.600   7.769   4.520  0.9544 -0.3188  1.0398
   37LIG     CA  545   6.661   7.946   4.613  0.3117  0.3318 -0.7176
   37LIG     HA  546   6.761   7.974   4.641 -0.3125  0.0777  2.0744
   37LIG     CB  547   6.596   8.061   4.533  0.3518  0.6114  0.4153
   37LIG    HB1  548   6.486   8.048   4.521  0.2974  0.7074  0.7670
   37LIG    HB2  549   6.639   8.072   4.432  2.2585 -1.5556  0.9218
   37LIG     CG  550   6.618   8.193   4.605 -0.1680 -0.4551 -0.4471
   37LIG    OD1  551   6.527   8.280   4.604 -0.0546  0.2902  0.5902
   37LIG    OD2  552   6.735   8.208   4.643  0.2675  0.3807 -0.4595
   37LIG      C  553   6.587   7.901   4.738  0.2255 -0.5531 -0.4966
   37LIG    OT1  554   6.543   7.783   4.748  0.1248 -0.2369  0.2165
   37LIG    OT2  555   6.568   7.986   4.829 -0.0192  0.2840 -0.0130
   38LIG      N  556   7.460   1.686   6.610 -0.7654 -0.2955 -0.1889
   38LIG     H1  557   7.450   1.667   6.712  2.1635  1.3394  0.5217
   38LIG     H2  558   7.479   1.593   6.568 -2.1043 -1.7330  2.1576
   38LIG     H3  559   7.530   1.763   6.605  1.5406 -2.0367  2.4372
   38LIG     CA  560   7.320   1.733   6.570  0.3235 -0.1331  0.4203
   38LIG     HA  561   7.318   1.841   6.571 -0.3954 -0.1438  0.4353
   38LIG     CB  562   7.313   1.679   6.422 -0.1566 -0.4199 -0.5545
   38LIG    HB1  563   7.288   1.571   6.427 -2.9306  0.1648 -0.2485
   38LIG    HB2  564   7.402   1.718   6.368  0.4243  0.5543  1.0486
   38LIG     CG  565   7.203   1.743   6.341 -0.4677  0.4593 -0.2285
   38LIG    OD1  566   7.117   1.673   6.286  0.5836 -0.4457  0.2505
   38LIG    OD2  567   7.209   1.870   6.327  0.4371 -0.4197 -0.7079
   38LIG      C  568   7.202   1.677   6.656  0.4311  0.4185  0.0389
   38LIG    OT1  569   7.237   1.593   6.747  0.4887 -0.3770  0.5811
   38LIG    OT2  570   7.084   1.705   6.638  0.0370  0.3422  0.1801
   39LIG      N  571   8.780   7.689   4.048 -0.8936  0.4276 -0.2739
   39LIG     H1  572   8.856   7.627   4.082 -2.3560 -0.3354  1.7721
   39LIG     H2  573   8.689   7.642   4.065 -0.1942 -0.3525  1.6491
   39LIG     H3  574   8.804   7.706   3.948 -0.3054 -1.5248 -0.5041
   39LIG     CA  575   8.772   7.812   4.134 -0.1979  0.2995  0.2721
   39LIG     HA  576   8.682   7.868   4.115  0.4023  0.9662 -0.7086
   39LIG     CB  577   8.785   7.784   4.280  0.8517 -0.3603  0.0157
   39LIG    HB1  578   8.889   7.785   4.319  1.3786  1.5919 -1.3156
   39LIG    HB2  579   8.735   7.686   4.297 -1.3570  0.4388 -1.3488
   39LIG     CG  580   8.702   7.887   4.367  0.1316 -0.3362 -0.8910
   39LIG    OD1  581   8.744   7.886   4.481  0.0964  0.0563 -0.1868
   39LIG    OD2  582   8.600   7.944   4.331 -0.4439 -0.0273  0.0392
   39LIG      C  583   8.880   7.910   4.088  0.4189 -1.0299 -0.5447
   39LIG    OT1  584   8.964   7.880   4.002  0.4259  0.6991 -0.3176
   39LIG    OT2  585   8.874   8.021   4.148  0.5113  0.2969  0.8450
   40LIG      N  586   8.979   5.818   0.872 -0.2156  0.2908  0.7111
   40LIG     H1  587   9.025   5.900   0.826  1.8465 -1.2750 -0.2038
   40LIG     H2  588   8.886   5.804   0.828 -0.5036  3.8895 -0.1924
   40LIG     H3  589   8.976   5.824   0.976  1.2660 -2.0375  0.9675
   40LIG     CA  590   9.066   5.696   0.847  0.5103 -0.1431 -0.3087
   40LIG     HA  591   9.027   5.618   0.911  0.7902 -0.5466 -0.6250
   40LIG     CB  592   9.042   5.663   0.701 -0.1799  0.8384 -0.0962
   40LIG    HB1  593   9.106   5.721   0.631  0.3872 -0.5941 -0.7826
   40LIG    HB2  594   8.932   5.662   0.681 -0.2961 -3.1268  0.1182
   40LIG     CG  595   9.074   5.513   0.686  0.3724  0.1492  0.8780
   40LIG    OD1  596   9.133   5.480   0.578  0.4258 -0.0949 -0.3237
   40LIG    OD2  597   9.034   5.425   0.768 -0.4657 -0.6613  0.0829
   40LIG      C  598   9.218   5.704   0.884  0.3076 -0.0413 -0.1651
   40LIG    OT1  599   9.278   5.812   0.906 -0.0963  0.2918  0.5126
   40LIG    OT2  600   9.284   5.597   0.874 -0.1594 -0.1425  0.4774
   41LIG      N  601   8.957   4.328   7.296 -0.1550 -0.0995  0.2278
   41LIG     H1  602   8.944   4.430   7.277  1.6480 -0.3764 -3.4014
   41LIG     H2  603   8.976   4.312   7.397  2.2703 -1.2869 -0.3578
   41LIG     H3  604   9.034   4.289   7.239 -0.8313 -0.2138 -0.6311
   41LIG     CA  605   8.839   4.259   7.241 -0.3353 -0.2569  0.7010
   41LIG     HA  606   8.830   4.298   7.141 -2.5837 -1.4090  0.3835
   41LIG     CB  607   8.864   4.106   7.216 -0.3578 -0.2538  0.2455
   41LIG    HB1  608   8.884   4.051   7.310 -0.3174 -0.1351  0.3062
   41LIG    HB2  609   8.955   4.093   7.153 -1.2608 -3.4116 -0.6055
   41LIG     CG  610   8.753   4.048   7.135  0.7790  0.2673  0.6371
   41LIG    OD1  611   8.717   3.926   7.162 -0.3001 -0.3084  0.1300
   41LIG    OD2  612   8.716   4.110   7.033 -0.0431  0.8464  0.1913
   41LIG      C  613   8.704   4.293   7.315 -0.1759  0.0376  0.5032
   41LIG    OT1  614   8.722   4.359   7.418  0.6847  0.1003  0.0719
   41LIG    OT2  615   8.588   4.253   7.279 -0.3812  0.2345 -0.1069
   42LIG      N  616   9.522   4.096   2.956 -0.9980 -0.1424 -0.4968
   42LIG     H1  617   9.575   4.184   2.937  0.4969 -0.7395  0.6591
   42LIG     H2  618   9.427   4.120   2.922 -1.0399  0.9955  0.3746
   42LIG     H3  619   9.520   4.071   3.057 -0.8147 -2.6802 -1.0572
   42LIG     CA  620   9.598   3.984   2.887  0.2657 -0.2914  0.0114
   42LIG     HA  621   9.532   3.899   2.875  1.3456 -1.2145  0.4420
   42LIG     CB  622   9.635   4.049   2.746  0.2659  0.2493  0.3199
   42LIG    HB1  623   9.720   4.120   2.749  0.7005 -0.3078  2.0712
   42LIG    HB2  624   9.551   4.109   2.706 -2.3602 -2.8959  0.7426
   42LIG     CG  625   9.668   3.941   2.642 -0.1068 -0.7738  0.4821
   42LIG    OD1  626   9.743   3.978   2.546  0.4714  0.1440  0.0478
   42LIG    OD2  627   9.614   3.825   2.646  0.0116 -0.0955  0.3727
   42LIG      C  628   9.732   3.941   2.956  0.0237  0.0209  0.4015
   42LIG    OT1  629   9.762   3.985   3.070  0.2212  0.2346  0.0067
   42LIG    OT2  630   9.809   3.867   2.891 -0.4551 -0.1840  0.4872
   43LIG      N  631   0.884   7.110   1.866 -0.7733  0.0526 -0.3736
   43LIG     H1  632   0.849   7.033   1.806  0.7787  0.8074 -2.3882
   43LIG     H2  633   0.833   7.200   1.855 -2.3468 -0.5572  1.3472
   43LIG     H3  634   0.984   7.128   1.845 -0.7544  1.8131  0.9894
   43LIG     CA  635   0.876   7.083   2.015 -0.3101  0.5069 -0.4653
   43LIG     HA  636   0.939   7.151   2.070  2.2002 -1.3049 -0.9500
   43LIG     CB  637   0.727   7.068   2.059  0.4757 -0.6784 -0.1126
   43LIG    HB1  638   0.681   6.977   2.016 -0.6163  0.2819 -1.0462
   43LIG    HB2  639   0.669   7.155   2.021 -0.1020 -1.2578 -0.5599
   43LIG     CG  640   0.718   7.074   2.208  0.0824  0.4679  0.6424
   43LIG    OD1  641   0.647   6.985   2.267  0.2539 -0.3290 -0.1558
   43LIG    OD2  642   0.768   7.173   2.266  0.1701 -0.6813 -0.3024
   43LIG      C  643   0.943   6.940   2.039  0.9540 -0.0910 -0.8594
   43LIG    OT1  644   0.992   6.875   1.943 -0.0809 -0.0821 -0.4873
   43LIG    OT2  645   0.958   6.901   2.160 -0.3224 -0.1709  0.2778
   44LIG      N  646   1.367   9.649   6.907  0.5701 -0.2236 -0.0272
   44LIG     H1  647   1.293   9.646   6.834  0.7479  0.4260 -0.2325
   44LIG     H2  648   1.409   9.554   6.896 -1.0762 -0.8833 -0.9667
   44LIG     H3  649   1.336   9.668   7.004  3.2738  2.3913  0.4573
   44LIG     CA  650   1.455   9.762   6.870  0.3760  0.2997  0.2680
   44LIG     HA  651   1.405   9.857   6.878 -2.3808 -0.9971 -0.1909
   44LIG     CB  652   1.574   9.763   6.972  0.4779  0.6395 -1.0776
   44LIG    HB1  653   1.651   9.683   6.957  0.6342  0.7209 -0.7334
   44LIG    HB2  654   1.532   9.766   7.075 -0.2958  2.1340 -1.4162
   44LIG     CG  655   1.634   9.900   6.973  0.3457 -0.5049  0.0457
   44LIG    OD1  656   1.759   9.902   6.988 -0.0559  0.4486 -0.1864
   44LIG    OD2  657   1.564  10.007   6.985  0.1324  0.3071  0.3368
   44LIG      C  658   1.501   9.748   6.723  0.2310  0.4857 -0.9876
   44LIG    OT1  659   1.467   9.640   6.662 -0.2426 -0.2801  0.4348
   44LIG    OT2  660   1.564   9.841   6.667 -0.1880 -0.2635  1.0187
   45LIG      N  661   0.184   1.301   3.937  0.3482  0.5718 -0.4448
   45LIG     H1  662   0.103   1.363   3.957 -0.0479 -0.1401  0.2473
   45LIG     H2  663   0.155   1.205   3.909  0.4318  1.2439 -3.0461
   45LIG     H3  664   0.239   1.301   4.026 -1.8705 -2.2647  1.1191
   45LIG     CA  665   0.254   1.380   3.831 -0.2487  0.1039 -0.0656
   45LIG     HA  666   0.349   1.335   3.805 -1.2513 -0.5976 -2.7808
   45LIG     CB  667   0.156   1.369   3.714  0.3229  0.4141 -0.2363
   45LIG    HB1  668   0.081   1.451   3.723 -1.8611 -1.7468  4.1942
   45LIG    HB2  669   0.095   1.277   3.702  0.1795  0.4401  0.2863
   45LIG     CG  670   0.230   1.384   3.585 -0.7549 -0.0533 -0.0023
   45LIG    OD1  671   0.162   1.413   3.481  0.1968 -0.2506 -0.4637
   45LIG    OD2  672   0.348   1.335   3.568 -0.0539 -0.2646  0.1054
   45LIG      C  673   0.285   1.523   3.880  0.1728  0.4439  0.8854
   45LIG    OT1  674   0.273   1.554   3.998  0.3154 -0.4676  0.0508
   45LIG    OT2  675   0.337   1.601   3.795 -0.1221 -0.2598  0.0326
   46LIG      N  676   1.433   1.237   6.839  0.2814 -0.3135  0.2504
   46LIG     H1  677   1.424   1.134   6.840  2.6030 -0.5746  1.7941
   46LIG     H2  678   1.393   1.263   6.932 -1.8662 -1.6231 -0.2566
   46LIG     H3  679   1.380   1.284   6.762 -0.0988  1.5585  1.5732
   46LIG     CA  680   1.568   1.290   6.834  0.4627  0.0727  0.3405
   46LIG     HA  681   1.586   1.325   6.935 -0.9200  2.2849 -0.0988
   46LIG     CB  682   1.659   1.167   6.812  0.6071 -0.1049 -0.0369
   46LIG    HB1  683   1.650   1.135   6.706 -0.8028  0.2428 -0.0452
   46LIG    HB2  684   1.629   1.089   6.885  0.4287 -0.2911 -0.3094
   46LIG     CG  685   1.802   1.200   6.837 -0.8906 -0.0212 -0.4287
   46LIG    OD1  686   1.882   1.167   6.749  0.1976  0.3833 -0.8190
   46LIG    OD2  687   1.843   1.257   6.940 -0.0654  0.2459 -0.4446
   46LIG      C  688   1.577   1.411   6.738 -0.4366 -0.1303  0.9177
   46LIG    OT1  689   1.478   1.462   6.686  0.4356  0.5060 -0.4428
   46LIG    OT2  690   1.690   1.453   6.708  0.2942  0.3336 -0.8660
   47LIG      N  691   1.927   0.696   4.298 -0.8833  0.4976 -0.2844
   47LIG     H1  692   1.943   0.672   4.198 -0.9887 -1.8313  0.2013
   47LIG     H2  693   1.860   0.774   4.314 -2.2007 -0.5826 -0.3534
   47LIG     H3  694   2.015   0.739   4.333 -0.9740 -0.4694  1.1912
   47LIG     CA  695   1.897   0.576   4.373  0.2789 -0.1489  0.2558
   47LIG     HA  696   1.988   0.522   4.397 -0.9647 -2.1629  0.6063
   47LIG     CB  697   1.835   0.629   4.508 -0.0027 -0.1377  0.2380
   47LIG    HB1  698   1.739   0.684   4.503  1.5116  2.5674 -1.2067
   47LIG    HB2  699   1.906   0.704   4.549  0.7729 -1.8825  2.3149
   47LIG     CG  700   1.828   0.526   4.613  0.6200 -0.7092 -0.2411
   47LIG    OD1  701   1.718   0.499   4.670  0.5262  0.3928  0.1765
   47LIG    OD2  702   1.931   0.459   4.642  0.6165 -0.1053  0.3551
   47LIG      C  703   1.798   0.479   4.302  0.4853 -0.7380  0.0268
   47LIG    OT1  704   1.765   0.506   4.183  0.3288 -0.7629 -0.1444
   47LIG    OT2  705   1.764   0.372   4.359  0.2786 -0.0175  0.2704
   48LIG      N  706   4.897   3.998   9.437 -0.0996  0.3165 -0.4747
   48LIG     H1  707   4.973   4.005   9.366 -0.8051 -1.4810 -1.4872
   48LIG     H2  708   4.822   4.063   9.406 -0.8898 -0.4766 -0.2733
   48LIG     H3  709   4.928   4.016   9.534 -3.4295 -0.5694  0.8817
   48LIG     CA  710   4.852   3.859   9.429 -0.1434  0.2362 -0.3954
   48LIG     HA  711   4.771   3.849   9.500 -0.9079  0.9258 -1.1487
   48LIG     CB  712   4.821   3.834   9.284 -0.6063 -0.1326  0.4252
   48LIG    HB1  713   4.917   3.801   9.238 -1.8289 -1.2457 -1.4883
   48LIG    HB2  714   4.789   3.919   9.221  2.1427  0.1415 -0.7420
   48LIG     CG  715   4.733   3.708   9.272 -0.0359 -0.2348 -0.0792
   48LIG    OD1  716   4.767   3.610   9.200  0.1546 -0.5607  0.0610
   48LIG    OD2  717   4.620   3.724   9.335 -0.0377  0.6873 -0.2678
   48LIG      C  718   4.964   3.762   9.487 -0.2171 -0.4368  0.8270
   48LIG    OT1  719   5.080   3.808   9.506 -0.4351  0.1545 -0.3608
   48LIG    OT2  720   4.937   3.642   9.495 -0.3799 -0.1664  0.2881
   49LIG      N  721   6.045   1.440   6.369 -0.5505  0.7042  0.4436
   49LIG     H1  722   6.053   1.389   6.459 -2.7147 -1.0729 -0.2791
   49LIG     H2  723   6.105   1.386   6.303 -0.2096  1.6762 -0.0591
   49LIG     H3  724   6.084   1.536   6.376  2.2774 -0.1935 -1.1934
   49LIG     CA  725   5.899   1.444   6.325  0.7502  0.1337 -0.0832
   49LIG     HA  726   5.908   1.470   6.221  3.4791  0.4856  0.1754
   49LIG     CB  727   5.857   1.287   6.340 -0.0925 -0.1262  0.2915
   49LIG    HB1  728   5.823   1.263   6.443 -0.2383  0.5130  0.4001
   49LIG    HB2  729   5.938   1.222   6.302 -1.3061 -1.5764  0.1205
   49LIG     CG  730   5.733   1.257   6.257 -0.1439 -0.4220 -0.2970
   49LIG    OD1  731   5.632   1.204   6.315  1.0498 -0.3563 -0.0482
   49LIG    OD2  732   5.729   1.303   6.142 -0.0107 -0.1591  0.1793
   49LIG      C  733   5.811   1.540   6.413  0.7487 -0.4524 -0.1136
   49LIG    OT1  734   5.847   1.568   6.529  0.6952  0.6241 -1.1201
   49LIG    OT2  735   5.708   1.590   6.360 -0.4599 -0.1413  0.2239
   50LIG      N  736   6.575   0.150   3.129 -0.1718  0.6395 -0.4165
   50LIG     H1  737   6.473   0.169   3.121 -0.5527 -1.2435 -0.4026
   50LIG     H2  738   6.619   0.127   3.221  1.0834 -0.2601 -1.2237
   50LIG     H3  739   6.623   0.234   3.090  1.1280  0.9807  1.7615
   50LIG     CA  740   6.611   0.037   3.031 -0.9911 -0.7464 -0.5835
   50LIG     HA  741   6.539  -0.039   3.058  1.0269 -1.9117  1.8774
   50LIG     CB  742   6.571   0.086   2.887 -0.2084 -0.0129  0.8430
   50LIG    HB1  743   6.656   0.146   2.850 -1.3305  1.8136  1.0825
   50LIG    HB2  744   6.482   0.152   2.899  0.1433  0.8236 -0.8854
   50LIG     CG  745   6.524  -0.023   2.799 -0.3255  0.0177 -0.3466
   50LIG    OD1  746   6.552  -0.015   2.679  0.3083 -0.5644  0.2464
   50LIG    OD2  747   6.446  -0.109   2.852  0.2718  0.2038 -0.0021
   50LIG      C  748   6.756  -0.020   3.045  0.2889  0.4045  0.3140
   50LIG    OT1  749   6.834   0.045   3.123 -0.1898  0.1290  0.1219
   50LIG    OT2  750   6.784  -0.127   2.990 -0.1379  0.4415 -0.4098
   51LIG      N  751   8.072   6.551   7.996  0.0522  0.3168  0.0101
   51LIG     H1  752   8.062   6.563   7.893 -2.0415  0.4440  0.1857
   51LIG     H2  753   8.009   6.613   8.050 -1.5373 -0.6603 -0.6542
   51LIG     H3  754   8.170   6.576   8.019  0.1588 -2.0714  2.6908
   51LIG     CA  755   8.050   6.414   8.031 -0.5732 -0.1385  0.1754
   51LIG     HA  756   8.045   6.414   8.139 -0.0302 -1.3089  0.2138
   51LIG     CB  757   7.909   6.386   7.967 -0.3390 -1.3288  0.7029
   51LIG    HB1  758   7.918   6.365   7.859  0.7448 -0.4741  0.6096
   51LIG    HB2  759   7.836   6.468   7.987  0.6296 -0.9962  3.2367
   51LIG     CG  760   7.844   6.273   8.046 -0.1390  0.2185  1.8855
   51LIG    OD1  761   7.814   6.166   7.983 -0.0096 -0.1002  0.0311
   51LIG    OD2  762   7.832   6.282   8.167  0.4862  0.1009 -0.2939
   51LIG      C  763   8.147   6.310   7.982 -0.3743 -0.8514 -0.6747
   51LIG    OT1  764   8.214   6.335   7.878  0.5121 -0.2080 -0.0090
   51LIG    OT2  765   8.155   6.195   8.038 -0.3188 -0.7786  0.0460
   52LIG      N  766   9.615   4.810   7.675 -0.5606  0.5492 -0.8285
   52LIG     H1  767   9.692   4.740   7.666 -2.3163 -1.5559 -0.4833
   52LIG     H2  768   9.528   4.766   7.638 -2.4258  2.8007  0.6338
   52LIG     H3  769   9.635   4.890   7.613  1.4713  1.4044  0.8278
   52LIG     CA  770   9.591   4.853   7.819 -0.0993  0.2324 -0.2519
   52LIG     HA  771   9.603   4.767   7.883 -1.3453  1.9732  2.4784
   52LIG     CB  772   9.690   4.967   7.850  0.4446 -0.0145 -0.6748
   52LIG    HB1  773   9.646   5.062   7.810 -0.8133 -0.0397  0.5736
   52LIG    HB2  774   9.790   4.955   7.805  0.8874 -1.0033  0.5336
   52LIG     CG  775   9.698   4.982   8.001 -0.9834 -0.6519  0.1703
   52LIG    OD1  776   9.711   5.101   8.045 -0.1794 -0.3597  0.2415
   52LIG    OD2  777   9.706   4.880   8.074  0.2077 -0.1611 -0.3394
   52LIG      C  778   9.444   4.904   7.853  0.2426 -0.2817 -0.3940
   52LIG    OT1  779   9.352   4.911   7.767  0.8768  0.6431 -0.1966
   52LIG    OT2  780   9.421   4.926   7.972  0.0454 -0.0097 -0.3238
   53LIG      N  781   0.119   2.646   6.474 -0.1387 -0.6696 -0.1421
   53LIG     H1  782   0.155   2.677   6.382  2.0865  1.8791  1.4100
   53LIG     H2  783   0.134   2.725   6.541 -1.1771 -0.9308  0.4141
   53LIG     H3  784   0.179   2.572   6.515  1.1063 -0.6783 -1.8920
   53LIG     CA  785  -0.021   2.589   6.482 -0.1549  0.6495 -0.1374
   53LIG     HA  786  -0.092   2.665   6.456  0.6345  1.1711 -0.8289
   53LIG     CB  787  -0.034   2.464   6.398  0.3110  0.6937  0.5080
   53LIG    HB1  788  -0.001   2.371   6.448 -1.4104  0.1893  0.7749
   53LIG    HB2  789   0.023   2.492   6.307 -0.8064 -0.1980 -0.4998
   53LIG     CG  790  -0.178   2.443   6.351 -0.0857 -0.4096 -0.0679
   53LIG    OD1  791  -0.229   2.328   6.352 -0.0681 -0.3763 -0.1303
   53LIG    OD2  792  -0.241   2.546   6.314 -0.0120  0.0423 -0.0931
   53LIG      C  793  -0.062   2.544   6.627 -0.6273  0.4084  0.5918
   53LIG    OT1  794   0.034   2.554   6.712 -0.0013 -0.5634  0.6888
   53LIG    OT2  795  -0.180   2.504   6.655  0.0660  0.5286  0.4255
   54LIG      N  796   9.268   6.055   5.349  0.3420 -0.1170  0.1786
   54LIG     H1  797   9.319   5.967   5.373 -1.9873 -1.9401 -1.0823
   54LIG     H2  798   9.275   6.064   5.246 -2.6051 -0.6901 -0.1587
   54LIG     H3  799   9.300   6.142   5.395  1.4517 -0.3456 -0.1109
   54LIG     CA  800   9.119   6.045   5.391  0.5200  0.0390 -0.8074
   54LIG     HA  801   9.076   5.955   5.350  1.2706 -0.7889  0.1740
   54LIG     CB  802   9.123   6.054   5.545 -0.2576 -0.4135  0.2691
   54LIG    HB1  803   9.153   6.157   5.575 -1.0469  0.0567 -0.5007
   54LIG    HB2  804   9.203   5.989   5.586 -0.0762 -0.9674 -0.9147
   54LIG     CG  805   8.986   6.010   5.597 -0.8970 -0.4516 -0.3667
   54LIG    OD1  806   8.943   6.076   5.698 -0.0918  0.6235  0.5164
   54LIG    OD2  807   8.932   5.903   5.554  0.0056 -0.8254 -0.5961
   54LIG      C  808   9.034   6.165   5.323 -0.1125  0.0769  0.3724
   54LIG    OT1  809   9.102   6.251   5.251  0.3908  1.0347  0.1852
   54LIG    OT2  810   8.909   6.180   5.337  0.3338 -0.4117 -0.1479
   55LIG      N  811   0.206   3.646   9.133 -0.6006 -0.1850  0.4042
   55LIG     H1  812   0.174   3.550   9.158  2.4031 -0.8640  2.0908
   55LIG     H2  813   0.189   3.702   9.218 -4.8084 -0.2858 -0.1667
   55LIG     H3  814   0.146   3.674   9.053 -1.5429 -1.8891  0.4738
   55LIG     CA  815   0.351   3.647   9.098 -0.5107 -0.1717  0.4551
   55LIG     HA  816   0.393   3.739   9.136 -1.7750 -0.1275  1.8569
   55LIG     CB  817   0.406   3.512   9.153  0.1246 -0.0596  0.1172
   55LIG    HB1  818   0.364   3.431   9.090  0.8222  0.7738 -1.4621
   55LIG    HB2  819   0.370   3.513   9.258 -1.8629  0.6863 -0.5367
   55LIG     CG  820   0.558   3.508   9.142  0.9540  0.5975  0.0521
   55LIG    OD1  821   0.612   3.400   9.108  0.2582 -0.5732 -0.2734
   55LIG    OD2  822   0.616   3.617   9.174 -0.4264  0.8040  0.0162
   55LIG      C  823   0.367   3.657   8.942 -0.8163 -0.6544  0.2572
   55LIG    OT1  824   0.266   3.663   8.867  0.6033  0.9068  0.0512
   55LIG    OT2  825   0.482   3.672   8.895 -0.2266  0.1532 -0.8651
   56LIG      N  826   3.374   8.482   1.009  0.1903 -0.5884 -0.3989
   56LIG     H1  827   3.330   8.495   0.916 -3.1332  1.5636  1.2382
   56LIG     H2  828   3.419   8.570   1.042 -0.6803 -0.6234  0.9848
   56LIG     H3  829   3.453   8.414   1.005  0.7159  0.0853 -2.3777
   56LIG     CA  830   3.271   8.446   1.103  0.0843 -0.3546 -0.0017
   56LIG     HA  831   3.315   8.451   1.202 -1.1324 -1.1958  0.6078
   56LIG     CB  832   3.155   8.550   1.097  0.2439 -0.6778  0.4630
   56LIG    HB1  833   3.083   8.534   1.013 -1.3299  0.3657  1.5510
   56LIG    HB2  834   3.195   8.651   1.077  0.6101 -0.9247 -0.0617
   56LIG     CG  835   3.061   8.550   1.217 -0.1504 -0.0230  0.6392
   56LIG    OD1  836   2.940   8.562   1.186  0.0519  0.4995 -0.5344
   56LIG    OD2  837   3.094   8.552   1.333  0.6752 -0.2303 -0.9081
   56LIG      C  838   3.207   8.306   1.074  0.4608  0.8559 -0.1909
   56LIG    OT1  839   3.239   8.240   0.972 -0.7335 -0.3334 -0.1634
   56LIG    OT2  840   3.138   8.250   1.166 -0.5920 -0.0721  0.2946
   57LIG      N  841   3.314   0.134   5.764 -0.1591  0.2411 -0.7737
   57LIG     H1  842   3.222   0.167   5.728 -0.6050 -1.4415 -1.2623
   57LIG     H2  843   3.351   0.051   5.713  1.9336  1.0296 -0.6605
   57LIG     H3  844   3.296   0.109   5.863 -0.2261  1.4400 -0.4636
   57LIG     CA  845   3.415   0.239   5.778 -0.5440 -0.5611 -0.0951
   57LIG     HA  846   3.491   0.206   5.709  0.4929  0.0942  0.7196
   57LIG     CB  847   3.348   0.380   5.758  0.3265 -0.3292 -0.2633
   57LIG    HB1  848   3.282   0.394   5.846 -0.3016 -1.0457 -0.6130
   57LIG    HB2  849   3.300   0.387   5.659  1.1766  1.6396 -0.5869
   57LIG     CG  850   3.457   0.477   5.762 -1.4374 -0.7602  0.4797
   57LIG    OD1  851   3.459   0.581   5.829 -0.6294  0.0793 -0.5027
   57LIG    OD2  852   3.542   0.462   5.665 -0.1348  0.1299 -0.5485
   57LIG      C  853   3.488   0.226   5.920 -0.0058  0.1138  0.5027
   57LIG    OT1  854   3.434   0.153   6.004 -0.5076 -0.1725 -0.2660
   57LIG    OT2  855   3.602   0.273   5.946  0.0788 -0.2732 -0.2779
   58LIG      N  856   0.316   4.646   6.775 -0.6684 -0.2615 -0.1098
   58LIG     H1  857   0.254   4.670   6.855 -1.9281 -1.5870 -0.6476
   58LIG     H2  858   0.259   4.692   6.701 -0.9652 -1.2771 -0.5279
   58LIG     H3  859   0.311   4.544   6.754 -4.0925 -0.2657  0.0677
   58LIG     CA  860   0.463   4.690   6.774 -0.1983 -0.3337  0.4065
   58LIG     HA  861   0.488   4.697   6.670 -2.2131 -1.9951 -0.2450
   58LIG     CB  862   0.487   4.822   6.861 -0.1837  0.1677  0.0063
   58LIG    HB1  863   0.467   4.797   6.968  2.8481 -2.5014  0.0810
   58LIG    HB2  864   0.418   4.907   6.840  0.9255  0.7493 -1.3703
   58LIG     CG  865   0.622   4.878   6.834 -0.0073  0.2581  0.0347
   58LIG    OD1  866   0.694   4.932   6.925  0.2113 -0.1108 -0.1188
   58LIG    OD2  867   0.656   4.893   6.710 -0.1139 -0.1592 -0.6275
   58LIG      C  868   0.555   4.571   6.820 -0.0251  0.5175  0.0767
   58LIG    OT1  869   0.507   4.463   6.869  0.0936 -0.1245  0.8176
   58LIG    OT2  870   0.681   4.576   6.803 -0.1322  0.2183  0.9477
   59LIG      N  871   5.357   9.808   0.656 -0.4194  0.1408 -0.5007
   59LIG     H1  872   5.340   9.707   0.670  0.0471  0.0967 -0.2246
   59LIG     H2  873   5.393   9.800   0.559  0.3374 -0.5927 -0.1722
   59LIG     H3  874   5.428   9.843   0.723 -1.7087 -1.8246  2.0568
   59LIG     CA  875   5.233   9.886   0.655 -0.1693 -0.4897 -0.1410
   59LIG     HA  876   5.263   9.983   0.618  0.4398 -0.8784 -0.6909
   59LIG     CB  877   5.128   9.821   0.554 -0.1114  1.0355 -0.1728
   59LIG    HB1  878   5.081   9.733   0.603  0.4525 -0.4215 -2.1460
   59LIG    HB2  879   5.179   9.808   0.456  0.0048  1.5779 -0.1900
   59LIG     CG  880   5.027   9.924   0.520  0.4608  0.5613  0.0359
   59LIG    OD1  881   4.912   9.885   0.482 -0.0350  0.1615 -0.0436
   59LIG    OD2  882   5.057  10.044   0.502  0.0032  0.0878 -0.5902
   59LIG      C  883   5.166   9.912   0.790 -0.2900 -0.2681 -0.1801
   59LIG    OT1  884   5.227   9.879   0.897 -0.6228 -0.4838 -0.2822
   59LIG    OT2  885   5.055   9.965   0.794  0.1707  0.1989  0.0522
   60LIG      N  886   5.207   7.494   0.341 -0.1671 -0.4675  0.4393
   60LIG     H1  887   5.175   7.402   0.305  1.1856 -0.1280 -1.8678
   60LIG     H2  888   5.172   7.508   0.438 -0.6797  0.9424  0.0880
   60LIG     H3  889   5.165   7.569   0.281  1.4009 -0.5891 -0.9124
   60LIG     CA  890   5.354   7.493   0.332 -0.8190 -0.1568  0.4828
   60LIG     HA  891   5.405   7.575   0.380  0.6037  0.4502 -1.9097
   60LIG     CB  892   5.402   7.359   0.402 -0.2394 -0.2455 -0.1434
   60LIG    HB1  893   5.376   7.266   0.347 -0.7298  0.7445 -1.6272
   60LIG    HB2  894   5.359   7.362   0.504 -0.5982 -0.4260 -0.2878
   60LIG     CG  895   5.552   7.358   0.437 -0.3741  0.0710 -0.4319
   60LIG    OD1  896   5.617   7.257   0.437  0.4181  0.0148  0.2075
   60LIG    OD2  897   5.602   7.465   0.476  0.3660 -0.6879 -0.0917
   60LIG      C  898   5.410   7.497   0.188 -0.3492  0.3317 -0.2464
   60LIG    OT1  899   5.333   7.499   0.087  1.0846 -0.0819 -0.3360
   60LIG    OT2  900   5.533   7.490   0.176 -0.2721  0.6973  0.1230
   61LIG      N  901   1.500   3.580   3.260  0.2143  0.2344  0.2645
   61LIG     H1  902   1.423   3.511   3.250 -2.0974  2.4585  1.5233
   61LIG     H2  903   1.590   3.541   3.225 -1.2800 -0.2351 -3.5081
   61LIG     H3  904   1.497   3.596   3.363 -1.2802  0.7449  0.1706
   61LIG     CA  905   1.474   3.707   3.191 -0.2697 -1.2359  0.8514
   61LIG     HA  906   1.561   3.770   3.200 -0.4618 -1.0885  1.8365
   61LIG     CB  907   1.442   3.673   3.051  0.2274  0.2404  0.1941
   61LIG    HB1  908   1.337   3.642   3.031  0.2582  0.0721  0.2825
   61LIG    HB2  909   1.500   3.585   3.013 -1.2195 -1.5563  1.8986
   61LIG     CG  910   1.477   3.782   2.956 -0.5446  0.2508  0.1788
   61LIG    OD1  911   1.399   3.876   2.938 -0.6832  0.7086  0.2895
   61LIG    OD2  912   1.597   3.787   2.915 -0.1965  1.0412 -0.0201
   61LIG      C  913   1.369   3.795   3.266  0.4479  0.3624 -0.1714
   61LIG    OT1  914   1.300   3.758   3.367  0.2030  0.0722 -0.4499
   61LIG    OT2  915   1.347   3.914   3.230 -0.2748  0.4288 -1.0658
   62LIG      N  916   4.147   1.447   9.038 -0.2783 -0.6846  0.0876
   62LIG     H1  917   4.188   1.521   9.099  1.1563 -1.0290 -0.4054
   62LIG     H2  918   4.047   1.463   9.016 -0.7982  1.4170  3.2438
   62LIG     H3  919   4.163   1.350   9.073  1.0998 -1.6208 -2.7643
   62LIG     CA  920   4.209   1.453   8.901 -0.5083 -0.1010  0.5990
   62LIG     HA  921   4.154   1.374   8.852 -0.4807  0.4435 -0.3531
   62LIG     CB  922   4.181   1.595   8.830 -0.1046  0.5066 -0.2488
   62LIG    HB1  923   4.240   1.676   8.878  0.2227 -0.3200  0.7654
   62LIG    HB2  924   4.071   1.614   8.834  0.1697  2.0248  3.0970
   62LIG     CG  925   4.201   1.596   8.678  0.0526 -0.2933  0.7432
   62LIG    OD1  926   4.268   1.688   8.625 -0.2021  0.1072  0.1201
   62LIG    OD2  927   4.145   1.510   8.605 -0.3555  0.7024  0.4183
   62LIG      C  928   4.358   1.409   8.905  0.2243 -0.3079  1.0243
   62LIG    OT1  929   4.419   1.398   9.013 -0.2927 -0.0526  0.1413
   62LIG    OT2  930   4.409   1.388   8.789 -0.3965 -0.3802 -0.2864
   63LIG      N  931   8.114   2.934   1.377 -0.5092 -0.5913  0.7552
   63LIG     H1  932   8.011   2.942   1.387 -0.7562  0.0214 -1.6704
   63LIG     H2  933   8.143   2.866   1.451  2.0278  0.6584  1.0102
   63LIG     H3  934   8.155   3.028   1.394  0.3902 -0.3790 -2.1471
   63LIG     CA  935   8.144   2.905   1.235  0.7231  0.5965  0.5664
   63LIG     HA  936   8.148   2.798   1.221 -0.9650  0.5400  0.2781
   63LIG     CB  937   8.030   2.969   1.140  0.2940 -0.0699 -0.2740
   63LIG    HB1  938   8.052   3.078   1.130  3.6106 -0.6537 -0.5110
   63LIG    HB2  939   7.936   2.955   1.197  0.1028  0.2807 -0.4950
   63LIG     CG  940   8.023   2.898   1.009 -0.8543  0.5308 -0.1186
   63LIG    OD1  941   8.003   2.966   0.909 -0.8243  0.1756  0.3356
   63LIG    OD2  942   8.029   2.774   1.000  0.0200  0.1424 -0.8455
   63LIG      C  943   8.282   2.950   1.176 -0.4378 -0.1906  0.1630
   63LIG    OT1  944   8.351   3.020   1.247 -0.2475  0.8837 -0.0374
   63LIG    OT2  945   8.322   2.908   1.069 -0.6977 -0.1902  0.9864
   64LIG      N  946   9.089   6.177   5.924  0.0313  0.1280  0.2647
   64LIG     H1  947   9.146   6.126   5.854  0.9235  0.9955  0.3410
   64LIG     H2  948   9.078   6.123   6.013  1.4690 -0.0441  0.3633
   64LIG     H3  949   8.991   6.188   5.891 -1.1115 -0.0750  3.2293
   64LIG     CA  950   9.135   6.320   5.947 -0.1688 -0.4119 -0.0859
   64LIG     HA  951   9.239   6.318   5.975 -0.2796  0.5213  0.4457
   64LIG     CB  952   9.122   6.398   5.809 -0.0517  0.7358 -0.8409
   64LIG    HB1  953   9.026   6.439   5.773 -1.6271 -2.3212 -0.4079
   64LIG    HB2  954   9.151   6.326   5.730  2.2080  0.5561  0.0646
   64LIG     CG  955   9.225   6.510   5.819  0.3188 -0.6163  0.7018
   64LIG    OD1  956   9.191   6.630   5.808  0.0671 -0.0530  0.2909
   64LIG    OD2  957   9.351   6.481   5.836 -0.2926  0.4610  0.3707
   64LIG      C  958   9.048   6.383   6.055  0.0340 -0.3157 -0.5231
   64LIG    OT1  959   8.953   6.323   6.108  0.5717  0.5944  0.3025
   64LIG    OT2  960   9.070   6.503   6.085 -0.0990 -0.4109 -0.5795
   65LIG      N  961   7.822   7.071   2.697  0.3714  0.0863  0.2388
   65LIG     H1  962   7.836   7.106   2.600  0.3612  0.7966  0.4875
   65LIG     H2  963   7.837   7.154   2.758  2.3995  1.1236 -1.5497
   65LIG     H3  964   7.897   7.002   2.713  0.0162 -0.5313 -0.6820
   65LIG     CA  965   7.691   6.994   2.722 -0.6846 -0.2838 -1.0770
   65LIG     HA  966   7.677   6.929   2.636 -3.4568  0.7651 -1.5405
   65LIG     CB  967   7.710   6.928   2.863 -0.7330 -0.6180 -0.1962
   65LIG    HB1  968   7.677   7.000   2.942  1.1589 -0.1356  0.2046
   65LIG    HB2  969   7.808   6.883   2.889  0.1649  1.1370 -0.3932
   65LIG     CG  970   7.607   6.813   2.863  0.0967  0.1170 -0.0421
   65LIG    OD1  971   7.534   6.793   2.967 -0.3944  0.4132  0.2629
   65LIG    OD2  972   7.605   6.733   2.766  0.4334  0.0064  0.7796
   65LIG      C  973   7.568   7.086   2.722  0.8873  0.3918 -0.1926
   65LIG    OT1  974   7.575   7.215   2.707 -0.1532  0.4826  0.4542
   65LIG    OT2  975   7.452   7.031   2.721  0.7563 -0.2569  0.1053
   66LIG      N  976   3.902   8.915   1.587 -0.1997  0.3078 -0.1472
   66LIG     H1  977   3.843   8.836   1.620  0.2577 -0.1297 -0.3542
   66LIG     H2  978   3.886   9.003   1.640 -0.7574 -0.4467  0.9708
   66LIG     H3  979   3.892   8.933   1.485 -0.6613 -0.9687 -0.3540
   66LIG     CA  980   4.047   8.878   1.622 -0.9052  0.5760 -0.2841
   66LIG     HA  981   4.110   8.963   1.600  0.7613 -0.5835 -0.1867
   66LIG     CB  982   4.047   8.837   1.769 -0.2083 -0.6996  0.4390
   66LIG    HB1  983   3.989   8.744   1.788  0.5604 -1.0965  0.8980
   66LIG    HB2  984   4.000   8.917   1.830 -1.0302  0.9163 -2.1865
   66LIG     CG  985   4.187   8.818   1.816 -0.0951 -0.4483  0.2559
   66LIG    OD1  986   4.195   8.722   1.893 -0.7179  1.3705 -0.1502
   66LIG    OD2  987   4.283   8.897   1.788  0.0068  0.4785  1.2564
   66LIG      C  988   4.090   8.760   1.525  0.3977  0.5157 -0.1969
   66LIG    OT1  989   4.005   8.700   1.447 -0.1093  0.1999 -0.4012
   66LIG    OT2  990   4.209   8.716   1.537 -0.1511  0.6242 -0.5020
   67LIG      N  991   9.206   7.508   3.742 -0.4780  0.2274 -0.1997
   67LIG     H1  992   9.185   7.520   3.844 -0.9592  1.5256 -0.4337
   67LIG     H2  993   9.300   7.543   3.717 -1.0372  0.8340 -1.5385
   67LIG     H3  994   9.135   7.563   3.691 -1.8540  0.5324  1.8891
   67LIG     CA  995   9.209   7.362   3.702 -0.0386  0.0194 -0.2687
   67LIG     HA  996   9.239   7.366   3.598 -0.7576 -1.0181 -0.5346
   67LIG     CB  997   9.309   7.285   3.795  0.6226  0.0054 -0.0674
   67LIG    HB1  998   9.257   7.242   3.884  0.6473  0.3284  0.1031
   67LIG    HB2  999   9.382   7.353   3.844 -0.7608  0.8926  0.8249
   67LIG     CG 1000   9.367   7.171   3.717 -0.0442  0.0273  0.4183
   67LIG    OD1 1001   9.414   7.071   3.774 -0.0286  0.5715  0.3406
   67LIG    OD2 1002   9.385   7.191   3.596  0.0246  0.5066 -0.2737
   67LIG      C 1003   9.067   7.299   3.704  1.0941  0.0254 -0.3023
   67LIG    OT1 1004   8.964   7.366   3.745 -0.5431 -0.2649  0.2722
   67LIG    OT2 1005   9.054   7.179   3.671  0.6644  0.1182  0.3036
   68LIG      N 1006   0.593   2.069   3.336  0.7144  0.0222  0.3148
   68LIG     H1 1007   0.694   2.042   3.334 -0.1163 -3.5832 -2.2069
   68LIG     H2 1008   0.558   2.040   3.429  0.7931  2.1967  1.0772
   68LIG     H3 1009   0.544   2.018   3.259  2.2171  1.2041 -1.5292
   68LIG     CA 1010   0.561   2.214   3.325  0.9098 -0.9648  0.2867
   68LIG     HA 1011   0.453   2.221   3.327  0.9286  1.6121 -1.6379
   68LIG     CB 1012   0.652   2.296   3.432  0.7610  0.2829  0.3631
   68LIG    HB1 1013   0.619   2.401   3.419 -1.0843 -0.3698 -0.5647
   68LIG    HB2 1014   0.758   2.279   3.403  0.8901 -0.7849  1.3890
   68LIG     CG 1015   0.622   2.254   3.571  0.9662 -0.7396 -0.4228
   68LIG    OD1 1016   0.664   2.330   3.665 -0.1258  0.1281 -0.3595
   68LIG    OD2 1017   0.561   2.142   3.592 -0.0989 -0.3573 -0.1265
   68LIG      C 1018   0.596   2.272   3.189 -0.0634  0.3940 -0.8095
   68LIG    OT1 1019   0.680   2.214   3.112  0.0378 -0.5401  0.2870
   68LIG    OT2 1020   0.542   2.376   3.151 -0.1045  0.4568 -0.2629
   69LIG      N 1021   6.593   5.380   9.138  0.4239 -0.5924 -0.5001
   69LIG     H1 1022   6.696   5.390   9.154  0.3164 -0.1672 -0.0249
   69LIG     H2 1023   6.552   5.313   9.206  0.1032  0.3550  0.2724
   69LIG     H3 1024   6.574   5.353   9.040 -0.2120 -0.2324 -0.4793
   69LIG     CA 1025   6.531   5.519   9.170 -0.0114  0.0105 -0.2213
   69LIG     HA 1026   6.438   5.514   9.116  0.0124 -1.5836 -0.1690
   69LIG     CB 1027   6.521   5.537   9.320  0.0631  0.0964  0.2860
   69LIG    HB1 1028   6.627   5.532   9.354 -0.3814  0.1596  1.7402
   69LIG    HB2 1029   6.466   5.451   9.364 -1.0849  1.8584  2.4253
   69LIG     CG 1030   6.456   5.662   9.364  0.0264 -0.5954  0.1070
   69LIG    OD1 1031   6.530   5.746   9.429  0.1702 -0.4099  0.2267
   69LIG    OD2 1032   6.336   5.679   9.344  0.2690 -0.5567 -1.2053
   69LIG      C 1033   6.615   5.622   9.096 -0.1994 -0.8132 -0.3295
   69LIG    OT1 1034   6.713   5.581   9.023 -0.1561  0.6016  0.1548
   69LIG    OT2 1035   6.603   5.747   9.116  0.4552 -0.0930 -0.4509
   70LIG      N 1036   4.686   0.052   7.921  0.4599 -0.1310  0.0282
   70LIG     H1 1037   4.739   0.122   7.977 -1.2603  0.9833  0.3557
   70LIG     H2 1038   4.687  -0.042   7.966  0.4872  0.9486  2.4722
   70LIG     H3 1039   4.733   0.053   7.829  1.3031 -0.7613  0.4364
   70LIG     CA 1040   4.542   0.089   7.905 -0.6388 -0.1371 -0.0748
   70LIG     HA 1041   4.495   0.024   7.832 -0.4909  0.3311 -0.5904
   70LIG     CB 1042   4.488   0.079   8.052 -0.3155 -0.0785  0.1731
   70LIG    HB1 1043   4.516   0.171   8.109 -3.2918 -0.6569  2.8755
   70LIG    HB2 1044   4.524  -0.010   8.107 -1.0119 -1.3861 -1.4031
   70LIG     CG 1045   4.341   0.075   8.063 -1.0760  0.4113 -0.6068
   70LIG    OD1 1046   4.298   0.101   8.177 -0.1914  0.1199  0.4698
   70LIG    OD2 1047   4.276   0.016   7.972  0.1648 -0.5345  0.3084
   70LIG      C 1048   4.527   0.234   7.843 -0.4609  0.1281 -0.3372
   70LIG    OT1 1049   4.627   0.310   7.813 -0.2678  0.4032  0.2785
   70LIG    OT2 1050   4.414   0.279   7.825 -0.0073 -0.0319 -0.1775
   71LIG      N 1051   9.445   8.419   3.641 -0.2397 -0.7489  0.3359
   71LIG     H1 1052   9.497   8.506   3.620 -0.5197 -0.6344  0.1272
   71LIG     H2 1053   9.431   8.369   3.551  1.4879 -0.6306 -0.0221
   71LIG     H3 1054   9.352   8.450   3.676 -1.0619 -0.0691 -2.2908
   71LIG     CA 1055   9.530   8.324   3.724 -0.1847 -0.2073  0.1747
   71LIG     HA 1056   9.584   8.261   3.654 -1.9216 -1.8605  0.2310
   71LIG     CB 1057   9.619   8.404   3.822 -0.4158 -0.2273 -0.4006
   71LIG    HB1 1058   9.562   8.461   3.899  0.9373 -0.1547  0.5874
   71LIG    HB2 1059   9.683   8.474   3.765  0.0947 -0.9627 -0.7514
   71LIG     CG 1060   9.717   8.321   3.894  0.5590 -0.2373 -0.6864
   71LIG    OD1 1061   9.747   8.356   4.011  0.0267  0.0329 -0.3816
   71LIG    OD2 1062   9.778   8.232   3.837  0.1154  0.6757 -0.0625
   71LIG      C 1063   9.441   8.224   3.800 -0.2675  0.3580 -0.6500
   71LIG    OT1 1064   9.317   8.244   3.810  0.6090 -0.6079 -0.4183
   71LIG    OT2 1065   9.493   8.134   3.872  0.2809 -0.1010  0.4407
   72LIG      N 1066   0.077   8.043   7.446 -0.8957  0.1817  0.1632
   72LIG     H1 1067  -0.018   8.002   7.437  0.2622 -2.5264 -0.9813
   72LIG     H2 1068   0.115   8.023   7.351 -3.2494 -0.3385 -0.7333
   72LIG     H3 1069   0.135   7.992   7.516 -1.9915 -1.8154 -0.3086
   72LIG     CA 1070   0.073   8.195   7.474 -0.8662 -0.0142  0.1644
   72LIG     HA 1071   0.005   8.231   7.400 -0.3028 -0.2425 -0.4732
   72LIG     CB 1072   0.032   8.208   7.610 -0.2887  0.0505 -0.0328
   72LIG    HB1 1073   0.087   8.186   7.704  0.1541  0.2589 -0.2411
   72LIG    HB2 1074  -0.061   8.147   7.610 -0.2207 -0.1307 -2.1027
   72LIG     CG 1075  -0.020   8.342   7.635  0.2096 -0.1435 -0.1743
   72LIG    OD1 1076   0.039   8.417   7.719 -0.1820 -0.5837 -0.1208
   72LIG    OD2 1077  -0.118   8.382   7.566  0.0316 -0.5613 -0.0386
   72LIG      C 1078   0.210   8.262   7.456 -0.8474  0.4657 -0.0462
   72LIG    OT1 1079   0.315   8.188   7.438  0.3574 -0.2067 -0.1664
   72LIG    OT2 1080   0.221   8.391   7.441 -0.4940 -0.7100  0.9306
   73LIG      N 1081   8.550   8.087   9.417  0.6910 -0.0818 -0.4384
   73LIG     H1 1082   8.599   8.150   9.350  0.0282 -0.0489 -0.8942
   73LIG     H2 1083   8.476   8.149   9.456 -0.8985 -1.8175 -0.5773
   73LIG     H3 1084   8.617   8.062   9.493  0.2577 -1.6700 -0.5348
   73LIG     CA 1085   8.490   7.959   9.380 -0.0520 -0.1730 -0.1841
   73LIG     HA 1086   8.419   7.941   9.459  0.5829  0.3819  0.5337
   73LIG     CB 1087   8.423   7.986   9.239 -0.1732 -0.6278 -0.2716
   73LIG    HB1 1088   8.501   8.004   9.162  0.5135 -1.0111  0.3187
   73LIG    HB2 1089   8.365   8.081   9.242  1.7659  0.6047 -0.3594
   73LIG     CG 1090   8.338   7.867   9.200  0.1495 -0.5731  0.6178
   73LIG    OD1 1091   8.346   7.824   9.082 -0.0002  0.2184  0.1215
   73LIG    OD2 1092   8.250   7.835   9.284  0.3615 -0.4035  0.4756
   73LIG      C 1093   8.599   7.841   9.363 -0.9509  0.4207  0.7274
   73LIG    OT1 1094   8.725   7.870   9.373  1.3198 -0.2227 -0.2620
   73LIG    OT2 1095   8.565   7.720   9.338 -0.3937  0.4841 -0.6742
   74LIG      N 1096   0.498   3.206   6.291  0.1824  0.4059 -0.0175
   74LIG     H1 1097   0.483   3.245   6.386 -1.1290  0.5424 -0.2524
   74LIG     H2 1098   0.466   3.277   6.222 -0.8879 -0.0996 -0.0571
   74LIG     H3 1099   0.432   3.126   6.281  0.0631  0.4749  0.2236
   74LIG     CA 1100   0.639   3.180   6.258  0.0950  0.6188 -0.0908
   74LIG     HA 1101   0.650   3.153   6.153  1.2624 -0.6158  0.3094
   74LIG     CB 1102   0.722   3.313   6.280 -0.5580 -0.0465  0.6101
   74LIG    HB1 1103   0.707   3.325   6.389 -0.8310 -2.0981  0.8334
   74LIG    HB2 1104   0.676   3.402   6.232 -0.7230 -0.7262 -0.5250
   74LIG     CG 1105   0.869   3.300   6.230  0.3414  0.1776  0.9528
   74LIG    OD1 1106   0.959   3.328   6.309 -0.0511  0.6186 -0.3449
   74LIG    OD2 1107   0.884   3.290   6.107  0.0723 -0.1274  0.5101
   74LIG      C 1108   0.693   3.060   6.340 -0.3063 -0.7978 -0.6091
   74LIG    OT1 1109   0.616   3.014   6.421 -0.2970  0.1771  0.0017
   74LIG    OT2 1110   0.814   3.022   6.320 -0.4252  0.2306 -0.9266
   75LIG      N 1111   5.577   7.839   9.252  0.2153 -0.2160  0.2712
   75LIG     H1 1112   5.608   7.878   9.161 -0.6583 -0.4670 -0.1442
   75LIG     H2 1113   5.612   7.903   9.326  1.7029  0.4285 -0.9306
   75LIG     H3 1114   5.619   7.746   9.273  1.1574  0.5762  2.0966
   75LIG     CA 1115   5.427   7.827   9.247  0.1237 -0.6718  0.0610
   75LIG     HA 1116   5.399   7.929   9.224 -1.2993 -1.1026 -0.1853
   75LIG     CB 1117   5.392   7.730   9.127  0.3290  0.3002  0.5787
   75LIG    HB1 1118   5.412   7.627   9.162  1.1543  0.2954  0.0989
   75LIG    HB2 1119   5.452   7.753   9.037 -0.3796 -1.1987 -0.3095
   75LIG     CG 1120   5.250   7.753   9.080 -0.5084  0.8939 -0.1811
   75LIG    OD1 1121   5.172   7.655   9.077 -1.0782  0.7572 -0.4748
   75LIG    OD2 1122   5.216   7.865   9.027 -0.0816  0.2205 -0.3109
   75LIG      C 1123   5.347   7.781   9.378  0.3219 -0.0743  0.1616
   75LIG    OT1 1124   5.411   7.749   9.482 -0.0059  0.5476  0.3039
   75LIG    OT2 1125   5.223   7.782   9.373  0.7222  0.2807 -0.0040
   76LIG      N 1126   0.612   3.615   4.861 -0.5185 -0.0436  0.5458
   76LIG     H1 1127   0.690   3.648   4.800 -2.3209  1.5526 -1.0325
   76LIG     H2 1128   0.543   3.588   4.788  2.1709  2.1406 -3.1939
   76LIG     H3 1129   0.578   3.698   4.914  0.8193  0.7836  0.1696
   76LIG     CA 1130   0.671   3.504   4.934 -0.1531 -0.4008  0.4281
   76LIG     HA 1131   0.597   3.470   5.006  0.8817 -1.5304  0.9993
   76LIG     CB 1132   0.726   3.392   4.839  0.0937  0.6410  0.2574
   76LIG    HB1 1133   0.767   3.311   4.903  0.7255  2.1407  1.8399
   76LIG    HB2 1134   0.812   3.424   4.777  1.1623 -1.8413  0.3278
   76LIG     CG 1135   0.622   3.332   4.745  0.2122  0.2814 -0.3020
   76LIG    OD1 1136   0.592   3.408   4.648 -0.1536  0.1134 -0.0128
   76LIG    OD2 1137   0.572   3.222   4.772  0.4921  0.1765  0.4233
   76LIG      C 1138   0.796   3.549   5.022  0.3792  0.4561  0.3675
   76LIG    OT1 1139   0.835   3.667   5.015  0.0699 -0.0191  0.2623
   76LIG    OT2 1140   0.852   3.465   5.100  0.2755  0.0510 -0.1282
   77LIG      N 1141   8.559   5.565   3.830 -0.1400  0.5806  0.7122
   77LIG     H1 1142   8.540   5.489   3.898  0.9849 -1.6018 -1.2693
   77LIG     H2 1143   8.582   5.516   3.741  1.2560 -1.7821  2.2602
   77LIG     H3 1144   8.647   5.617   3.850  0.7304 -1.4535  2.5668
   77LIG     CA 1145   8.442   5.660   3.814  0.3574  0.4539 -0.8571
   77LIG     HA 1146   8.399   5.670   3.912  0.3787 -1.8405 -0.5625
   77LIG     CB 1147   8.493   5.795   3.748 -0.1812 -0.7023 -0.0670
   77LIG    HB1 1148   8.460   5.813   3.643  0.5489  0.8652 -0.0476
   77LIG    HB2 1149   8.601   5.819   3.738 -0.4820  0.4226 -0.7403
   77LIG     CG 1150   8.428   5.919   3.810  0.2355  0.0116  0.1539
   77LIG    OD1 1151   8.437   6.019   3.740 -0.3143  0.2734 -0.2480
   77LIG    OD2 1152   8.375   5.933   3.922 -0.1583  0.4881 -0.7484
   77LIG      C 1153   8.320   5.611   3.735 -0.9118 -0.0836  0.4954
   77LIG    OT1 1154   8.324   5.494   3.684 -0.4099 -0.5076 -0.3920
   77LIG    OT2 1155   8.225   5.692   3.719 -0.0102  0.2536 -0.7636
   78LIG      N 1156   4.087   7.827   0.074  0.3121 -0.1530  0.0627
   78LIG     H1 1157   4.122   7.821   0.172  0.7807 -2.1322 -0.1665
   78LIG     H2 1158   4.133   7.907   0.027 -0.2980 -0.4068 -0.9953
   78LIG     H3 1159   3.988   7.856   0.086  0.8180  0.6358  3.1374
   78LIG     CA 1160   4.112   7.704  -0.003  0.3703  0.8379  0.9699
   78LIG     HA 1161   4.094   7.627   0.070 -0.0354  0.2190  0.2396
   78LIG     CB 1162   4.005   7.706  -0.124  0.2952 -0.3268 -0.3589
   78LIG    HB1 1163   4.046   7.760  -0.212 -0.5144  2.4048  0.8055
   78LIG    HB2 1164   3.905   7.750  -0.106 -1.4409 -1.8808 -4.8768
   78LIG     CG 1165   3.976   7.561  -0.154 -0.3304  0.8863  0.0255
   78LIG    OD1 1166   3.989   7.519  -0.270  0.1313 -0.1602 -0.0581
   78LIG    OD2 1167   3.932   7.490  -0.061  0.1966 -0.3032  0.5024
   78LIG      C 1168   4.255   7.686  -0.068 -0.4308  0.1181  0.2436
   78LIG    OT1 1169   4.336   7.779  -0.065  0.5534 -0.6286 -0.7104
   78LIG    OT2 1170   4.281   7.576  -0.124 -0.3254 -0.2334 -0.1413
   79LIG      N 1171   9.324   3.889   0.984  0.4867 -0.0350 -0.1281
   79LIG     H1 1172   9.394   3.831   0.933  0.3788 -0.2680 -0.0152
   79LIG     H2 1173   9.361   3.985   0.975 -0.2604  0.0939 -2.8986
   79LIG     H3 1174   9.320   3.846   1.079 -0.2154 -2.4957 -1.1726
   79LIG     CA 1175   9.201   3.876   0.899  0.6697 -0.1245  0.0074
   79LIG     HA 1176   9.175   3.771   0.904 -2.3645  0.5722  2.5906
   79LIG     CB 1177   9.080   3.963   0.958 -0.2784  0.5768  0.1393
   79LIG    HB1 1178   9.096   4.067   0.923  1.6923  0.7226  1.3195
   79LIG    HB2 1179   9.062   3.954   1.068  0.0790  0.9106  0.2261
   79LIG     CG 1180   8.956   3.909   0.897  0.1919  0.2186  0.4710
   79LIG    OD1 1181   8.874   3.986   0.842  0.0672 -0.3323 -0.5763
   79LIG    OD2 1182   8.938   3.788   0.901  0.0943  0.5805 -0.0740
   79LIG      C 1183   9.226   3.916   0.752  0.2232  0.9045  0.3390
   79LIG    OT1 1184   9.326   3.980   0.718  0.1046 -0.4404 -0.9460
   79LIG    OT2 1185   9.151   3.888   0.656  0.2611  0.1501 -0.8247
   80LIG      N 1186   1.685   5.963   6.209  0.0083  0.1659  0.1972
   80LIG     H1 1187   1.666   5.967   6.107 -1.7208 -1.5633  0.3848
   80LIG     H2 1188   1.657   5.867   6.239  0.3957  0.6469  2.2827
   80LIG     H3 1189   1.625   6.030   6.260 -0.7663 -1.9743  2.2948
   80LIG     CA 1190   1.823   5.960   6.257 -0.0582 -0.0599 -0.1084
   80LIG     HA 1191   1.877   5.924   6.170 -1.9311  0.4410 -1.5253
   80LIG     CB 1192   1.866   6.105   6.278 -0.1074  0.2659 -0.2876
   80LIG    HB1 1193   1.817   6.138   6.372 -0.0774  0.3889 -0.3138
   80LIG    HB2 1194   1.819   6.170   6.201 -4.7729 -0.3148  1.7034
   80LIG     CG 1195   2.014   6.124   6.296  0.2407 -0.0194 -0.0658
   80LIG    OD1 1196   2.060   6.219   6.373  0.0976  0.3708 -0.0673
   80LIG    OD2 1197   2.082   6.066   6.209 -0.3994  0.1843 -0.0856
   80LIG      C 1198   1.844   5.870   6.378  0.9731 -0.1376  0.7115
   80LIG    OT1 1199   1.738   5.805   6.420 -0.1308  0.2363  0.0057
   80LIG    OT2 1200   1.951   5.859   6.437 -0.0729  0.2500 -0.3014
   81LIG      N 1201   0.398   0.360   5.152 -0.2808 -0.1020 -0.6661
   81LIG     H1 1202   0.418   0.300   5.069 -1.4271 -0.8138 -0.4457
   81LIG     H2 1203   0.335   0.303   5.211 -1.2352  1.7068  0.1585
   81LIG     H3 1204   0.346   0.444   5.119 -1.5438 -0.4080  0.4775
   81LIG     CA 1205   0.528   0.384   5.226 -0.4233  0.1937  0.3164
   81LIG     HA 1206   0.518   0.463   5.299 -0.0298 -0.0301  0.6203
   81LIG     CB 1207   0.560   0.251   5.292 -0.5874 -0.2058  0.2895
   81LIG    HB1 1208   0.543   0.161   5.228  2.4360 -1.0809  0.5488
   81LIG    HB2 1209   0.487   0.242   5.375  0.4697  1.8093  1.4904
   81LIG     CG 1210   0.695   0.254   5.353 -0.4763  0.4397  1.1848
   81LIG    OD1 1211   0.787   0.203   5.287  0.0509 -0.0428 -0.3813
   81LIG    OD2 1212   0.720   0.319   5.462  0.3514  0.5613  0.3205
   81LIG      C 1213   0.627   0.454   5.126 -0.5894 -0.2916 -0.3010
   81LIG    OT1 1214   0.596   0.478   5.004  0.8857 -0.2365  0.1195
   81LIG    OT2 1215   0.735   0.498   5.170  0.5816 -0.5292 -0.3667
   82LIG      N 1216   0.192   3.201   8.632 -0.4454 -0.1656  0.4923
   82LIG     H1 1217   0.251   3.255   8.699 -0.9396  1.3296 -0.2372
   82LIG     H2 1218   0.205   3.271   8.556  3.3300  0.0992  1.1727
   82LIG     H3 1219   0.096   3.204   8.670 -0.2349  0.8474  0.9665
   82LIG     CA 1220   0.266   3.076   8.588 -0.1592  0.3798  0.8088
   82LIG     HA 1221   0.183   3.007   8.592 -2.2954  2.5749 -1.9430
   82LIG     CB 1222   0.334   3.094   8.446 -0.2072  0.1218  0.1975
   82LIG    HB1 1223   0.422   3.161   8.454  0.3576 -0.4575 -0.9191
   82LIG    HB2 1224   0.266   3.146   8.376 -0.6362 -0.6956  0.0025
   82LIG     CG 1225   0.358   2.965   8.390  0.5049  0.9027 -1.0289
   82LIG    OD1 1226   0.454   2.942   8.312  0.2512  0.1560 -0.1563
   82LIG    OD2 1227   0.265   2.880   8.415  0.0150  0.6648 -0.5762
   82LIG      C 1228   0.373   3.032   8.692 -1.0009 -0.6120 -0.2697
   82LIG    OT1 1229   0.400   3.119   8.783 -0.5516  0.9539 -0.0616
   82LIG    OT2 1230   0.414   2.913   8.697  0.1677  0.4129 -0.1733
   83LIG      N 1231   3.153   0.144   4.732 -0.5173  0.5251  0.5293
   83LIG     H1 1232   3.087   0.214   4.771 -1.8390 -0.1726 -0.4008
   83LIG     H2 1233   3.192   0.084   4.808  0.9810 -1.3958 -1.6412
   83LIG     H3 1234   3.238   0.189   4.692 -1.3320  0.1806 -1.7254
   83LIG     CA 1235   3.102   0.059   4.622  0.0293 -0.2985  0.7891
   83LIG     HA 1236   3.012   0.014   4.661  0.7118 -1.0625  1.5174
   83LIG     CB 1237   3.063   0.154   4.497  0.5143 -0.5450 -0.2773
   83LIG    HB1 1238   3.156   0.175   4.439  0.2200  1.2055 -0.1830
   83LIG    HB2 1239   3.011   0.247   4.528 -0.6799 -0.3542 -2.6531
   83LIG     CG 1240   2.959   0.089   4.416  0.4419 -0.0991  0.4283
   83LIG    OD1 1241   2.961   0.090   4.288  0.6086  0.0835 -0.3182
   83LIG    OD2 1242   2.856   0.046   4.477  0.2738  0.3609 -0.0641
   83LIG      C 1243   3.204  -0.057   4.575 -0.1166  0.3613  0.0958
   83LIG    OT1 1244   3.318  -0.082   4.623  0.0392  0.2786  0.0438
   83LIG    OT2 1245   3.156  -0.135   4.489 -0.1066 -0.5938  0.0467
   84LIG      N 1246   0.996   0.266   9.644 -0.1435  1.3042  0.9997
   84LIG     H1 1247   0.972   0.213   9.558  0.7145  1.3191  0.7479
   84LIG     H2 1248   1.083   0.316   9.619 -0.1496  0.4332 -0.9616
   84LIG     H3 1249   1.004   0.208   9.730  2.5213  0.4372  0.2667
   84LIG     CA 1250   0.900   0.377   9.658  0.4900  0.5988  0.7184
   84LIG     HA 1251   0.934   0.444   9.735 -0.8704  0.8444  1.1264
   84LIG     CB 1252   0.901   0.451   9.517  0.4214 -0.0968 -0.1309
   84LIG    HB1 1253   0.820   0.398   9.464 -0.8123  0.5786  1.0278
   84LIG    HB2 1254   0.995   0.457   9.458 -1.5271 -0.5903 -3.5300
   84LIG     CG 1255   0.859   0.595   9.534 -0.1287  0.1417 -0.3008
   84LIG    OD1 1256   0.778   0.652   9.455  0.8499  0.0607 -0.6599
   84LIG    OD2 1257   0.882   0.652   9.644 -0.4725 -0.4629 -0.2596
   84LIG      C 1258   0.755   0.326   9.705 -0.3431  0.1407  0.0858
   84LIG    OT1 1259   0.723   0.207   9.682 -0.6304 -0.4036  0.2296
   84LIG    OT2 1260   0.680   0.410   9.756 -0.4394 -0.4019  0.7397
   85LIG      N 1261   8.729   9.561   5.332  0.7088  0.4196  0.0947
   85LIG     H1 1262   8.651   9.624   5.360  0.6282  0.5054 -0.3224
   85LIG     H2 1263   8.776   9.541   5.423 -0.7973  0.6649  0.9547
   85LIG     H3 1264   8.800   9.594   5.263  1.6073  0.8161  1.1765
   85LIG     CA 1265   8.668   9.425   5.279 -0.7947  0.0844 -0.2287
   85LIG     HA 1266   8.686   9.425   5.172 -0.2951 -0.6527 -0.1518
   85LIG     CB 1267   8.753   9.315   5.331  0.9010 -0.1555  0.5613
   85LIG    HB1 1268   8.721   9.295   5.435  3.0663 -0.1916  1.2697
   85LIG    HB2 1269   8.862   9.338   5.332  0.8495  0.2904 -0.9074
   85LIG     CG 1270   8.736   9.189   5.252  0.4353  0.9412  0.5591
   85LIG    OD1 1271   8.742   9.077   5.309  0.3989 -1.1050 -0.6790
   85LIG    OD2 1272   8.752   9.197   5.125  0.2002  0.0177 -0.7926
   85LIG      C 1273   8.516   9.410   5.310 -0.0232 -0.3833  0.1000
   85LIG    OT1 1274   8.440   9.487   5.371  0.0065  0.2143  0.3738
   85LIG    OT2 1275   8.468   9.305   5.257  0.0858 -0.2818 -0.3270
   86LIG      N 1276   0.176   1.629   7.474  0.0869  0.6927  0.3271
   86LIG     H1 1277   0.270   1.671   7.490  1.5924 -2.2990 -0.0140
   86LIG     H2 1278   0.191   1.529   7.448 -0.6020  1.3588 -3.1854
   86LIG     H3 1279   0.134   1.678   7.392 -0.9114  2.4418  1.8090
   86LIG     CA 1280   0.085   1.640   7.583 -0.2560 -0.5322 -0.0669
   86LIG     HA 1281   0.006   1.567   7.570  0.5043 -1.1473 -1.3947
   86LIG     CB 1282   0.165   1.608   7.710  0.4986 -0.6580 -0.0273
   86LIG    HB1 1283   0.242   1.685   7.730 -1.6997  1.2593  1.6414
   86LIG    HB2 1284   0.207   1.507   7.691 -1.4800 -1.3781 -0.9338
   86LIG     CG 1285   0.070   1.593   7.822  0.1742 -0.2336  0.0047
   86LIG    OD1 1286   0.095   1.668   7.921 -0.0660  0.7545  0.6787
   86LIG    OD2 1287  -0.015   1.504   7.815  0.4426  0.5153 -0.2320
   86LIG      C 1288   0.021   1.777   7.589  0.2737 -0.8331 -0.1700
   86LIG    OT1 1289   0.054   1.869   7.507 -0.1001 -0.0869  0.2488
   86LIG    OT2 1290  -0.079   1.791   7.671  0.4018 -0.9766  0.6403
   87LIG      N 1291   4.009   2.263   9.020 -0.3196 -0.0731  0.2712
   87LIG     H1 1292   4.008   2.364   9.042  1.6913  0.7034 -2.5786
   87LIG     H2 1293   4.017   2.250   8.917  0.4389 -1.3124  0.4640
   87LIG     H3 1294   3.928   2.209   9.057  0.0535 -0.3357  0.7134
   87LIG     CA 1295   4.130   2.217   9.090 -0.2598 -0.4840  0.3745
   87LIG     HA 1296   4.210   2.279   9.052 -0.2877 -0.3664  0.5056
   87LIG     CB 1297   4.101   2.240   9.239  0.3669 -0.7337  0.0382
   87LIG    HB1 1298   4.026   2.178   9.292 -1.9744  2.2143  0.4670
   87LIG    HB2 1299   4.072   2.347   9.244 -0.3990 -0.9566  0.4894
   87LIG     CG 1300   4.235   2.238   9.312  0.3361 -0.2652 -0.4857
   87LIG    OD1 1301   4.254   2.161   9.407  0.5445 -0.3951  0.3113
   87LIG    OD2 1302   4.319   2.316   9.267  0.0039  0.0474 -0.0976
   87LIG      C 1303   4.168   2.068   9.061 -0.2386  0.1420  0.0813
   87LIG    OT1 1304   4.092   2.005   8.982 -0.4169  0.0845  0.1146
   87LIG    OT2 1305   4.275   2.014   9.104  0.4471  0.0323 -0.0386
   88LIG      N 1306   0.580   6.221   4.183  0.5903  0.3485  0.9003
   88LIG     H1 1307   0.584   6.220   4.287  0.7596  0.4201  0.8944
   88LIG     H2 1308   0.666   6.263   4.142  1.8295 -1.4727  1.4866
   88LIG     H3 1309   0.495   6.278   4.167 -0.1797 -0.6538  1.3279
   88LIG     CA 1310   0.574   6.085   4.124  0.0046  0.4633 -0.1631
   88LIG     HA 1311   0.479   6.043   4.155  0.4373 -0.5010 -0.1124
   88LIG     CB 1312   0.589   6.107   3.970 -0.3445 -0.4317  0.2412
   88LIG    HB1 1313   0.695   6.129   3.946 -0.7594 -0.4250 -1.7536
   88LIG    HB2 1314   0.525   6.195   3.944 -1.1371 -0.7382  1.1121
   88LIG     CG 1315   0.544   5.994   3.887 -0.5983 -0.4166 -0.2802
   88LIG    OD1 1316   0.608   5.979   3.777 -0.1112 -0.0208  0.1005
   88LIG    OD2 1317   0.441   5.934   3.915 -0.2228 -0.2709 -0.0487
   88LIG      C 1318   0.681   5.980   4.167 -0.1587  0.1385  0.3467
   88LIG    OT1 1319   0.771   6.020   4.239 -0.1718  0.0237 -0.2366
   88LIG    OT2 1320   0.674   5.863   4.127 -0.4762  0.3777  0.3367
   89LIG      N 1321   0.614   8.309   1.704 -0.3936  0.3245 -0.0780
   89LIG     H1 1322   0.583   8.286   1.608 -1.7926 -0.4830  0.5309
   89LIG     H2 1323   0.703   8.261   1.727  0.0550  1.8648  1.6480
   89LIG     H3 1324   0.547   8.267   1.772 -0.9895  1.5664  0.1397
   89LIG     CA 1325   0.624   8.461   1.716  0.1287  0.5477 -1.0909
   89LIG     HA 1326   0.529   8.509   1.734  2.0259  3.1857  3.1934
   89LIG     CB 1327   0.711   8.482   1.836  0.2114  0.1533  0.4208
   89LIG    HB1 1328   0.819   8.467   1.814  0.5535 -0.1759  2.2158
   89LIG    HB2 1329   0.685   8.414   1.920  0.0785  0.3555  0.5446
   89LIG     CG 1330   0.693   8.621   1.902 -0.1350  0.1728  0.2452
   89LIG    OD1 1331   0.795   8.661   1.959 -0.5838 -0.4579  0.1111
   89LIG    OD2 1332   0.582   8.678   1.921 -0.2058  0.0327 -0.3321
   89LIG      C 1333   0.693   8.518   1.593  0.0658 -0.3452 -0.2612
   89LIG    OT1 1334   0.753   8.447   1.503  0.6886 -0.1426  0.3511
   89LIG    OT2 1335   0.710   8.642   1.590 -0.1041  0.1867  0.4145
   90LIG      N 1336   3.294   0.564   2.132 -0.0600 -0.3972  0.5658
   90LIG     H1 1337   3.395   0.569   2.156 -0.0071 -0.6580  0.4045
   90LIG     H2 1338   3.281   0.527   2.035 -1.3972  2.4038 -0.4339
   90LIG     H3 1339   3.254   0.660   2.125 -0.7665 -0.7628 -0.6822
   90LIG     CA 1340   3.238   0.470   2.228 -0.2464 -0.4052 -0.1738
   90LIG     HA 1341   3.293   0.381   2.203  0.7975  0.0147  0.5265
   90LIG     CB 1342   3.276   0.513   2.368 -0.0452 -1.1543  0.1142
   90LIG    HB1 1343   3.216   0.592   2.419  1.8099  0.8536 -0.6597
   90LIG    HB2 1344   3.381   0.549   2.373 -1.5563  3.8913  0.9024
   90LIG     CG 1345   3.287   0.387   2.461  0.0616 -0.1267  0.4314
   90LIG    OD1 1346   3.240   0.399   2.576 -0.0621 -0.3736 -0.7942
   90LIG    OD2 1347   3.338   0.287   2.421 -0.0728 -0.0384  0.6831
   90LIG      C 1348   3.085   0.434   2.221  0.4063 -0.0738  0.5380
   90LIG    OT1 1349   3.015   0.495   2.137 -0.2383 -0.0558 -0.4490
   90LIG    OT2 1350   3.037   0.341   2.290  0.4451  0.1032 -0.1312
   91LIG      N 1351   1.656   5.052   7.605  0.1908  0.0940  0.3357
   91LIG     H1 1352   1.715   5.071   7.689 -1.1305 -2.8457  2.0936
   91LIG     H2 1353   1.638   5.137   7.548  0.7538 -0.5779 -0.8873
   91LIG     H3 1354   1.561   5.025   7.640  0.7286 -3.1799 -0.3802
   91LIG     CA 1355   1.712   4.941   7.526  0.0963  0.5199 -0.1953
   91LIG     HA 1356   1.741   4.860   7.591  0.3129 -0.1176 -1.0746
   91LIG     CB 1357   1.601   4.883   7.438 -0.8932  0.0192 -0.3111
   91LIG    HB1 1358   1.599   4.951   7.349  0.6390 -1.0369 -1.1936
   91LIG    HB2 1359   1.503   4.870   7.488 -1.4362  4.0999  0.0584
   91LIG     CG 1360   1.635   4.744   7.386  0.2319  0.4353 -0.1907
   91LIG    OD1 1361   1.621   4.725   7.263  0.0582  0.4973 -0.2377
   91LIG    OD2 1362   1.673   4.654   7.461 -0.7613 -0.1896 -0.2947
   91LIG      C 1363   1.840   4.994   7.440 -0.1758  0.6977 -0.7121
   91LIG    OT1 1364   1.867   5.116   7.431  0.3740  0.1729  0.2618
   91LIG    OT2 1365   1.921   4.909   7.398  0.1055  0.5727 -0.1566
   92LIG      N 1366   8.142   6.801   3.959 -0.2153 -0.0227 -0.5641
   92LIG     H1 1367   8.147   6.698   3.963  2.1394 -0.0834 -2.7796
   92LIG     H2 1368   8.055   6.841   4.000  0.0270 -0.0179 -0.0524
   92LIG     H3 1369   8.129   6.818   3.857  0.7944 -1.5803 -0.9757
   92LIG     CA 1370   8.268   6.854   4.016  0.0647  0.0798 -0.2306
   92LIG     HA 1371   8.277   6.958   3.989  4.0278 -0.3095 -1.0553
   92LIG     CB 1372   8.255   6.816   4.169 -0.7799  0.3060 -0.1384
   92LIG    HB1 1373   8.243   6.705   4.177 -1.1374  0.3280 -0.3229
   92LIG    HB2 1374   8.163   6.848   4.223  0.1093  3.9735 -0.6016
   92LIG     CG 1375   8.366   6.860   4.255 -0.0596 -0.5335 -0.2706
   92LIG    OD1 1376   8.452   6.775   4.291 -0.1734  0.4375 -0.3774
   92LIG    OD2 1377   8.370   6.978   4.299  0.4411 -0.5893  0.0747
   92LIG      C 1378   8.394   6.793   3.943  0.3248  0.5923  0.0141
   92LIG    OT1 1379   8.380   6.725   3.840  0.6364 -0.8609  0.0521
   92LIG    OT2 1380   8.508   6.820   3.993  0.3644  0.0123  0.1133
   93LIG      N 1381   9.812   6.284   6.774  1.0557  0.5416  0.0130
   93LIG     H1 1382   9.786   6.190   6.737  0.5307  0.7283 -0.1032
   93LIG     H2 1383   9.782   6.358   6.707  0.9752  1.4598  1.0437
   93LIG     H3 1384   9.914   6.293   6.793  1.0443  2.5521 -0.6121
   93LIG     CA 1385   9.741   6.305   6.905  0.1665  0.0594 -0.0395
   93LIG     HA 1386   9.801   6.260   6.983  1.9465 -0.9256 -1.8747
   93LIG     CB 1387   9.727   6.453   6.939  0.8567 -0.6526 -0.6204
   93LIG    HB1 1388   9.651   6.511   6.882  0.2631  0.5848  1.3545
   93LIG    HB2 1389   9.823   6.504   6.916 -0.0936  1.3362 -0.4063
   93LIG     CG 1390   9.696   6.469   7.085  0.3391  0.0786  0.5285
   93LIG    OD1 1391   9.613   6.556   7.120  0.4860  0.1380 -0.2197
   93LIG    OD2 1392   9.759   6.406   7.174 -0.2921 -0.5317 -0.2241
   93LIG      C 1393   9.603   6.225   6.889 -0.4454 -0.8660  0.0411
   93LIG    OT1 1394   9.596   6.138   6.802 -0.1458  0.2691  0.5356
   93LIG    OT2 1395   9.510   6.231   6.974  0.2172  0.0766  0.7130
   94LIG      N 1396   1.669   1.065   8.155 -0.0195  0.4320  0.7448
   94LIG     H1 1397   1.762   1.110   8.165  0.4828 -0.6345  0.9628
   94LIG     H2 1398   1.598   1.136   8.127  0.8130  1.5436  1.3529
   94LIG     H3 1399   1.651   1.027   8.250 -1.8791  0.5934  0.4925
   94LIG     CA 1400   1.666   0.949   8.070  0.4054 -0.2301  0.1767
   94LIG     HA 1401   1.766   0.910   8.076 -0.8474 -3.7513  0.8512
   94LIG     CB 1402   1.577   0.845   8.147  0.0344 -0.5189 -0.4203
   94LIG    HB1 1403   1.468   0.865   8.157  0.4417  2.6727 -1.5288
   94LIG    HB2 1404   1.609   0.839   8.253  0.4154  0.8506 -0.4486
   94LIG     CG 1405   1.610   0.707   8.102  0.3786  0.0702  0.0592
   94LIG    OD1 1406   1.518   0.620   8.100 -0.0452 -0.4733 -0.4446
   94LIG    OD2 1407   1.732   0.679   8.084  0.6092 -0.2190  0.0662
   94LIG      C 1408   1.639   0.983   7.924  0.2699 -0.1553  0.2156
   94LIG    OT1 1409   1.596   1.097   7.878 -0.2849  0.1600 -0.2506
   94LIG    OT2 1410   1.652   0.885   7.847  0.5933 -0.1566 -0.8153
   95LIG      N 1411   2.515   8.782   3.972  0.5758  0.1324  0.5253
   95LIG     H1 1412   2.519   8.793   3.869 -0.9150 -1.4432  0.2595
   95LIG     H2 1413   2.417   8.784   4.006  0.0274 -1.0678 -0.8806
   95LIG     H3 1414   2.567   8.856   4.025  1.9785  0.0237 -0.6431
   95LIG     CA 1415   2.575   8.647   3.991 -0.3387  0.0413 -0.2323
   95LIG     HA 1416   2.556   8.602   4.087 -0.2466  0.5164  0.0120
   95LIG     CB 1417   2.530   8.543   3.886  0.7743 -0.2527  0.3991
   95LIG    HB1 1418   2.579   8.568   3.790 -0.7879 -0.1912 -0.3951
   95LIG    HB2 1419   2.422   8.554   3.863  1.0449  0.7137 -0.4600
   95LIG     CG 1420   2.550   8.399   3.920  0.7631 -0.1948  0.6736
   95LIG    OD1 1421   2.604   8.322   3.832 -0.2478 -0.3841  0.6119
   95LIG    OD2 1422   2.505   8.346   4.029 -0.1431  0.0505 -0.0135
   95LIG      C 1423   2.727   8.662   3.973  0.1565 -0.6453  0.2107
   95LIG    OT1 1424   2.788   8.769   3.945  0.2155 -0.2886 -0.1344
   95LIG    OT2 1425   2.796   8.558   3.980  0.1046  0.7841 -0.3864
   96LIG      N 1426   5.430   9.737   6.599  0.2351 -0.6174 -0.3348
   96LIG     H1 1427   5.340   9.746   6.651  0.8964  0.4489  0.6681
   96LIG     H2 1428   5.411   9.710   6.501  3.0415  0.9341 -1.4077
   96LIG     H3 1429   5.494   9.669   6.646  2.5486  1.4218 -0.3032
   96LIG     CA 1430   5.505   9.864   6.592  0.2444 -0.2770  0.8287
   96LIG     HA 1431   5.436   9.939   6.558 -0.1643 -1.3385 -0.7448
   96LIG     CB 1432   5.549   9.886   6.736  0.2768 -0.6186 -0.4914
   96LIG    HB1 1433   5.620   9.811   6.776 -1.3086 -1.3658  1.0985
   96LIG    HB2 1434   5.461   9.882   6.804  0.2924  0.6134 -0.3829
   96LIG     CG 1435   5.599  10.028   6.755  0.2604 -0.4341  0.0352
   96LIG    OD1 1436   5.715  10.044   6.793 -0.2964 -0.3395 -0.0697
   96LIG    OD2 1437   5.525  10.131   6.742  0.2173 -0.1896  0.3236
   96LIG      C 1438   5.621   9.858   6.485 -0.3712  0.4364 -0.0533
   96LIG    OT1 1439   5.643   9.752   6.424  0.0293  0.0485  0.9104
   96LIG    OT2 1440   5.684   9.964   6.461  0.3816 -0.0913  0.0171
   97LIG      N 1441   1.459   2.222   5.186  0.3363  0.0508  0.1846
   97LIG     H1 1442   1.409   2.168   5.113  0.3537 -0.8406  0.8115
   97LIG     H2 1443   1.476   2.313   5.139  1.6202 -0.0020  0.5251
   97LIG     H3 1444   1.551   2.183   5.213 -0.0785  0.2664  2.0912
   97LIG     CA 1445   1.374   2.250   5.306  0.0773  0.1211 -0.6126
   97LIG     HA 1446   1.377   2.172   5.380 -1.0170  0.7901  0.1656
   97LIG     CB 1447   1.436   2.378   5.370  0.6673  0.1417  0.0666
   97LIG    HB1 1448   1.444   2.474   5.314  0.0492  1.0558  1.4878
   97LIG    HB2 1449   1.543   2.357   5.391  1.4562  2.0152 -1.7252
   97LIG     CG 1450   1.375   2.403   5.508 -0.3709 -0.0584  0.2166
   97LIG    OD1 1451   1.338   2.518   5.537 -0.9931 -0.1988 -0.8025
   97LIG    OD2 1452   1.371   2.314   5.595  0.0194 -0.7901 -0.6119
   97LIG      C 1453   1.231   2.277   5.262  0.6316 -0.2949 -0.4954
   97LIG    OT1 1454   1.191   2.287   5.141 -0.4879 -0.1146 -0.4178
   97LIG    OT2 1455   1.146   2.279   5.356  0.0628 -0.3501  0.0515
   98LIG      N 1456   8.111   9.129   2.328  0.9758  0.4209  0.4798
   98LIG     H1 1457   8.080   9.160   2.233  3.8312  2.1939  0.0075
   98LIG     H2 1458   8.142   9.211   2.383  1.2885  0.2065  0.6241
   98LIG     H3 1459   8.197   9.071   2.324  0.2821 -0.6469  0.3930
   98LIG     CA 1460   8.006   9.058   2.409  0.3127 -0.5336  0.1005
   98LIG     HA 1461   7.907   9.085   2.376  0.1100  0.5557  1.5299
   98LIG     CB 1462   8.020   8.909   2.391 -0.0561  0.0171 -0.0630
   98LIG    HB1 1463   8.117   8.867   2.426  1.4056  1.1673 -2.4682
   98LIG    HB2 1464   8.028   8.878   2.284  2.3110  0.5182 -0.0753
   98LIG     CG 1465   7.906   8.833   2.450  0.2694 -0.3272  0.1753
   98LIG    OD1 1466   7.922   8.749   2.541  0.0304  0.2068 -0.3592
   98LIG    OD2 1467   7.787   8.855   2.403 -0.0104 -0.4407  0.1449
   98LIG      C 1468   8.024   9.092   2.559 -0.3844  0.6392 -0.8631
   98LIG    OT1 1469   8.132   9.155   2.591  0.6483  0.0131  0.0913
   98LIG    OT2 1470   7.932   9.064   2.645 -0.5745 -0.4884  0.0646
   99LIG      N 1471   4.109   0.261   3.794  0.2796 -0.9420 -0.4991
   99LIG     H1 1472   4.076   0.199   3.717 -0.3783 -0.4170 -0.6427
   99LIG     H2 1473   4.213   0.252   3.794  0.1202 -4.0221  0.9464
   99LIG     H3 1474   4.073   0.229   3.886 -0.1092 -0.4027 -0.4636
   99LIG     CA 1475   4.079   0.409   3.776 -0.5900  0.3825  0.1126
   99LIG     HA 1476   3.972   0.413   3.789 -0.4462  0.2903  1.5714
   99LIG     CB 1477   4.158   0.483   3.886 -1.0023 -0.3183 -0.4590
   99LIG    HB1 1478   4.266   0.481   3.857 -0.3107 -0.3116  1.9330
   99LIG    HB2 1479   4.145   0.435   3.985 -1.3007  0.1380 -0.2728
   99LIG     CG 1480   4.103   0.622   3.902 -0.3996  0.1258 -0.5512
   99LIG    OD1 1481   4.189   0.714   3.904 -0.2126  0.3307 -0.2147
   99LIG    OD2 1482   3.982   0.638   3.935 -0.7614  0.1534  0.1729
   99LIG      C 1483   4.094   0.457   3.629 -0.1149  0.6593 -0.0068
   99LIG    OT1 1484   4.158   0.387   3.544 -0.0150 -0.2755 -0.6093
   99LIG    OT2 1485   4.049   0.569   3.592 -0.4568 -0.2183 -0.0711
  100LIG      N 1486   3.473   9.038   8.806  0.0248 -0.2281  0.1581
  100LIG     H1 1487   3.449   8.965   8.736  2.0112 -0.1381 -0.6969
  100LIG     H2 1488   3.571   9.070   8.791 -0.1909  0.5795  0.3718
  100LIG     H3 1489   3.481   9.004   8.904 -1.7997 -1.0548  0.0489
  100LIG     CA 1490   3.395   9.164   8.784  0.0579  0.9900  0.0551
  100LIG     HA 1491   3.293   9.131   8.772 -0.0907  1.3804  0.2245
  100LIG     CB 1492   3.406   9.261   8.899  0.4972 -0.4541  0.0604
  100LIG    HB1 1493   3.505   9.313   8.904  0.7697 -0.8539 -0.9063
  100LIG    HB2 1494   3.384   9.207   8.994 -0.4440  1.3438  0.9166
  100LIG     CG 1495   3.294   9.367   8.889 -0.7646 -0.1168 -0.1145
  100LIG    OD1 1496   3.327   9.490   8.891  0.3333 -0.2654  0.3704
  100LIG    OD2 1497   3.178   9.332   8.885 -0.0973  0.1736  0.3165
  100LIG      C 1498   3.428   9.221   8.645 -0.0956 -0.1357 -0.3840
  100LIG    OT1 1499   3.544   9.200   8.599 -0.5938 -0.0868  0.0357
  100LIG    OT2 1500   3.339   9.276   8.576 -0.2076 -0.3983 -0.7228
  101LIG      N 1501   4.766   8.026   1.560 -0.0700 -0.2998  0.0137
  101LIG     H1 1502   4.671   8.003   1.523  0.9725  0.6589 -3.6903
  101LIG     H2 1503   4.794   7.971   1.644 -2.1068  0.6737  1.4390
  101LIG     H3 1504   4.756   8.124   1.596 -0.0594 -0.7682  1.3480
  101LIG     CA 1505   4.868   8.033   1.445  0.1051  0.7767 -0.3610
  101LIG     HA 1506   4.875   7.931   1.411 -0.4010  0.3672  0.7089
  101LIG     CB 1507   4.812   8.113   1.320  0.0689  0.4882 -0.0318
  101LIG    HB1 1508   4.819   8.222   1.338 -3.2659  0.9773 -0.9961
  101LIG    HB2 1509   4.704   8.086   1.326  0.2688 -0.3207  0.1050
  101LIG     CG 1510   4.874   8.078   1.184  0.8098  0.4335 -1.2099
  101LIG    OD1 1511   4.908   8.168   1.110  0.1134 -0.7428  0.4070
  101LIG    OD2 1512   4.885   7.957   1.154 -0.2257  0.4373  0.0715
  101LIG      C 1513   5.007   8.087   1.492 -0.1455 -0.5508 -0.0583
  101LIG    OT1 1514   5.018   8.136   1.607 -0.0216 -0.2805  0.2884
  101LIG    OT2 1515   5.104   8.070   1.411  0.3582  0.0674  0.4152
  102LIG      N 1516   1.795   7.689   0.833  0.9309  0.6285  0.0646
  102LIG     H1 1517   1.819   7.741   0.747 -2.5185  0.0824 -1.3976
  102LIG     H2 1518   1.758   7.592   0.824  1.2858  0.2771  1.9296
  102LIG     H3 1519   1.724   7.753   0.875 -0.4192 -1.2699  0.8011
  102LIG     CA 1520   1.917   7.670   0.913  0.0889  0.5407  0.6840
  102LIG     HA 1521   1.969   7.597   0.853 -0.9041 -0.7663  1.3622
  102LIG     CB 1522   1.986   7.809   0.925  0.7265  0.3907  0.8488
  102LIG    HB1 1523   1.947   7.862   1.014  1.7665  0.1583  1.4618
  102LIG    HB2 1524   1.955   7.863   0.832 -2.7187 -1.9754  0.4351
  102LIG     CG 1525   2.135   7.804   0.939  0.0175  0.5813 -0.0031
  102LIG    OD1 1526   2.193   7.874   1.026  0.2782 -0.1233 -0.1268
  102LIG    OD2 1527   2.196   7.734   0.854 -0.1827 -0.0068 -0.4714
  102LIG      C 1528   1.912   7.609   1.057  0.1499 -0.5295  0.3436
  102LIG    OT1 1529   1.799   7.563   1.094  0.2277 -0.0845  0.1957
  102LIG    OT2 1530   2.012   7.597   1.128 -0.0876 -0.4951  0.0171
  103LIG      N 1531   6.904   9.594   9.794 -0.5325 -0.8215 -0.1356
  103LIG     H1 1532   7.006   9.595   9.772  0.0218 -1.1144  2.1756
  103LIG     H2 1533   6.847   9.650   9.728 -2.7767 -0.2081  2.1706
  103LIG     H3 1534   6.892   9.638   9.887  1.5984  2.4623 -1.2660
  103LIG     CA 1535   6.871   9.450   9.787 -0.2533  0.2270  0.3737
  103LIG     HA 1536   6.767   9.446   9.817 -0.0626 -2.0931  0.9769
  103LIG     CB 1537   6.917   9.390   9.650  0.1595 -0.3534  0.2697
  103LIG    HB1 1538   7.023   9.356   9.656 -0.5084 -2.9015 -0.8011
  103LIG    HB2 1539   6.908   9.468   9.572  2.3557 -0.2975  0.0016
  103LIG     CG 1540   6.821   9.291   9.604 -0.0061  0.0561  0.2996
  103LIG    OD1 1541   6.873   9.191   9.557  0.4398  0.2483  0.5006
  103LIG    OD2 1542   6.697   9.303   9.619 -0.1914 -0.6340  0.4401
  103LIG      C 1543   6.949   9.372   9.901  0.7443 -0.2815  0.2881
  103LIG    OT1 1544   7.039   9.425   9.968  0.3845  0.4506  0.0469
  103LIG    OT2 1545   6.911   9.257   9.927 -0.1822 -0.2470 -0.9203
  104LIG      N 1546   9.318   3.256   3.553  0.8818 -0.1953  0.0210
  104LIG     H1 1547   9.325   3.343   3.496 -4.5514  1.8269  1.8392
  104LIG     H2 1548   9.263   3.277   3.638  0.9555  0.3442 -0.0609
  104LIG     H3 1549   9.410   3.223   3.587  1.1151  0.0376 -0.3752
  104LIG     CA 1550   9.265   3.128   3.479  0.7283  0.1028  0.5707
  104LIG     HA 1551   9.330   3.104   3.396  1.0347 -1.1162  1.1504
  104LIG     CB 1552   9.282   3.022   3.602  0.2324  0.1620 -0.0098
  104LIG    HB1 1553   9.194   3.027   3.670 -0.5007  2.3149 -1.0118
  104LIG    HB2 1554   9.377   3.048   3.654  0.7085 -0.1010 -0.7331
  104LIG     CG 1555   9.299   2.884   3.547  0.1217 -0.0696 -0.9137
  104LIG    OD1 1556   9.286   2.787   3.629  0.0508 -0.2457 -0.1246
  104LIG    OD2 1557   9.340   2.865   3.428  0.2371  0.2784 -0.3560
  104LIG      C 1558   9.111   3.144   3.430 -0.3131 -0.1111 -0.0557
  104LIG    OT1 1559   9.053   3.253   3.453  0.5149 -0.5425  0.4492
  104LIG    OT2 1560   9.063   3.051   3.364  0.2391 -0.0312  0.7397
  105LIG      N 1561   6.351   0.485   5.372  0.1785  0.6151 -0.1011
  105LIG     H1 1562   6.316   0.492   5.274  2.0506  0.8145 -0.7875
  105LIG     H2 1563   6.330   0.387   5.399  0.0292  0.7358  0.2289
  105LIG     H3 1564   6.299   0.551   5.433 -1.3426 -1.7831  1.3668
  105LIG     CA 1565   6.498   0.492   5.370 -0.5043  0.4180 -0.6908
  105LIG     HA 1566   6.535   0.586   5.333  0.2411  1.4368  2.2943
  105LIG     CB 1567   6.532   0.498   5.520  0.1147 -0.6852  0.2449
  105LIG    HB1 1568   6.523   0.400   5.572 -2.1907  0.3658  1.9938
  105LIG    HB2 1569   6.458   0.566   5.566  0.5247  0.9240 -1.3497
  105LIG     CG 1570   6.667   0.562   5.554  0.2730  0.3810  0.6805
  105LIG    OD1 1571   6.725   0.516   5.657  0.3893 -0.3853 -0.2826
  105LIG    OD2 1572   6.711   0.657   5.486 -0.3576  0.0909 -0.0811
  105LIG      C 1573   6.579   0.373   5.316  0.0196 -0.2942  0.3925
  105LIG    OT1 1574   6.504   0.287   5.259  0.3858 -0.5243  0.1430
  105LIG    OT2 1575   6.708   0.371   5.326  0.5543 -0.2295 -0.3245
  106LIG      N 1576   5.368   9.697   4.467 -0.6038 -0.5408  0.5356
  106LIG     H1 1577   5.373   9.599   4.434  0.2160  0.2455 -1.8617
  106LIG     H2 1578   5.427   9.716   4.552 -1.7210  0.8306  1.0417
  106LIG     H3 1579   5.268   9.713   4.491 -0.7736  0.2760 -0.6643
  106LIG     CA 1580   5.420   9.780   4.353 -0.0054  0.6745 -0.5904
  106LIG     HA 1581   5.505   9.730   4.311 -0.1522  0.3964 -0.5593
  106LIG     CB 1582   5.303   9.780   4.247  0.1795 -0.1304 -0.4894
  106LIG    HB1 1583   5.219   9.841   4.288  0.1517  1.4351 -2.7176
  106LIG    HB2 1584   5.266   9.677   4.228  0.2609 -0.9673  3.1228
  106LIG     CG 1585   5.344   9.849   4.116 -0.3091  0.4351  0.4198
  106LIG    OD1 1586   5.272   9.941   4.069 -0.0294 -0.0489 -0.6183
  106LIG    OD2 1587   5.427   9.786   4.046 -0.2593 -0.7078 -0.1798
  106LIG      C 1588   5.470   9.921   4.402 -0.1421  0.4386 -0.0324
  106LIG    OT1 1589   5.444   9.949   4.522 -0.3285 -0.4250 -0.7362
  106LIG    OT2 1590   5.529   9.995   4.319 -0.5066 -0.5616 -0.4899
  107LIG      N 1591   8.350   2.968   1.954 -0.3802  0.4006  0.5189
  107LIG     H1 1592   8.449   2.944   1.936  0.4768  1.6105  3.1034
  107LIG     H2 1593   8.324   3.067   1.939  0.3059  0.4335 -0.5296
  107LIG     H3 1594   8.334   2.948   2.055 -0.7858  1.4118  0.6640
  107LIG     CA 1595   8.259   2.872   1.882 -0.2998  0.1781 -0.1965
  107LIG     HA 1596   8.157   2.908   1.891 -1.1491 -2.2422  0.6456
  107LIG     CB 1597   8.306   2.849   1.743 -0.2134 -0.2713 -0.1925
  107LIG    HB1 1598   8.379   2.765   1.743  1.9660  1.4105  3.0349
  107LIG    HB2 1599   8.343   2.941   1.693  0.5506 -0.4576  0.0270
  107LIG     CG 1600   8.198   2.810   1.650  0.1022 -0.4844  0.3870
  107LIG    OD1 1601   8.224   2.759   1.537  0.1654 -0.2505 -0.5827
  107LIG    OD2 1602   8.086   2.860   1.671 -0.0257 -0.0161 -0.1943
  107LIG      C 1603   8.243   2.737   1.962  0.2346  0.1079  0.3453
  107LIG    OT1 1604   8.322   2.710   2.053 -0.6973 -0.5827 -0.5786
  107LIG    OT2 1605   8.154   2.654   1.942  0.7896 -0.9860  0.0091
  108LIG      N 1606   5.994   0.957   0.059  0.4122  0.1858 -0.3636
  108LIG     H1 1607   6.049   0.999   0.137  0.8069  0.4949 -0.8033
  108LIG     H2 1608   5.895   0.985   0.070  0.8725  1.5128  0.7413
  108LIG     H3 1609   6.005   0.854   0.068  0.9545  0.3716  1.5473
  108LIG     CA 1610   6.046   1.015  -0.068 -0.0894  0.0135 -0.8365
  108LIG     HA 1611   6.129   0.949  -0.090  0.2977  0.9130 -2.2350
  108LIG     CB 1612   5.929   1.000  -0.166 -0.1868  0.8407  0.2899
  108LIG    HB1 1613   5.864   1.089  -0.158  1.4193  2.2328 -1.2626
  108LIG    HB2 1614   5.870   0.907  -0.147  0.9713  0.9039  5.8213
  108LIG     CG 1615   5.992   1.009  -0.306  0.3170  0.4313  0.4327
  108LIG    OD1 1616   5.946   1.097  -0.382  0.7609  0.3796 -0.5747
  108LIG    OD2 1617   6.094   0.936  -0.334 -0.3009 -0.3051  0.5968
  108LIG      C 1618   6.095   1.162  -0.045 -0.5011 -0.0602 -0.4481
  108LIG    OT1 1619   6.068   1.218   0.065 -0.6975  0.0230  0.2444
  108LIG    OT2 1620   6.151   1.232  -0.131 -0.7135 -0.1080 -0.0961
  109LIG      N 1621   4.048   6.447   0.200 -0.0853 -0.3813 -0.1321
  109LIG     H1 1622   4.119   6.384   0.242 -0.2990 -0.5947 -0.0898
  109LIG     H2 1623   3.956   6.412   0.234  0.9155 -2.2237  0.8408
  109LIG     H3 1624   4.063   6.441   0.097 -0.6153 -3.2184 -0.1119
  109LIG     CA 1625   4.081   6.587   0.238  0.0310  0.5549 -0.2154
  109LIG     HA 1626   3.994   6.645   0.213 -1.1531 -0.7880  0.6394
  109LIG     CB 1627   4.100   6.592   0.392  0.2464  0.4971  0.3650
  109LIG    HB1 1628   4.202   6.564   0.425  1.0034 -1.6005 -3.3308
  109LIG    HB2 1629   4.035   6.520   0.445 -0.5696  1.3125  0.5042
  109LIG     CG 1630   4.065   6.729   0.455 -0.3837 -0.1942 -0.8469
  109LIG    OD1 1631   4.150   6.790   0.521 -0.1729  0.3942  0.1098
  109LIG    OD2 1632   3.949   6.775   0.448  1.0138 -0.1749 -0.5177
  109LIG      C 1633   4.204   6.646   0.159 -0.1572  0.1651  0.5659
  109LIG    OT1 1634   4.255   6.580   0.067 -0.2995 -0.2607 -0.1089
  109LIG    OT2 1635   4.244   6.763   0.196  0.2868  0.4834  0.2663
  110LIG      N 1636   9.826   0.021   1.962 -0.3837  0.6660  0.7468
  110LIG     H1 1637   9.743  -0.029   2.000 -1.9394  1.4145 -1.4451
  110LIG     H2 1638   9.876  -0.061   1.921 -2.2105 -1.1987  2.0420
  110LIG     H3 1639   9.872   0.064   2.045 -0.4597  0.2656  1.0002
  110LIG     CA 1640   9.779   0.132   1.876 -0.2147  0.3315  0.2194
  110LIG     HA 1641   9.864   0.192   1.849 -0.9056  0.8530 -0.8892
  110LIG     CB 1642   9.698   0.076   1.749  0.1130  0.4117 -0.2284
  110LIG    HB1 1643   9.609   0.017   1.781  0.4718 -0.4758 -0.8285
  110LIG    HB2 1644   9.760  -0.002   1.699 -0.4151  0.6557 -1.3014
  110LIG     CG 1645   9.664   0.182   1.643 -0.5359  0.4108 -0.2319
  110LIG    OD1 1646   9.549   0.194   1.594 -0.3270  0.3562 -1.1458
  110LIG    OD2 1647   9.763   0.245   1.603  0.3702 -0.2557  0.1195
  110LIG      C 1648   9.690   0.225   1.962 -0.3021  0.1704  0.1328
  110LIG    OT1 1649   9.641   0.178   2.068 -0.0586  0.5426 -0.0374
  110LIG    OT2 1650   9.667   0.340   1.926  0.8918 -0.0507 -0.1886
  111LIG      N 1651   2.359   9.307   3.191  0.3926 -0.3971 -0.0007
  111LIG     H1 1652   2.309   9.370   3.126 -0.3342  1.2702  2.0613
  111LIG     H2 1653   2.454   9.295   3.150 -0.9220 -0.7819 -3.1875
  111LIG     H3 1654   2.309   9.216   3.193  3.1723 -2.0819 -0.2649
  111LIG     CA 1655   2.353   9.367   3.331 -0.3995 -0.4149 -0.2225
  111LIG     HA 1656   2.447   9.336   3.374 -0.2666  1.3581  0.8583
  111LIG     CB 1657   2.343   9.516   3.299 -0.9273 -0.2607 -0.0194
  111LIG    HB1 1658   2.239   9.535   3.265 -1.0922 -0.0558  0.5907
  111LIG    HB2 1659   2.424   9.545   3.228  0.9959 -0.4540  2.0035
  111LIG     CG 1660   2.383   9.594   3.426 -0.7951 -1.0191 -0.7094
  111LIG    OD1 1661   2.333   9.703   3.459 -0.2725 -0.3164  0.9685
  111LIG    OD2 1662   2.488   9.550   3.488 -0.1904 -0.0449 -0.1270
  111LIG      C 1663   2.245   9.315   3.429 -0.2641 -0.0280  0.4277
  111LIG    OT1 1664   2.177   9.214   3.396 -0.3177  0.3901 -0.5769
  111LIG    OT2 1665   2.232   9.368   3.544  0.1761 -0.2495 -0.6301
  112LIG      N 1666   2.270   7.739   7.931  0.3974  0.3004  0.1077
  112LIG     H1 1667   2.297   7.648   7.974  0.7014  0.6261  0.6173
  112LIG     H2 1668   2.331   7.805   7.984  0.0554  0.0807  0.7965
  112LIG     H3 1669   2.171   7.755   7.961  0.0456 -3.9523  1.9212
  112LIG     CA 1670   2.287   7.750   7.784  0.5721  0.1803 -0.2000
  112LIG     HA 1671   2.246   7.847   7.762 -0.0600  0.2223  1.0453
  112LIG     CB 1672   2.428   7.737   7.734 -0.0888 -0.2472  0.0527
  112LIG    HB1 1673   2.458   7.632   7.714  2.8646  0.2631  1.2996
  112LIG    HB2 1674   2.496   7.776   7.812 -1.1755  0.5094  0.6474
  112LIG     CG 1675   2.441   7.815   7.608 -0.2258 -0.1811  0.5227
  112LIG    OD1 1676   2.514   7.773   7.513 -0.1538  0.3103 -0.5046
  112LIG    OD2 1677   2.399   7.937   7.606  0.2933 -0.0489 -0.0997
  112LIG      C 1678   2.204   7.640   7.704 -0.2136 -0.2147  0.0573
  112LIG    OT1 1679   2.156   7.541   7.766 -1.0855 -0.4692  0.5369
  112LIG    OT2 1680   2.200   7.653   7.581  0.0874 -0.0680 -0.0562
  113LIG      N 1681   8.362   0.670   1.512 -0.0603 -0.2471  0.1227
  113LIG     H1 1682   8.447   0.712   1.470  1.2877 -1.3391  1.6065
  113LIG     H2 1683   8.281   0.733   1.492  1.5729  1.1184 -2.7395
  113LIG     H3 1684   8.390   0.670   1.612  0.2475 -2.1369  0.0691
  113LIG     CA 1685   8.357   0.532   1.461 -0.0352  0.0585 -0.0756
  113LIG     HA 1686   8.269   0.493   1.510  0.7360 -1.4435  0.1846
  113LIG     CB 1687   8.338   0.545   1.301  0.1979  0.0880 -0.5353
  113LIG    HB1 1688   8.440   0.557   1.258  0.3538  2.1496  0.3217
  113LIG    HB2 1689   8.268   0.625   1.272 -0.3904 -0.5573 -0.9426
  113LIG     CG 1690   8.269   0.422   1.252  0.3251  0.0233  0.3146
  113LIG    OD1 1691   8.300   0.383   1.134  0.0594  0.2044  0.2172
  113LIG    OD2 1692   8.180   0.369   1.318  0.3088 -0.6739  0.2614
  113LIG      C 1693   8.478   0.445   1.502 -0.0079  0.4373  0.1525
  113LIG    OT1 1694   8.564   0.493   1.579 -0.7619  0.2956 -0.3848
  113LIG    OT2 1695   8.491   0.329   1.451 -0.5211  0.0457 -0.2956
  114LIG      N 1696   0.211   8.694   3.947  0.2018 -0.0015  0.2015
  114LIG     H1 1697   0.226   8.746   3.858  1.9600  0.8235  0.9366
  114LIG     H2 1698   0.113   8.687   3.982 -0.0391 -0.8770 -0.5814
  114LIG     H3 1699   0.264   8.750   4.016  2.6609 -0.0391 -1.5246
  114LIG     CA 1700   0.267   8.554   3.942 -0.0991  0.3200  0.8808
  114LIG     HA 1701   0.372   8.575   3.926 -0.3756  1.8028  0.8831
  114LIG     CB 1702   0.246   8.492   4.083 -0.2666 -0.0202 -0.1421
  114LIG    HB1 1703   0.139   8.462   4.090 -0.3716 -0.0046 -1.4711
  114LIG    HB2 1704   0.273   8.572   4.156  2.9274  1.8107 -3.0166
  114LIG     CG 1705   0.338   8.381   4.109  0.1312  0.0904 -0.1806
  114LIG    OD1 1706   0.304   8.279   4.170  0.5716  0.0996  0.5564
  114LIG    OD2 1707   0.460   8.400   4.089 -0.9482 -0.0184 -0.4648
  114LIG      C 1708   0.223   8.456   3.826 -0.3760 -0.5803 -0.8376
  114LIG    OT1 1709   0.131   8.492   3.752 -0.7735  0.4795  0.3514
  114LIG    OT2 1710   0.280   8.343   3.817  0.0742 -0.3705  0.1429
  115LIG      N 1711   8.517   3.489   3.191 -0.1882  0.8350  0.0892
  115LIG     H1 1712   8.500   3.445   3.283 -0.2550  0.8948  0.1052
  115LIG     H2 1713   8.618   3.499   3.169 -0.4054 -1.4623 -2.5580
  115LIG     H3 1714   8.472   3.583   3.193  0.4319  1.1583  2.7923
  115LIG     CA 1715   8.465   3.391   3.093  0.2677  0.5541 -0.4667
  115LIG     HA 1716   8.420   3.439   3.007 -3.9496  1.5458  2.0290
  115LIG     CB 1717   8.598   3.314   3.047  0.4892  0.0947  0.3237
  115LIG    HB1 1718   8.628   3.251   3.133 -0.4221  0.0186  0.5999
  115LIG    HB2 1719   8.678   3.383   3.015  0.5123  0.0357  0.2556
  115LIG     CG 1720   8.577   3.228   2.931 -0.0236  0.1714  0.8775
  115LIG    OD1 1721   8.629   3.113   2.941  0.1305 -0.3773  0.0613
  115LIG    OD2 1722   8.510   3.276   2.832 -0.1056  0.3147 -0.5331
  115LIG      C 1723   8.362   3.294   3.157 -1.4367  0.5429 -0.5288
  115LIG    OT1 1724   8.342   3.290   3.283 -0.5194 -0.2264  0.3720
  115LIG    OT2 1725   8.295   3.211   3.086 -0.3399  0.7920  0.6650
  116LIG      N 1726   2.128   0.555   1.175  0.7054 -0.1118  0.6124
  116LIG     H1 1727   2.166   0.537   1.080  0.2551 -0.3618  0.4762
  116LIG     H2 1728   2.089   0.465   1.207  1.3626 -0.4095  0.5858
  116LIG     H3 1729   2.050   0.623   1.162 -0.3023 -1.6015 -1.7342
  116LIG     CA 1730   2.221   0.608   1.275 -0.3467 -0.5289  0.4274
  116LIG     HA 1731   2.294   0.530   1.289  1.0861  0.5125 -0.8674
  116LIG     CB 1732   2.268   0.741   1.206  0.6736  1.0295 -0.1250
  116LIG    HB1 1733   2.198   0.824   1.231 -1.4586 -0.6665 -0.2038
  116LIG    HB2 1734   2.257   0.732   1.096  2.5880  0.1109 -0.2816
  116LIG     CG 1735   2.405   0.781   1.259  0.4989 -0.1417  0.0690
  116LIG    OD1 1736   2.423   0.894   1.302  0.4307 -0.0362 -0.3230
  116LIG    OD2 1737   2.494   0.700   1.255 -0.1204 -0.2672  1.1868
  116LIG      C 1738   2.155   0.633   1.414 -0.3472 -0.8120 -0.7400
  116LIG    OT1 1739   2.034   0.613   1.434  0.9408  0.0916 -0.4617
  116LIG    OT2 1740   2.225   0.682   1.506 -0.4131  0.8871 -0.0640
  117LIG      N 1741   2.143   2.800   4.558 -0.3157 -0.2945 -0.1124
  117LIG     H1 1742   2.097   2.733   4.624  0.1980  0.0857  0.6559
  117LIG     H2 1743   2.092   2.811   4.468  2.0110  1.4804 -1.3294
  117LIG     H3 1744   2.235   2.753   4.540 -0.8788 -1.2860 -0.5017
  117LIG     CA 1745   2.148   2.933   4.623  0.4914 -0.1606 -1.3490
  117LIG     HA 1746   2.047   2.955   4.654  1.0940  1.3089 -0.2940
  117LIG     CB 1747   2.251   2.923   4.744 -0.1700 -0.0896 -1.1303
  117LIG    HB1 1748   2.350   2.953   4.706  0.5515 -0.6247  0.2539
  117LIG    HB2 1749   2.229   2.823   4.788  0.4493  0.2177 -0.0874
  117LIG     CG 1750   2.193   3.017   4.856  0.4725  0.6730  0.0775
  117LIG    OD1 1751   2.255   3.042   4.961  0.0614  0.3026  0.1358
  117LIG    OD2 1752   2.076   3.058   4.840 -0.4557  0.4952 -0.1467
  117LIG      C 1753   2.200   3.054   4.536 -0.0555  0.4412 -0.0551
  117LIG    OT1 1754   2.263   3.033   4.430  0.1092 -0.3448  0.3728
  117LIG    OT2 1755   2.171   3.167   4.579  0.0999 -0.0652 -0.2489
  118LIG      N 1756   9.198   6.644   6.675 -0.3960 -0.0648 -0.0636
  118LIG     H1 1757   9.166   6.575   6.746  3.2647 -0.2473  1.6031
  118LIG     H2 1758   9.128   6.720   6.663 -0.8290 -0.3413  0.6801
  118LIG     H3 1759   9.216   6.602   6.581 -0.6490  0.5443 -0.3906
  118LIG     CA 1760   9.330   6.699   6.722 -0.6981 -0.2455  0.4239
  118LIG     HA 1761   9.392   6.611   6.728  0.7163  0.7252  0.6014
  118LIG     CB 1762   9.376   6.777   6.603 -0.1705 -0.6604  0.6940
  118LIG    HB1 1763   9.331   6.879   6.607  0.6693 -0.3004  1.1833
  118LIG    HB2 1764   9.351   6.728   6.506  2.3039 -0.8366  0.0846
  118LIG     CG 1765   9.527   6.792   6.591  0.0783  0.0853 -0.4418
  118LIG    OD1 1766   9.578   6.897   6.538 -0.5527 -0.4562  0.1646
  118LIG    OD2 1767   9.598   6.688   6.602  0.5659  0.4441  0.6045
  118LIG      C 1768   9.323   6.783   6.847  0.0488  0.1828  0.0072
  118LIG    OT1 1769   9.209   6.808   6.903 -0.3729  0.0956  0.3089
  118LIG    OT2 1770   9.426   6.829   6.903  0.0894  0.0910  0.1003
  119LIG      N 1771   0.042   5.771   1.706  0.0705  0.3881  0.1719
  119LIG     H1 1772   0.124   5.810   1.756 -0.5721  1.6145  0.3110
  119LIG     H2 1773   0.016   5.680   1.751  0.4291  0.8201  1.2843
  119LIG     H3 1774   0.061   5.749   1.606 -1.4209  0.2199 -0.1043
  119LIG     CA 1775  -0.083   5.858   1.704  0.0652  0.2975  0.5313
  119LIG     HA 1776  -0.133   5.839   1.797  1.6638 -0.2457  1.3117
  119LIG     CB 1777  -0.032   6.005   1.688 -0.4247 -0.1511 -0.1332
  119LIG    HB1 1778   0.015   6.007   1.587  2.2940  0.2793  1.0535
  119LIG    HB2 1779   0.038   6.026   1.771  0.8906 -3.8252 -0.1490
  119LIG     CG 1780  -0.151   6.089   1.716  0.4295  0.6461  0.3394
  119LIG    OD1 1781  -0.210   6.151   1.625  0.2440 -0.6729 -0.4802
  119LIG    OD2 1782  -0.187   6.093   1.840  0.3530 -0.4938  0.0533
  119LIG      C 1783  -0.183   5.798   1.592 -0.4415  0.6619  0.1596
  119LIG    OT1 1784  -0.144   5.704   1.514  0.3363 -0.3130  0.2787
  119LIG    OT2 1785  -0.295   5.850   1.585  0.5535  0.3690  0.0412
  120LIG      N 1786   4.448   1.762   0.304 -0.3420 -0.1218 -0.3276
  120LIG     H1 1787   4.543   1.720   0.306 -1.1801 -2.1323 -0.6672
  120LIG     H2 1788   4.388   1.721   0.379  0.0015 -0.1579 -0.0738
  120LIG     H3 1789   4.410   1.748   0.207 -0.5339  3.1961 -0.8376
  120LIG     CA 1790   4.456   1.908   0.331 -0.5375 -0.0393 -0.0716
  120LIG     HA 1791   4.522   1.954   0.258  1.9456 -2.7001  0.3113
  120LIG     CB 1792   4.316   1.963   0.317  0.5645 -0.2275  0.2070
  120LIG    HB1 1793   4.243   1.937   0.396 -0.3474  3.2581  0.6730
  120LIG    HB2 1794   4.277   1.930   0.218 -0.5140  1.1850  0.1294
  120LIG     CG 1795   4.326   2.116   0.308  1.4627 -0.0605  0.3617
  120LIG    OD1 1796   4.261   2.176   0.396  0.1928  0.5233 -0.4163
  120LIG    OD2 1797   4.390   2.181   0.221 -0.5795  0.4334  0.6021
  120LIG      C 1798   4.515   1.930   0.474  0.1980 -0.0651  0.1662
  120LIG    OT1 1799   4.527   1.837   0.552  0.4055  0.3959  0.4417
  120LIG    OT2 1800   4.550   2.045   0.503 -0.1785  0.1328  0.1875
  121LIG      N 1801   2.094   1.160   8.341 -0.5055 -0.4755 -0.1926
  121LIG     H1 1802   2.149   1.221   8.404  1.1971 -0.2204 -1.8396
  121LIG     H2 1803   2.134   1.155   8.245 -1.6695 -1.6955 -0.6430
  121LIG     H3 1804   1.999   1.200   8.329  0.4473  2.3621  0.9958
  121LIG     CA 1805   2.102   1.020   8.391  0.2311  0.6826  0.5767
  121LIG     HA 1806   2.203   0.986   8.371  0.0897  1.1066 -0.9792
  121LIG     CB 1807   2.065   1.024   8.538  0.7562 -0.1779 -0.5474
  121LIG    HB1 1808   1.956   1.007   8.549  0.7959 -0.5197 -0.6746
  121LIG    HB2 1809   2.101   1.106   8.603 -0.6565 -1.3541  1.8520
  121LIG     CG 1810   2.135   0.902   8.600  0.4726 -0.0695 -0.0374
  121LIG    OD1 1811   2.071   0.809   8.652  0.3629  0.4330  0.0478
  121LIG    OD2 1812   2.263   0.917   8.597  0.1364  0.8508 -0.2147
  121LIG      C 1813   2.006   0.925   8.317 -0.8025  1.2269 -0.4807
  121LIG    OT1 1814   1.925   0.989   8.238  0.0796 -0.3274  0.1670
  121LIG    OT2 1815   2.008   0.799   8.323 -0.0810 -0.0223  0.5104
  122LIG      N 1816   8.401   1.248   0.537 -0.1827 -0.2831  0.0704
  122LIG     H1 1817   8.468   1.240   0.616  1.6675 -0.3934 -1.4385
  122LIG     H2 1818   8.327   1.178   0.559 -0.6873  0.3827  0.5144
  122LIG     H3 1819   8.449   1.216   0.450 -1.8851  1.5478 -1.6462
  122LIG     CA 1820   8.366   1.391   0.518  0.3784 -0.1816  0.1419
  122LIG     HA 1821   8.311   1.402   0.425 -3.3099  1.1138  2.2814
  122LIG     CB 1822   8.279   1.424   0.642 -0.2258 -1.3110  0.2237
  122LIG    HB1 1823   8.343   1.418   0.733  2.1995  2.0316 -1.0454
  122LIG    HB2 1824   8.192   1.355   0.647 -2.3591  1.1857 -0.3899
  122LIG     CG 1825   8.221   1.566   0.635  0.1135  0.0608 -0.2499
  122LIG    OD1 1826   8.246   1.641   0.731 -0.2992  0.6639 -0.0350
  122LIG    OD2 1827   8.160   1.595   0.535  0.2265  0.2808 -0.3198
  122LIG      C 1828   8.492   1.491   0.502  0.5492  0.1206 -0.0995
  122LIG    OT1 1829   8.608   1.453   0.526  0.0868 -0.0494 -0.1225
  122LIG    OT2 1830   8.475   1.607   0.460  0.2475  0.3279 -0.1647
  123LIG      N 1831   9.853   6.476   1.131  0.0501  0.1382  0.7317
  123LIG     H1 1832   9.885   6.546   1.200  1.1133  0.9899 -0.5771
  123LIG     H2 1833   9.870   6.379   1.164  1.8149  0.3464  0.5273
  123LIG     H3 1834   9.920   6.493   1.053 -1.4289  1.3283 -0.3426
  123LIG     CA 1835   9.710   6.486   1.079 -0.2475 -0.0648  0.7201
  123LIG     HA 1836   9.696   6.588   1.048 -1.0194 -1.0391 -2.4740
  123LIG     CB 1837   9.694   6.389   0.956 -0.4355  0.3573 -0.0642
  123LIG    HB1 1838   9.690   6.284   0.992  1.7054  0.5365  0.8210
  123LIG    HB2 1839   9.786   6.398   0.895 -0.5558 -1.3973 -0.5572
  123LIG     CG 1840   9.585   6.421   0.857  0.9729  0.2125 -1.0893
  123LIG    OD1 1841   9.501   6.337   0.819 -0.3026 -0.4901 -0.2919
  123LIG    OD2 1842   9.582   6.537   0.801  0.0178  0.8265  0.3654
  123LIG      C 1843   9.600   6.475   1.182  0.1444  0.1054  0.1662
  123LIG    OT1 1844   9.621   6.419   1.290 -0.4915 -0.2461  0.1006
  123LIG    OT2 1845   9.484   6.519   1.151 -0.0509  0.0664 -0.0130
  124LIG      N 1846   4.840   0.012   0.907  0.2520 -0.3231  0.0621
  124LIG     H1 1847   4.771   0.057   0.844 -0.0883  0.4871  0.9847
  124LIG     H2 1848   4.932   0.033   0.864 -1.4161  1.2622 -3.0478
  124LIG     H3 1849   4.825  -0.088   0.932  0.7283  0.1974  2.8147
  124LIG     CA 1850   4.828   0.080   1.038  0.1004 -0.5455 -0.9815
  124LIG     HA 1851   4.878   0.017   1.111  0.7149  1.7563  0.6858
  124LIG     CB 1852   4.892   0.226   1.027 -0.0561  0.5675 -0.1505
  124LIG    HB1 1853   4.807   0.289   0.994 -2.7405 -2.1967  0.9616
  124LIG    HB2 1854   4.969   0.246   0.950  0.7894  0.8301  0.7379
  124LIG     CG 1855   4.944   0.283   1.160  0.0809 -0.0396 -0.2148
  124LIG    OD1 1856   4.932   0.408   1.183 -0.3259  0.5363  0.2561
  124LIG    OD2 1857   4.985   0.203   1.246  0.2260  0.4296 -0.1392
  124LIG      C 1858   4.683   0.094   1.089 -0.1952  0.9402  0.4452
  124LIG    OT1 1859   4.590   0.053   1.009 -0.1192 -0.0820 -0.1677
  124LIG    OT2 1860   4.654   0.147   1.200  0.0752  0.5005  0.0802
  125LIG      N 1861   4.483   1.137   3.887 -0.9382 -0.3450  0.5190
  125LIG     H1 1862   4.405   1.188   3.839 -1.0182 -0.3844  0.6068
  125LIG     H2 1863   4.460   1.045   3.928  1.2292 -2.1333 -1.9616
  125LIG     H3 1864   4.513   1.198   3.966  0.4742  1.3259 -1.2155
  125LIG     CA 1865   4.595   1.126   3.796 -0.5577  0.1906 -0.5073
  125LIG     HA 1866   4.669   1.092   3.867 -0.5514  3.0071  0.9929
  125LIG     CB 1867   4.571   1.042   3.672  0.2561  0.1486 -0.6413
  125LIG    HB1 1868   4.503   1.093   3.601 -1.0563  1.1669  1.2802
  125LIG    HB2 1869   4.524   0.946   3.702  0.0026  0.1367 -1.0719
  125LIG     CG 1870   4.699   0.998   3.603  0.6423  0.0898  0.1987
  125LIG    OD1 1871   4.718   1.026   3.482 -0.0127  0.3218 -0.2944
  125LIG    OD2 1872   4.787   0.942   3.667  0.1410  0.1083 -0.2401
  125LIG      C 1873   4.665   1.256   3.751  0.0245 -0.0197  0.3320
  125LIG    OT1 1874   4.620   1.366   3.790  0.1130  0.2740 -0.5612
  125LIG    OT2 1875   4.766   1.254   3.685 -0.2708  0.0898  0.2563
  126LIG      N 1876   1.521   8.898   4.929  0.3524  0.5916  0.2741
  126LIG     H1 1877   1.571   8.876   5.018 -2.0973  0.8027  1.8128
  126LIG     H2 1878   1.584   8.946   4.861 -1.9181  1.3734 -1.3908
  126LIG     H3 1879   1.439   8.958   4.949 -1.1669 -1.5580  0.8097
  126LIG     CA 1880   1.481   8.762   4.878  0.5602 -0.1509 -0.1188
  126LIG     HA 1881   1.428   8.779   4.786  0.8657 -0.8834 -0.4324
  126LIG     CB 1882   1.610   8.676   4.859  0.0976 -0.4651 -1.0238
  126LIG    HB1 1883   1.655   8.650   4.957 -1.1593 -1.0830 -0.5895
  126LIG    HB2 1884   1.680   8.737   4.798 -1.0367  1.7983 -0.1589
  126LIG     CG 1885   1.583   8.558   4.777  0.1974  0.9193  0.5266
  126LIG    OD1 1886   1.622   8.445   4.825  0.1885  0.0322 -0.4228
  126LIG    OD2 1887   1.516   8.567   4.669 -0.3393 -0.1546  0.0455
  126LIG      C 1888   1.381   8.694   4.988  0.5972 -0.3729  0.7571
  126LIG    OT1 1889   1.364   8.740   5.102 -0.6897 -0.0998  0.1502
  126LIG    OT2 1890   1.333   8.578   4.965  0.1022  0.2906  0.4652
  127LIG      N 1891   5.172   1.038   1.788  0.1131 -0.1482  0.3636
  127LIG     H1 1892   5.203   1.029   1.887 -1.0803 -0.1730  0.7612
  127LIG     H2 1893   5.092   1.104   1.783  0.2807  0.2490  2.1025
  127LIG     H3 1894   5.145   0.940   1.762  0.6136 -0.0904 -0.3898
  127LIG     CA 1895   5.278   1.068   1.688  0.0345  0.0101 -0.2643
  127LIG     HA 1896   5.333   0.975   1.677  0.0414 -0.0421  0.1872
  127LIG     CB 1897   5.210   1.097   1.551  0.1705  0.8359 -0.3147
  127LIG    HB1 1898   5.151   1.191   1.556 -2.3543 -0.6927  0.4157
  127LIG    HB2 1899   5.142   1.014   1.522  0.0069  0.7447  0.3161
  127LIG     CG 1900   5.305   1.104   1.435  0.0697 -0.2760  0.0957
  127LIG    OD1 1901   5.276   1.187   1.338  0.0416  0.0913 -0.7510
  127LIG    OD2 1902   5.384   1.007   1.427 -0.3341  0.2650 -0.1002
  127LIG      C 1903   5.382   1.176   1.734  1.1040 -0.4665 -0.0745
  127LIG    OT1 1904   5.353   1.240   1.837  0.4300 -0.2940  0.4627
  127LIG    OT2 1905   5.479   1.208   1.666  1.2200  0.1237  0.0436
  128LIG      N 1906   8.317   8.414   2.494 -0.0922  0.0382 -0.3018
  128LIG     H1 1907   8.251   8.489   2.524 -0.9689 -1.2026  1.0575
  128LIG     H2 1908   8.375   8.391   2.577 -0.9652 -0.1806  0.2673
  128LIG     H3 1909   8.372   8.430   2.408 -0.1255  1.6753 -0.0413
  128LIG     CA 1910   8.238   8.281   2.489  0.0632 -1.0934  0.3044
  128LIG     HA 1911   8.205   8.269   2.387 -0.3702 -1.3419  0.4708
  128LIG     CB 1912   8.345   8.171   2.528 -0.1611  0.3499 -0.3266
  128LIG    HB1 1913   8.371   8.172   2.636  0.5074 -0.8318 -0.4570
  128LIG    HB2 1914   8.436   8.195   2.470  0.6393  0.0294  0.7638
  128LIG     CG 1915   8.293   8.040   2.487 -0.0610  0.1779  0.1116
  128LIG    OD1 1916   8.310   7.948   2.567  0.3225  0.7779  0.1317
  128LIG    OD2 1917   8.245   8.031   2.369  0.5367  0.0605 -0.3283
  128LIG      C 1918   8.113   8.274   2.589  0.1396 -0.6821  0.5617
  128LIG    OT1 1919   8.112   8.355   2.687 -0.0196  0.0714  0.7947
  128LIG    OT2 1920   8.037   8.182   2.581  0.4502 -0.1221  0.2141
  129LIG      N 1921   0.868   8.553   7.946  0.0473 -0.3481 -0.0558
  129LIG     H1 1922   0.895   8.458   7.979 -0.0618 -0.7387 -1.0531
  129LIG     H2 1923   0.775   8.547   7.899  0.9395  2.9605 -2.5401
  129LIG     H3 1924   0.924   8.583   7.864  1.0274 -0.7066  0.4580
  129LIG     CA 1925   0.881   8.645   8.055 -0.2416 -0.9653 -0.7726
  129LIG     HA 1926   0.865   8.743   8.011  0.0979 -1.6611 -2.5147
  129LIG     CB 1927   0.773   8.591   8.159 -0.2275  0.4006 -0.6988
  129LIG    HB1 1928   0.806   8.491   8.193  0.7598  0.3911 -1.6166
  129LIG    HB2 1929   0.678   8.573   8.105 -0.4203 -1.2645  0.1542
  129LIG     CG 1930   0.753   8.686   8.267  0.2702 -0.3168 -1.1977
  129LIG    OD1 1931   0.734   8.636   8.380 -0.1202  0.2459 -0.0663
  129LIG    OD2 1932   0.740   8.809   8.249 -0.1350 -0.0888 -0.2461
  129LIG      C 1933   1.031   8.645   8.116 -0.4362  0.8899  0.4401
  129LIG    OT1 1934   1.120   8.565   8.067 -0.1137  0.3626 -0.1636
  129LIG    OT2 1935   1.062   8.715   8.213  0.2997 -1.0304 -0.2659
  130LIG      N 1936   6.761   7.286   0.192 -0.0557 -0.5293  0.3304
  130LIG     H1 1937   6.820   7.279   0.277  1.1874 -1.2662 -0.5544
  130LIG     H2 1938   6.802   7.228   0.116 -1.8805  0.3919 -1.4523
  130LIG     H3 1939   6.757   7.387   0.164  0.1360 -0.3827  0.8197
  130LIG     CA 1940   6.627   7.236   0.244  0.8190  0.2420 -0.0266
  130LIG     HA 1941   6.563   7.314   0.282 -0.3146 -0.7559  0.1700
  130LIG     CB 1942   6.546   7.197   0.104  0.0400 -0.0633 -0.2235
  130LIG    HB1 1943   6.598   7.106   0.067  0.2862  0.0877 -0.2497
  130LIG    HB2 1944   6.564   7.272   0.024 -0.1516  0.1607 -0.0611
  130LIG     CG 1945   6.403   7.151   0.111 -0.4974 -0.6487 -0.4128
  130LIG    OD1 1946   6.370   7.052   0.043 -0.8443 -0.3223 -0.3179
  130LIG    OD2 1947   6.319   7.234   0.167  0.1990  0.2490  0.5543
  130LIG      C 1948   6.645   7.127   0.353  0.1667 -0.6241  0.5264
  130LIG    OT1 1949   6.761   7.087   0.382  0.1841  0.0406  0.9338
  130LIG    OT2 1950   6.546   7.075   0.412 -0.3289 -0.0336 -0.1731
  131LIG      N 1951   9.069   5.398   3.657  0.5579 -0.3218 -0.2557
  131LIG     H1 1952   9.101   5.375   3.753  0.1655 -1.2024 -0.3279
  131LIG     H2 1953   9.157   5.433   3.613  1.2961 -1.4505  0.2666
  131LIG     H3 1954   8.996   5.470   3.673 -0.4948 -1.4476  0.0766
  131LIG     CA 1955   9.013   5.287   3.586 -0.4016  0.6625  0.0309
  131LIG     HA 1956   8.985   5.331   3.492 -1.3712  0.5369  0.2504
  131LIG     CB 1957   9.131   5.177   3.574  0.2450 -0.0519 -0.8108
  131LIG    HB1 1958   9.135   5.106   3.659 -0.2753  1.1715  0.2610
  131LIG    HB2 1959   9.228   5.228   3.555  0.1331 -0.6031 -3.2618
  131LIG     CG 1960   9.107   5.102   3.451  0.7236 -0.2127  0.1895
  131LIG    OD1 1961   9.138   4.977   3.441 -0.5918  0.1172 -1.0430
  131LIG    OD2 1962   9.055   5.161   3.353 -0.0442 -0.4157  0.8292
  131LIG      C 1963   8.883   5.236   3.653 -0.7465 -1.1554 -0.2182
  131LIG    OT1 1964   8.850   5.286   3.762  0.7222 -0.7771 -0.5749
  131LIG    OT2 1965   8.829   5.142   3.600  0.1041  0.3445 -0.7029
  132LIG      N 1966   8.958   1.988   5.805 -0.1281 -0.1665 -0.5222
  132LIG     H1 1967   8.907   2.078   5.810  2.3531  1.4351 -2.0145
  132LIG     H2 1968   8.892   1.925   5.755 -0.2924 -0.6231  0.2446
  132LIG     H3 1969   8.969   1.952   5.902  1.0337 -0.3818 -0.7278
  132LIG     CA 1970   9.075   2.031   5.729  0.6609 -0.2073 -0.3810
  132LIG     HA 1971   9.145   2.060   5.806 -1.8111  0.5112  1.7390
  132LIG     CB 1972   9.136   1.904   5.659  0.2570  0.5450  0.4231
  132LIG    HB1 1973   9.066   1.862   5.583 -1.9947 -0.3642  2.8505
  132LIG    HB2 1974   9.156   1.824   5.734  2.6527  1.2256  0.6066
  132LIG     CG 1975   9.279   1.930   5.617  0.4729  0.0614  0.0904
  132LIG    OD1 1976   9.304   1.933   5.494 -0.3403 -0.2863  0.3368
  132LIG    OD2 1977   9.369   1.952   5.705 -0.5586 -0.4925  0.4905
  132LIG      C 1978   9.044   2.161   5.642  0.8223 -0.5294  0.0171
  132LIG    OT1 1979   8.929   2.213   5.647  0.3584 -0.3548 -0.5366
  132LIG    OT2 1980   9.136   2.220   5.573 -0.1302 -0.1374  0.3193
  133LIG      N 1981   6.363   2.066   9.797  0.1541 -0.5387 -0.3917
  133LIG     H1 1982   6.346   2.033   9.894 -2.0676  1.6454  0.0703
  133LIG     H2 1983   6.268   2.060   9.755  0.6216 -2.2118 -1.3049
  133LIG     H3 1984   6.427   2.005   9.743  1.5273  0.2361  0.2979
  133LIG     CA 1985   6.398   2.214   9.798  0.6447 -0.4266  0.3926
  133LIG     HA 1986   6.487   2.214   9.860  1.1185 -2.8786 -0.2014
  133LIG     CB 1987   6.429   2.241   9.649 -0.8381  0.4760  0.2524
  133LIG    HB1 1988   6.347   2.203   9.585  0.4805 -0.4779 -0.9192
  133LIG    HB2 1989   6.518   2.180   9.626 -1.6295 -0.6070 -0.0149
  133LIG     CG 1990   6.452   2.387   9.611 -0.0786 -0.3117  0.0173
  133LIG    OD1 1991   6.355   2.464   9.593  0.3668  0.3181  0.2838
  133LIG    OD2 1992   6.570   2.434   9.603 -0.3511  0.0444  0.1671
  133LIG      C 1993   6.285   2.298   9.859  0.2157  1.0076 -0.9751
  133LIG    OT1 1994   6.180   2.246   9.903 -0.2401 -0.0238 -0.0803
  133LIG    OT2 1995   6.309   2.424   9.890  0.0958 -0.0605 -0.0681
  134LIG      N 1996   0.356   8.652   4.927  0.2708 -0.1586 -0.2062
  134LIG     H1 1997   0.279   8.690   4.985 -0.2275  0.1010 -1.0143
  134LIG     H2 1998   0.413   8.732   4.893 -0.6048  0.0186 -1.3323
  134LIG     H3 1999   0.312   8.606   4.844 -0.8200 -1.6739  1.1446
  134LIG     CA 2000   0.440   8.544   4.995 -0.6038  0.2601  0.4502
  134LIG     HA 2001   0.514   8.604   5.047  1.7703  0.8914 -3.3120
  134LIG     CB 2002   0.347   8.461   5.083  0.5262  0.1714 -0.5924
  134LIG    HB1 2003   0.297   8.378   5.028  1.0736 -1.6655  1.4949
  134LIG    HB2 2004   0.266   8.526   5.122  1.3943  0.1789  1.3277
  134LIG     CG 2005   0.422   8.408   5.203 -0.3904  0.0884  0.3808
  134LIG    OD1 2006   0.394   8.290   5.240  0.5098 -0.9041 -0.1811
  134LIG    OD2 2007   0.510   8.488   5.250 -0.4965  0.5452 -0.9832
  134LIG      C 2008   0.518   8.454   4.891  0.1750 -0.8010 -0.1372
  134LIG    OT1 2009   0.505   8.490   4.768 -0.2279 -0.7168  0.1762
  134LIG    OT2 2010   0.577   8.346   4.924 -0.0322  0.5657  0.1763
  135LIG      N 2011   3.421   7.891   7.307  0.0700  0.0967 -0.6225
  135LIG     H1 2012   3.435   7.837   7.219  1.5251 -1.4214  0.4766
  135LIG     H2 2013   3.387   7.986   7.280 -1.0560 -0.7131 -2.2441
  135LIG     H3 2014   3.511   7.902   7.358 -0.5459  1.0587  0.2869
  135LIG     CA 2015   3.327   7.838   7.415  0.4110 -0.0163  0.1064
  135LIG     HA 2016   3.339   7.731   7.412  0.3892 -0.0139 -2.1837
  135LIG     CB 2017   3.361   7.903   7.560 -0.7915 -0.2434  0.5249
  135LIG    HB1 2018   3.319   8.005   7.577 -0.4278  0.1940 -1.0546
  135LIG    HB2 2019   3.468   7.915   7.586 -0.2633 -0.1171 -1.5130
  135LIG     CG 2020   3.321   7.800   7.662 -0.1389 -0.4548  0.0027
  135LIG    OD1 2021   3.269   7.848   7.764 -0.3097 -0.4324 -0.1221
  135LIG    OD2 2022   3.328   7.677   7.636  0.7687 -0.7721 -0.4573
  135LIG      C 2023   3.179   7.862   7.376  1.0370  0.3671 -0.9865
  135LIG    OT1 2024   3.151   7.917   7.270 -0.8649  0.0582  0.3375
  135LIG    OT2 2025   3.081   7.822   7.451 -0.0964  0.5952  0.3338
  136LIG      N 2026   4.927   8.312   9.481 -0.6481  0.5170  0.2055
  136LIG     H1 2027   5.017   8.324   9.531  0.0627  0.3506 -0.9974
  136LIG     H2 2028   4.927   8.356   9.387 -0.6070 -1.9991 -1.0663
  136LIG     H3 2029   4.858   8.364   9.539  0.0750  1.7823 -0.0418
  136LIG     CA 2030   4.882   8.165   9.471 -0.2651 -0.2614  0.5357
  136LIG     HA 2031   4.974   8.125   9.430  0.4299  1.8247 -0.1013
  136LIG     CB 2032   4.839   8.112   9.607 -0.0321  0.4465  0.1580
  136LIG    HB1 2033   4.739   8.154   9.629 -0.4900  0.2354 -1.3979
  136LIG    HB2 2034   4.899   8.153   9.691 -1.1522  0.2687  1.0656
  136LIG     CG 2035   4.832   7.960   9.618  0.3454  0.8264 -0.3295
  136LIG    OD1 2036   4.744   7.908   9.693  0.5919 -0.2167  0.4495
  136LIG    OD2 2037   4.913   7.896   9.550  0.3004 -1.0100 -0.1430
  136LIG      C 2038   4.749   8.169   9.381 -0.0485  0.3512 -0.4975
  136LIG    OT1 2039   4.695   8.282   9.358 -0.5467  0.2380 -0.4291
  136LIG    OT2 2040   4.701   8.061   9.340  0.4723  0.1249  0.1756
  137LIG      N 2041   8.489   1.381   7.002  0.5996  0.5012  0.5563
  137LIG     H1 2042   8.533   1.329   6.924 -1.8019 -1.7912  0.5700
  137LIG     H2 2043   8.386   1.364   7.003  1.0557 -3.0532  0.8980
  137LIG     H3 2044   8.487   1.484   6.987  0.2574  0.1812 -2.0601
  137LIG     CA 2045   8.549   1.338   7.128 -0.1373 -0.2161  0.1185
  137LIG     HA 2046   8.526   1.233   7.135  0.3461 -0.3766 -0.6072
  137LIG     CB 2047   8.704   1.359   7.116 -0.4160  0.0771 -0.3397
  137LIG    HB1 2048   8.730   1.462   7.149 -2.1891  1.2775 -2.4288
  137LIG    HB2 2049   8.746   1.341   7.015  0.6899 -2.2094  0.4530
  137LIG     CG 2050   8.774   1.256   7.211 -0.5279 -1.1442  0.3687
  137LIG    OD1 2051   8.875   1.302   7.269  0.2102  0.5173  0.0677
  137LIG    OD2 2052   8.721   1.143   7.232 -0.1774 -0.5136 -0.2682
  137LIG      C 2053   8.489   1.403   7.249  0.1383  0.1995 -0.2276
  137LIG    OT1 2054   8.394   1.486   7.245  0.1384 -0.2668  0.8962
  137LIG    OT2 2055   8.527   1.367   7.364  0.2583  0.2860  0.2816
  138LIG      N 2056   1.687   3.513   1.277  0.2707  0.2769  0.1416
  138LIG     H1 2057   1.593   3.545   1.244  0.2975 -0.1598 -0.3864
  138LIG     H2 2058   1.758   3.586   1.257  0.3420  0.5891  1.4481
  138LIG     H3 2059   1.715   3.428   1.224  2.1983  1.7223 -1.2713
  138LIG     CA 2060   1.682   3.496   1.424 -0.3088 -0.3288 -0.3721
  138LIG     HA 2061   1.603   3.433   1.463  1.0146 -0.6940  1.8995
  138LIG     CB 2062   1.811   3.433   1.478 -0.3648 -0.0880  0.1890
  138LIG    HB1 2063   1.885   3.516   1.477 -0.5911  0.1113 -0.1479
  138LIG    HB2 2064   1.847   3.349   1.414  0.6558 -0.2089  0.9093
  138LIG     CG 2065   1.787   3.389   1.619 -0.3307  0.0041  0.1698
  138LIG    OD1 2066   1.869   3.429   1.712  0.3076 -0.0390 -0.1813
  138LIG    OD2 2067   1.698   3.306   1.649 -0.3336  0.5483  0.4533
  138LIG      C 2068   1.647   3.641   1.480  0.1695 -0.2508 -0.2844
  138LIG    OT1 2069   1.625   3.742   1.405  0.0777  0.3114 -0.0178
  138LIG    OT2 2070   1.635   3.648   1.606 -0.2210 -0.1987  0.1302
  139LIG      N 2071   2.191   1.020   9.821  0.4599 -0.1210 -0.0698
  139LIG     H1 2072   2.292   1.035   9.804  0.4578  0.0835  0.0961
  139LIG     H2 2073   2.168   0.918   9.825  0.5064 -0.1903 -1.3684
  139LIG     H3 2074   2.150   1.052   9.731 -1.6876 -1.0481  0.4959
  139LIG     CA 2075   2.136   1.103   9.939 -0.0816 -0.5645  0.3504
  139LIG     HA 2076   2.196   1.077  10.025 -0.1903  1.2395  1.0103
  139LIG     CB 2077   2.156   1.253   9.899  0.1484  0.5819  0.3885
  139LIG    HB1 2078   2.081   1.296   9.829 -0.1918 -1.9127 -0.8988
  139LIG    HB2 2079   2.255   1.254   9.849 -0.1852  0.3273 -0.2924
  139LIG     CG 2080   2.173   1.333  10.022  0.1301 -0.0774  0.7073
  139LIG    OD1 2081   2.089   1.424  10.049  0.4923 -0.4386 -0.5994
  139LIG    OD2 2082   2.268   1.302  10.103  0.3333 -0.1337 -0.1738
  139LIG      C 2083   1.980   1.084   9.964 -0.7624  0.4740  0.4400
  139LIG    OT1 2084   1.909   1.013   9.883 -0.3134 -0.4009 -0.2933
  139LIG    OT2 2085   1.926   1.142  10.060 -0.0334 -1.1051  0.0336
  140LIG      N 2086   1.752   5.790   1.493  0.5830 -0.1900 -0.2268
  140LIG     H1 2087   1.665   5.845   1.506  1.0380  1.3017 -2.8107
  140LIG     H2 2088   1.799   5.838   1.414  1.2691 -1.6822 -0.7717
  140LIG     H3 2089   1.710   5.699   1.466  1.0628 -0.4915  0.0291
  140LIG     CA 2090   1.833   5.776   1.620 -0.1643 -0.1135 -0.1940
  140LIG     HA 2091   1.929   5.738   1.589 -0.2129 -0.7058  0.3663
  140LIG     CB 2092   1.839   5.923   1.678  0.3990 -0.1558 -0.8803
  140LIG    HB1 2093   1.742   5.940   1.729  0.7526 -2.7698  0.8213
  140LIG    HB2 2094   1.857   6.005   1.605  1.1555  0.9307  0.5047
  140LIG     CG 2095   1.943   5.946   1.784  0.1855 -0.0671  0.0884
  140LIG    OD1 2096   1.928   6.015   1.890  0.1289  0.1357 -0.2158
  140LIG    OD2 2097   2.059   5.911   1.753  0.1147  0.1564 -0.4456
  140LIG      C 2098   1.772   5.680   1.722  0.5961 -0.8262 -0.9489
  140LIG    OT1 2099   1.663   5.616   1.687 -0.3857  0.8480 -0.4318
  140LIG    OT2 2100   1.816   5.670   1.838 -0.2029  0.6697 -0.2606
  141LIG      N 2101   1.105   2.021   1.240  0.1647 -0.0861 -0.1547
  141LIG     H1 2102   1.118   2.026   1.137  0.5267 -0.2285 -0.1195
  141LIG     H2 2103   1.186   2.055   1.296 -1.4710  0.4848  2.0113
  141LIG     H3 2104   1.083   1.922   1.263  0.3516  0.2576  1.6165
  141LIG     CA 2105   0.986   2.108   1.270 -0.3522  0.2877 -0.5312
  141LIG     HA 2106   0.957   2.080   1.370  2.6240  1.2352  0.7123
  141LIG     CB 2107   1.049   2.251   1.266 -0.0775 -0.0668 -0.2619
  141LIG    HB1 2108   1.089   2.277   1.166  3.3486 -0.3148  0.9207
  141LIG    HB2 2109   1.142   2.245   1.327 -1.2486 -1.4757  1.4843
  141LIG     CG 2110   0.950   2.353   1.321 -0.3799  0.3854  0.2494
  141LIG    OD1 2111   0.927   2.458   1.254  0.0368 -0.6558 -0.2318
  141LIG    OD2 2112   0.911   2.336   1.437  0.6158 -0.3441 -0.1937
  141LIG      C 2113   0.878   2.105   1.159  0.2436  0.0469 -0.0428
  141LIG    OT1 2114   0.900   2.063   1.043 -0.1003 -0.5038 -0.1956
  141LIG    OT2 2115   0.766   2.160   1.184  0.1426  0.3413 -0.0458
  142LIG      N 2116   0.105   8.985   6.844 -0.1717  0.0013  0.3844
  142LIG     H1 2117   0.107   9.084   6.812  0.3706  0.3237  1.3560
  142LIG     H2 2118   0.116   8.978   6.948 -1.9074  0.3537  0.6152
  142LIG     H3 2119   0.184   8.937   6.795 -0.1449 -0.3184  0.7347
  142LIG     CA 2120  -0.022   8.914   6.799 -0.2844  0.3182 -0.1557
  142LIG     HA 2121  -0.025   8.919   6.691  0.9626 -0.9474 -0.2816
  142LIG     CB 2122  -0.002   8.767   6.848 -0.7299 -1.4164  0.3716
  142LIG    HB1 2123   0.010   8.751   6.958  2.5003 -3.0558 -0.1114
  142LIG    HB2 2124   0.098   8.737   6.809 -1.1383 -1.6278 -0.5201
  142LIG     CG 2125  -0.085   8.661   6.782 -0.1432 -0.1489 -0.1997
  142LIG    OD1 2126  -0.137   8.573   6.863 -0.1693 -0.2197 -0.0966
  142LIG    OD2 2127  -0.083   8.653   6.655 -0.1850  0.5297  0.7081
  142LIG      C 2128  -0.154   8.978   6.851  0.1208  0.2296 -0.3052
  142LIG    OT1 2129  -0.159   9.083   6.916 -0.0043 -0.5676 -0.3013
  142LIG    OT2 2130  -0.260   8.914   6.831  0.1608 -0.2418  0.1075
  143LIG      N 2131   5.588   4.927   9.402 -0.4948 -0.1287 -0.5520
  143LIG     H1 2132   5.630   5.022   9.409 -0.7982 -0.0646  0.5240
  143LIG     H2 2133   5.655   4.870   9.345  0.9619  0.9571  0.0112
  143LIG     H3 2134   5.493   4.946   9.364 -1.3057 -0.5210  1.2119
  143LIG     CA 2135   5.576   4.866   9.543 -0.8618 -0.4803 -0.0634
  143LIG     HA 2136   5.556   4.761   9.526 -1.1526 -0.8438  2.2261
  143LIG     CB 2137   5.710   4.888   9.624 -0.1251 -0.2445 -0.1601
  143LIG    HB1 2138   5.716   4.991   9.666  2.9031 -0.2973 -0.1982
  143LIG    HB2 2139   5.798   4.876   9.557  0.5253  1.0792  0.4113
  143LIG     CG 2140   5.725   4.786   9.740  0.1576 -0.5584  0.0238
  143LIG    OD1 2141   5.761   4.825   9.850  0.0297  0.7652  0.2886
  143LIG    OD2 2142   5.721   4.668   9.701  0.7045 -0.0116  0.5194
  143LIG      C 2143   5.455   4.933   9.618 -0.4296  0.7521  0.2267
  143LIG    OT1 2144   5.411   5.041   9.574  0.1136  0.2106 -0.1036
  143LIG    OT2 2145   5.400   4.879   9.715  0.1198 -0.5156  0.0612
  144LIG      N 2146   9.360   8.593   2.358 -0.0790 -0.6525  0.3396
  144LIG     H1 2147   9.270   8.542   2.343 -0.3737  0.1440 -0.7486
  144LIG     H2 2148   9.373   8.682   2.306 -1.8126  0.7143  2.0813
  144LIG     H3 2149   9.440   8.532   2.334  0.2452 -0.5380  1.1105
  144LIG     CA 2150   9.359   8.626   2.503  0.1409  0.6829 -0.4477
  144LIG     HA 2151   9.269   8.679   2.530 -0.0070  0.4530 -0.4836
  144LIG     CB 2152   9.372   8.494   2.593  0.1152  0.3043  0.3265
  144LIG    HB1 2153   9.478   8.463   2.605 -0.0166  0.4450  2.1529
  144LIG    HB2 2154   9.323   8.407   2.546  0.2438  0.3451  0.1151
  144LIG     CG 2155   9.314   8.514   2.729  0.1222 -0.3756  0.1510
  144LIG    OD1 2156   9.387   8.492   2.830  0.3085  0.0740 -0.5558
  144LIG    OD2 2157   9.186   8.533   2.740 -0.3143 -0.3182 -1.3034
  144LIG      C 2158   9.481   8.717   2.536  0.3271  0.3552 -0.1818
  144LIG    OT1 2159   9.566   8.759   2.450 -0.0240  0.8224 -0.3937
  144LIG    OT2 2160   9.489   8.745   2.659  0.2943  0.0900 -0.2064
  145LIG      N 2161   1.821   1.780   7.405  0.2801 -0.5178  0.7384
  145LIG     H1 2162   1.746   1.708   7.414  1.0116 -1.4670 -0.5110
  145LIG     H2 2163   1.912   1.742   7.436  0.9392  0.1358 -0.3241
  145LIG     H3 2164   1.806   1.863   7.467  1.6680 -0.9804  1.7396
  145LIG     CA 2165   1.841   1.807   7.257  0.6359 -0.0063 -0.5948
  145LIG     HA 2166   1.857   1.713   7.206  2.8021 -0.4883  0.8790
  145LIG     CB 2167   1.715   1.884   7.200 -0.0898 -0.6583 -0.2939
  145LIG    HB1 2168   1.731   1.994   7.208  0.3710 -0.5555 -2.1564
  145LIG    HB2 2169   1.619   1.846   7.241 -0.6096  0.7165 -0.1751
  145LIG     CG 2170   1.687   1.861   7.051 -0.1714  0.0642  0.2970
  145LIG    OD1 2171   1.653   1.957   6.979  0.5806 -0.7651  0.2730
  145LIG    OD2 2172   1.699   1.740   7.016  0.8127 -0.1519  0.1035
  145LIG      C 2173   1.966   1.896   7.228 -0.1447 -1.0046 -0.0567
  145LIG    OT1 2174   2.042   1.931   7.327  0.4690 -0.3015  0.4046
  145LIG    OT2 2175   2.010   1.907   7.111 -0.2262 -0.2578  0.4862
  146LIG      N 2176   1.156   9.315   3.182  0.3646 -0.6324  0.3644
  146LIG     H1 2177   1.069   9.339   3.233 -0.5478 -0.3061 -1.2586
  146LIG     H2 2178   1.146   9.307   3.078 -0.0041  0.1709  0.3318
  146LIG     H3 2179   1.187   9.227   3.226  0.1149 -1.2468 -0.6502
  146LIG     CA 2180   1.252   9.425   3.210 -0.0515  0.9896 -0.0066
  146LIG     HA 2181   1.210   9.511   3.161  1.3785  1.4293 -0.5159
  146LIG     CB 2182   1.292   9.436   3.362 -0.4401 -0.6871 -0.3401
  146LIG    HB1 2183   1.369   9.357   3.376 -2.3852 -2.3939  1.5473
  146LIG    HB2 2184   1.210   9.412   3.434  0.5569 -0.1928  1.0187
  146LIG     CG 2185   1.344   9.578   3.386 -0.2266 -0.2672  0.0316
  146LIG    OD1 2186   1.437   9.597   3.469  0.1094  0.1810 -0.5176
  146LIG    OD2 2187   1.269   9.672   3.342 -0.5042 -0.1908 -0.6432
  146LIG      C 2188   1.383   9.392   3.132 -0.6014 -0.0024  0.2799
  146LIG    OT1 2189   1.404   9.282   3.074 -0.9903  0.1922  0.0748
  146LIG    OT2 2190   1.469   9.486   3.129 -1.2412  0.1503 -0.2332
  147LIG      N 2191   1.381   5.484   4.847  0.3031 -0.0893 -0.3826
  147LIG     H1 2192   1.408   5.580   4.815 -0.0467 -0.1251 -0.8094
  147LIG     H2 2193   1.467   5.430   4.868 -0.6238 -1.3506  0.2858
  147LIG     H3 2194   1.344   5.434   4.763  2.8435  0.8663 -2.1996
  147LIG     CA 2195   1.290   5.483   4.963 -0.0781 -0.0882 -0.2115
  147LIG     HA 2196   1.272   5.378   4.984  0.9238 -0.0981  0.7119
  147LIG     CB 2197   1.375   5.536   5.079 -0.6841  0.0497 -0.0800
  147LIG    HB1 2198   1.399   5.645   5.070 -1.0201  0.2430  1.2164
  147LIG    HB2 2199   1.476   5.492   5.064 -1.1287 -0.1028 -3.4120
  147LIG     CG 2200   1.330   5.516   5.220  0.0591  1.1663 -0.0718
  147LIG    OD1 2201   1.314   5.604   5.302  0.8599  0.1022 -0.7992
  147LIG    OD2 2202   1.320   5.395   5.252 -0.0246  0.0297  0.0234
  147LIG      C 2203   1.149   5.545   4.948 -0.0310  0.0387 -0.1076
  147LIG    OT1 2204   1.120   5.613   4.848 -0.6915  0.1963 -0.1743
  147LIG    OT2 2205   1.056   5.530   5.037 -0.1617  0.5558 -0.3061
  148LIG      N 2206   2.931   9.372   7.885 -0.0756 -0.0718 -0.0859
  148LIG     H1 2207   3.022   9.400   7.844  1.8392 -2.1659  2.3153
  148LIG     H2 2208   2.937   9.272   7.915  2.0257  0.1419  0.4052
  148LIG     H3 2209   2.861   9.381   7.810 -0.6564 -2.2897  0.1193
  148LIG     CA 2210   2.897   9.449   8.000 -0.6088 -0.1061  0.0302
  148LIG     HA 2211   2.907   9.553   7.972  0.7861 -0.0572  0.6017
  148LIG     CB 2212   2.755   9.403   8.030  0.2660 -0.1793  0.7892
  148LIG    HB1 2213   2.763   9.311   8.093 -0.2648 -0.3435  0.6233
  148LIG    HB2 2214   2.694   9.385   7.939  1.6368 -1.0942  0.0150
  148LIG     CG 2215   2.685   9.513   8.106 -0.6129  0.1420 -0.0480
  148LIG    OD1 2216   2.614   9.474   8.200  0.7284  0.3984  0.0855
  148LIG    OD2 2217   2.700   9.632   8.069  0.0672 -0.2992  1.0033
  148LIG      C 2218   2.994   9.430   8.123  0.2705 -0.2188  0.0099
  148LIG    OT1 2219   3.097   9.355   8.107  0.3295  0.1814  0.1638
  148LIG    OT2 2220   2.971   9.493   8.233  0.5666 -0.0809 -0.2978
  149LIG      N 2221   2.394   8.430   6.274  0.2300  0.0747  0.4798
  149LIG     H1 2222   2.332   8.348   6.287 -0.9118  0.5440 -1.6739
  149LIG     H2 2223   2.388   8.478   6.366 -2.2630  1.1173 -0.1381
  149LIG     H3 2224   2.345   8.496   6.210  0.8754  0.8514  0.7631
  149LIG     CA 2225   2.534   8.383   6.243 -0.6862  0.7331  0.3540
  149LIG     HA 2226   2.538   8.276   6.234  1.4548  0.8883 -1.2653
  149LIG     CB 2227   2.565   8.446   6.104 -0.1256  0.3924  0.1412
  149LIG    HB1 2228   2.595   8.552   6.115  0.7257  0.1028  0.7008
  149LIG    HB2 2229   2.479   8.448   6.033  0.1253 -0.2245 -0.1842
  149LIG     CG 2230   2.685   8.376   6.036  0.8840  0.5545 -0.6110
  149LIG    OD1 2231   2.778   8.450   5.990  0.3255 -0.1869  0.2856
  149LIG    OD2 2232   2.690   8.252   6.022  0.5310  0.4167  0.0915
  149LIG      C 2233   2.635   8.422   6.357  0.0585 -0.4438  0.0988
  149LIG    OT1 2234   2.589   8.490   6.454 -0.5443  0.8924  0.8957
  149LIG    OT2 2235   2.754   8.395   6.359 -0.0691  0.1739 -0.0267
  150LIG      N 2236   9.386   5.022   4.281  0.7831  0.8341 -0.4594
  150LIG     H1 2237   9.423   4.926   4.261 -0.4069 -0.4169  2.7517
  150LIG     H2 2238   9.454   5.090   4.242  1.0236  1.3444  0.8246
  150LIG     H3 2239   9.398   5.036   4.383  1.5570  3.1377 -0.7999
  150LIG     CA 2240   9.250   5.050   4.239 -0.2270  0.4113 -0.0880
  150LIG     HA 2241   9.231   5.156   4.248 -1.0862  0.1706  1.2256
  150LIG     CB 2242   9.227   5.022   4.089  0.1107 -0.0807 -0.1354
  150LIG    HB1 2243   9.241   4.913   4.069  0.0729  0.0317 -0.7937
  150LIG    HB2 2244   9.295   5.079   4.024  2.2470 -1.5667  0.6876
  150LIG     CG 2245   9.086   5.070   4.056  0.3652  0.3151  0.3658
  150LIG    OD1 2246   9.016   5.000   3.980 -0.0517  0.4297  0.1610
  150LIG    OD2 2247   9.050   5.186   4.082 -0.1339  0.2255  0.0974
  150LIG      C 2248   9.161   4.963   4.334  0.2041  0.4353  0.1207
  150LIG    OT1 2249   9.207   4.867   4.398 -0.2629  0.2259 -0.2101
  150LIG    OT2 2250   9.038   4.984   4.340 -0.0110  0.6662 -0.4934
  151LIG      N 2251   9.475   6.914   0.820 -0.5884 -0.0515 -0.0081
  151LIG     H1 2252   9.570   6.871   0.823 -0.6697 -0.3198 -0.9791
  151LIG     H2 2253   9.484   7.008   0.862 -0.4206 -0.5982  1.2183
  151LIG     H3 2254   9.431   6.846   0.884  1.0262 -1.6229 -0.4736
  151LIG     CA 2255   9.414   6.921   0.683 -0.5488 -0.7269 -0.4861
  151LIG     HA 2256   9.498   6.948   0.621 -1.6071  1.1351 -1.1746
  151LIG     CB 2257   9.364   6.784   0.641 -0.7634  0.5960 -0.4380
  151LIG    HB1 2258   9.263   6.762   0.683  0.2025  0.6679  2.1105
  151LIG    HB2 2259   9.439   6.708   0.670 -1.0664 -0.4113 -2.1590
  151LIG     CG 2260   9.353   6.773   0.493  0.4089  0.5249 -0.3111
  151LIG    OD1 2261   9.277   6.688   0.441 -0.3741 -0.1107 -0.7103
  151LIG    OD2 2262   9.436   6.839   0.428 -0.5374  0.0702  0.0884
  151LIG      C 2263   9.312   7.030   0.667  0.7423 -0.0001  0.1318
  151LIG    OT1 2264   9.290   7.106   0.768 -0.0288  0.1738  0.3832
  151LIG    OT2 2265   9.247   7.047   0.561  0.5697  0.3174  0.6388
  152LIG      N 2266   8.704   0.257   0.304 -0.2847 -0.1330  0.2404
  152LIG     H1 2267   8.686   0.241   0.202 -1.3235 -0.7780  0.5117
  152LIG     H2 2268   8.746   0.351   0.316 -1.2697  0.1427  1.8385
  152LIG     H3 2269   8.766   0.190   0.354 -0.5652 -0.4022  0.2369
  152LIG     CA 2270   8.573   0.273   0.394  0.4684  0.1256  0.1780
  152LIG     HA 2271   8.520   0.181   0.374  0.2908  0.2557  0.0429
  152LIG     CB 2272   8.621   0.302   0.537 -0.0793  0.0175  0.9192
  152LIG    HB1 2273   8.636   0.411   0.552 -0.3031  0.1684  0.0809
  152LIG    HB2 2274   8.712   0.247   0.569 -0.2098 -0.3751  0.6272
  152LIG     CG 2275   8.505   0.263   0.631  0.8645  0.0723  0.0253
  152LIG    OD1 2276   8.473   0.341   0.725 -0.0458 -0.2293 -0.1751
  152LIG    OD2 2277   8.442   0.154   0.615 -0.2190 -0.2301  0.5088
  152LIG      C 2278   8.477   0.388   0.342 -0.7578  0.3526 -0.6306
  152LIG    OT1 2279   8.514   0.447   0.237 -0.3068  0.5142  0.1481
  152LIG    OT2 2280   8.373   0.421   0.400 -0.3458  0.0243  0.1977
  153LIG      N 2281   8.043   3.784   4.200  0.6875  0.2601 -0.2630
  153LIG     H1 2282   8.057   3.819   4.297 -0.9034  1.2541 -0.3725
  153LIG     H2 2283   7.948   3.749   4.180  0.6656 -0.9922  1.7836
  153LIG     H3 2284   8.111   3.708   4.176  3.6535  2.2095  1.3201
  153LIG     CA 2285   8.077   3.891   4.102  0.2894 -0.8394  0.6460
  153LIG     HA 2286   8.184   3.904   4.099  0.2513 -0.7303 -0.6691
  153LIG     CB 2287   8.013   3.847   3.968 -0.1292 -0.7125  0.2336
  153LIG    HB1 2288   7.904   3.864   3.960 -0.5796 -3.5085 -0.8038
  153LIG    HB2 2289   8.022   3.737   3.955  0.3155 -0.6947  0.3772
  153LIG     CG 2290   8.087   3.918   3.853  0.3246 -0.0466 -0.1310
  153LIG    OD1 2291   8.031   3.958   3.746 -0.2771  0.3859  0.4559
  153LIG    OD2 2292   8.211   3.922   3.858 -0.2122  0.1567 -0.1989
  153LIG      C 2293   8.018   4.032   4.152 -0.1023  0.2260 -0.9778
  153LIG    OT1 2294   7.954   4.035   4.256  0.2448 -0.2052 -0.5633
  153LIG    OT2 2295   8.038   4.140   4.092 -0.2198 -0.0774 -0.1201
  154LIG      N 2296   9.740   3.101   4.389  0.4127 -0.0521 -0.4221
  154LIG     H1 2297   9.639   3.123   4.382 -0.3577 -3.0441  0.0222
  154LIG     H2 2298   9.800   3.177   4.428 -1.1556 -0.0119  2.1297
  154LIG     H3 2299   9.762   3.086   4.288  0.7298  0.1643 -0.3879
  154LIG     CA 2300   9.753   2.975   4.460  0.3901 -0.5721 -0.4890
  154LIG     HA 2301   9.858   2.962   4.481  0.0629 -2.6340  0.0641
  154LIG     CB 2302   9.673   2.996   4.593 -0.2690 -0.1516  0.1179
  154LIG    HB1 2303   9.563   2.984   4.579 -0.4054  1.8485 -0.8222
  154LIG    HB2 2304   9.698   3.088   4.650 -0.7411  0.4271 -0.5860
  154LIG     CG 2305   9.717   2.890   4.686  0.0569 -0.7529  0.5477
  154LIG    OD1 2306   9.628   2.839   4.763 -0.0237  0.0515 -0.5260
  154LIG    OD2 2307   9.840   2.871   4.704  0.2747  0.2877  0.1028
  154LIG      C 2308   9.701   2.850   4.377 -0.1927 -0.3881 -0.0415
  154LIG    OT1 2309   9.643   2.863   4.267 -0.2513 -0.1101  0.9353
  154LIG    OT2 2310   9.721   2.738   4.425 -0.3113 -0.3712 -0.0205
  155LIG      N 2311   9.465   0.752   4.542 -0.3627  0.2779 -0.3087
  155LIG     H1 2312   9.559   0.710   4.555 -0.5462 -0.2497 -0.6281
  155LIG     H2 2313   9.442   0.805   4.628 -0.7545  0.3319 -0.4438
  155LIG     H3 2314   9.396   0.676   4.522 -0.2135 -0.1650  0.7913
  155LIG     CA 2315   9.456   0.843   4.422  0.1798  0.7505  0.3633
  155LIG     HA 2316   9.537   0.914   4.428  1.1431 -0.2709 -0.1770
  155LIG     CB 2317   9.486   0.747   4.301 -0.8278 -0.3509 -0.5654
  155LIG    HB1 2318   9.388   0.698   4.280 -0.9814  0.6834 -2.5002
  155LIG    HB2 2319   9.573   0.683   4.326 -0.9854 -0.4993 -0.3906
  155LIG     CG 2320   9.533   0.814   4.173  1.0862 -0.2131  0.0541
  155LIG    OD1 2321   9.496   0.772   4.062  0.6642 -0.4199 -0.5589
  155LIG    OD2 2322   9.607   0.923   4.189  0.2522 -0.0947  0.1618
  155LIG      C 2323   9.321   0.917   4.399 -0.2104  0.3755  0.7750
  155LIG    OT1 2324   9.218   0.889   4.471  0.4995 -0.0021  0.4488
  155LIG    OT2 2325   9.321   1.003   4.307 -0.3503  0.0095  0.4941
  156LIG      N 2326   1.447   4.100   0.811 -0.2188  0.4207  0.2696
  156LIG     H1 2327   1.388   4.094   0.726  0.1862  0.0342  0.0132
  156LIG     H2 2328   1.424   4.012   0.861  0.0540 -1.6406 -2.9991
  156LIG     H3 2329   1.414   4.186   0.860 -0.2836  0.9701 -0.7181
  156LIG     CA 2330   1.590   4.115   0.791  0.5316 -0.0416 -0.4846
  156LIG     HA 2331   1.647   4.114   0.883  0.3009  0.3340 -0.3334
  156LIG     CB 2332   1.630   3.992   0.706 -0.6507  0.2680 -0.4933
  156LIG    HB1 2333   1.619   4.009   0.597 -0.3136  2.2397 -0.2680
  156LIG    HB2 2334   1.580   3.902   0.747  0.6556 -0.1063  0.3257
  156LIG     CG 2335   1.779   3.963   0.730 -0.1251 -0.0157 -0.3897
  156LIG    OD1 2336   1.850   3.915   0.637  0.0623  0.0863 -0.3381
  156LIG    OD2 2337   1.822   3.969   0.845  0.5016  0.4064  0.3867
  156LIG      C 2338   1.617   4.238   0.704 -0.4046 -0.3457 -0.2242
  156LIG    OT1 2339   1.521   4.312   0.668 -0.4943  0.6161 -0.2927
  156LIG    OT2 2340   1.735   4.273   0.685 -0.0800  0.0897 -0.4169
  157LIG      N 2341   2.087   2.183   6.595 -0.3090 -0.1212  0.1069
  157LIG     H1 2342   2.107   2.234   6.684 -0.7941  0.1740  0.0497
  157LIG     H2 2343   2.086   2.253   6.518 -0.8980 -2.2138 -1.9131
  157LIG     H3 2344   1.991   2.144   6.601 -1.5609  2.7265 -0.2341
  157LIG     CA 2345   2.183   2.070   6.570  0.4185  0.3359 -0.0235
  157LIG     HA 2346   2.279   2.092   6.614  0.6183  2.0050 -1.2206
  157LIG     CB 2347   2.130   1.947   6.641  0.2321  0.0812  0.8711
  157LIG    HB1 2348   2.039   1.913   6.587  0.3568  1.3345 -0.1848
  157LIG    HB2 2349   2.102   1.978   6.744 -0.5889 -0.2312  0.7525
  157LIG     CG 2350   2.233   1.835   6.661 -0.1800 -0.1088 -0.0857
  157LIG    OD1 2351   2.197   1.723   6.617 -0.4550  0.5176 -0.1519
  157LIG    OD2 2352   2.340   1.851   6.728  0.0206 -0.3047  0.2307
  157LIG      C 2353   2.209   2.035   6.416 -0.1246 -0.2806 -0.4172
  157LIG    OT1 2354   2.135   2.094   6.334  0.1833  0.4664  0.0749
  157LIG    OT2 2355   2.303   1.964   6.381  0.0316  0.1937  0.2530
  158LIG      N 2356   6.464   1.435   8.114 -0.0190  0.2962 -0.2315
  158LIG     H1 2357   6.484   1.481   8.023 -1.6326  1.6792  0.0620
  158LIG     H2 2358   6.490   1.501   8.190 -0.1281 -0.4633  0.4795
  158LIG     H3 2359   6.524   1.350   8.118 -0.5846 -0.1250 -0.4732
  158LIG     CA 2360   6.329   1.384   8.128  0.2697  0.6819  0.1598
  158LIG     HA 2361   6.267   1.468   8.157 -1.2489 -0.9523  1.8782
  158LIG     CB 2362   6.293   1.328   7.980  0.3155 -0.0903  0.7371
  158LIG    HB1 2363   6.337   1.227   7.967  1.4230  0.5768 -1.1380
  158LIG    HB2 2364   6.329   1.376   7.886 -1.7503 -0.0872 -0.1109
  158LIG     CG 2365   6.144   1.317   7.962 -0.4377  0.0877  0.1979
  158LIG    OD1 2366   6.084   1.214   7.916 -0.6049  0.0283 -0.4645
  158LIG    OD2 2367   6.085   1.428   7.982  0.5701 -0.0931  0.0639
  158LIG      C 2368   6.301   1.284   8.240  1.1048 -0.4740  0.2722
  158LIG    OT1 2369   6.396   1.259   8.321 -0.0460  0.6999 -0.6013
  158LIG    OT2 2370   6.191   1.224   8.245 -0.1416 -0.2545 -1.0662
  159LIG      N 2371   2.260   0.499   1.696 -0.8224  0.2104  0.3183
  159LIG     H1 2372   2.214   0.547   1.616 -0.4257 -1.5650 -1.0365
  159LIG     H2 2373   2.231   0.404   1.664  0.6416  1.0058 -4.1273
  159LIG     H3 2374   2.220   0.536   1.785  1.9550  1.0485  1.3058
  159LIG     CA 2375   2.412   0.500   1.700 -0.0592  0.4911 -0.1038
  159LIG     HA 2376   2.438   0.418   1.765 -3.9240 -2.3706 -1.7959
  159LIG     CB 2377   2.471   0.476   1.555  0.3319  0.0895  0.0345
  159LIG    HB1 2378   2.462   0.572   1.499 -0.1272 -0.2919 -0.5545
  159LIG    HB2 2379   2.413   0.400   1.499  1.8613 -0.8009 -0.3901
  159LIG     CG 2380   2.610   0.435   1.554  0.9126  0.2682 -0.8941
  159LIG    OD1 2381   2.683   0.464   1.454  0.6967  0.0907  0.4362
  159LIG    OD2 2382   2.647   0.355   1.648  0.2280  0.4581 -0.1677
  159LIG      C 2383   2.465   0.637   1.762 -0.4077  0.4231  0.5556
  159LIG    OT1 2384   2.384   0.721   1.804  0.0952 -0.2106 -0.0898
  159LIG    OT2 2385   2.593   0.655   1.768 -0.0167  0.1075  0.1110
  160LIG      N 2386   1.225   3.186   4.431  0.7747  0.2321  0.6060
  160LIG     H1 2387   1.299   3.125   4.391  3.0140  2.2883  1.3644
  160LIG     H2 2388   1.133   3.145   4.405  0.9031  0.4492 -0.2286
  160LIG     H3 2389   1.235   3.276   4.380 -2.6314 -0.3630 -1.4257
  160LIG     CA 2390   1.245   3.202   4.580 -0.0071  0.8008 -0.2271
  160LIG     HA 2391   1.338   3.256   4.582 -0.5427  1.7430 -0.2388
  160LIG     CB 2392   1.126   3.282   4.637 -0.5814  0.3504 -0.7113
  160LIG    HB1 2393   1.041   3.213   4.656  1.1237 -1.2812  1.4814
  160LIG    HB2 2394   1.098   3.355   4.558  1.8250  0.1746 -1.8183
  160LIG     CG 2395   1.161   3.339   4.769  0.9768 -0.1029  0.5882
  160LIG    OD1 2396   1.073   3.355   4.858  0.1658  0.0204 -0.0480
  160LIG    OD2 2397   1.276   3.383   4.786 -0.4629 -0.4788  0.3965
  160LIG      C 2398   1.267   3.068   4.653 -0.2303 -0.1895 -0.3664
  160LIG    OT1 2399   1.257   2.957   4.590  0.0184  0.3350  0.1440
  160LIG    OT2 2400   1.292   3.072   4.774 -0.2015 -0.8390 -0.4523
  161LIG      N 2401   3.375   1.487   3.004  0.3211  0.4425 -0.1359
  161LIG     H1 2402   3.367   1.513   3.104 -0.9798 -0.5683  0.0490
  161LIG     H2 2403   3.276   1.469   2.978 -0.0340 -0.6143  1.7636
  161LIG     H3 2404   3.434   1.401   2.996  1.7219  1.3347  0.1463
  161LIG     CA 2405   3.423   1.604   2.933  0.6865 -0.3625  0.5045
  161LIG     HA 2406   3.516   1.642   2.973  0.7997 -1.5023  1.3898
  161LIG     CB 2407   3.456   1.567   2.782  0.3086 -0.1413 -0.1426
  161LIG    HB1 2408   3.364   1.565   2.720  2.2305 -2.2660 -3.2607
  161LIG    HB2 2409   3.511   1.470   2.784  1.1703  0.2703 -1.7817
  161LIG     CG 2410   3.563   1.658   2.716  0.8021  0.4793  0.1123
  161LIG    OD1 2411   3.556   1.697   2.599 -0.1822 -0.2177  0.8417
  161LIG    OD2 2412   3.665   1.672   2.786 -0.0924 -0.0368 -0.1173
  161LIG      C 2413   3.343   1.736   2.943  0.5388  0.2766  0.3711
  161LIG    OT1 2414   3.239   1.738   3.013  0.0241  0.2513  0.4072
  161LIG    OT2 2415   3.373   1.843   2.890 -0.3597 -0.1485 -0.3613
  162LIG      N 2416   5.830   8.884   4.889  0.4812 -0.2419  0.0764
  162LIG     H1 2417   5.806   8.783   4.894 -0.1743 -0.0690  0.4985
  162LIG     H2 2418   5.749   8.932   4.932  1.5445  2.1070 -0.3454
  162LIG     H3 2419   5.839   8.911   4.788  1.1746  2.3099  0.7408
  162LIG     CA 2420   5.949   8.923   4.966  0.0406 -0.8500 -0.0990
  162LIG     HA 2421   5.962   9.029   4.948 -2.1578 -0.9024 -2.7916
  162LIG     CB 2422   5.899   8.906   5.110 -0.8874 -0.8967  0.5725
  162LIG    HB1 2423   5.868   8.802   5.134  0.1381 -1.4221 -0.2674
  162LIG    HB2 2424   5.810   8.969   5.128 -1.4828 -1.8817  1.1960
  162LIG     CG 2425   6.001   8.951   5.217 -0.2041 -0.4523  0.2510
  162LIG    OD1 2426   6.044   8.862   5.296 -0.0537 -0.6333 -0.0261
  162LIG    OD2 2427   6.033   9.072   5.214 -0.2963  0.8862 -0.1168
  162LIG      C 2428   6.077   8.847   4.927  0.8506  0.3564  0.2953
  162LIG    OT1 2429   6.061   8.748   4.848 -0.0731  0.2480  0.0299
  162LIG    OT2 2430   6.186   8.889   4.964 -0.8381  0.0000  0.5094
  163LIG      N 2431   6.633   8.848   0.347 -0.0272  0.6497 -0.5120
  163LIG     H1 2432   6.542   8.803   0.370  1.0709 -1.3142  0.2694
  163LIG     H2 2433   6.692   8.781   0.293  0.1788  0.3755  0.0388
  163LIG     H3 2434   6.673   8.875   0.440 -1.7304  0.3410  0.3511
  163LIG     CA 2435   6.609   8.967   0.263 -0.2579 -0.9296  0.5640
  163LIG     HA 2436   6.707   9.008   0.244 -1.2196  0.5756 -1.5746
  163LIG     CB 2437   6.560   8.927   0.116  0.1788 -0.5298 -0.9191
  163LIG    HB1 2438   6.449   8.921   0.117  0.2153 -1.1927 -0.7303
  163LIG    HB2 2439   6.607   8.833   0.081  5.0523  1.8647 -1.6633
  163LIG     CG 2440   6.588   9.036   0.014  0.0369 -0.4381  0.2512
  163LIG    OD1 2441   6.494   9.097  -0.037  0.3937 -0.4999 -0.5909
  163LIG    OD2 2442   6.701   9.053  -0.023 -0.0902 -0.3281 -0.3266
  163LIG      C 2443   6.506   9.068   0.331  0.1000  1.3058  0.3717
  163LIG    OT1 2444   6.446   9.021   0.428 -0.1679 -0.5643 -0.0807
  163LIG    OT2 2445   6.501   9.187   0.298 -0.2362 -0.2711  0.3746
  164LIG      N 2446   8.340   4.323   6.496  0.0771  0.8999 -0.7074
  164LIG     H1 2447   8.429   4.368   6.525  0.0518  2.4931 -2.8693
  164LIG     H2 2448   8.314   4.253   6.569 -0.9797 -0.0777 -1.9630
  164LIG     H3 2449   8.362   4.266   6.412 -0.2188  1.5052 -1.2028
  164LIG     CA 2450   8.239   4.431   6.465 -0.5984 -0.2538  0.0413
  164LIG     HA 2451   8.195   4.446   6.562 -0.4742  1.0509 -0.0911
  164LIG     CB 2452   8.322   4.552   6.423 -0.2537  0.0919  0.0643
  164LIG    HB1 2453   8.380   4.545   6.328  0.5122  0.1352  0.5227
  164LIG    HB2 2454   8.400   4.571   6.499  0.7454  0.1490 -0.9423
  164LIG     CG 2455   8.249   4.687   6.414  0.2609  0.2765 -0.4289
  164LIG    OD1 2456   8.288   4.767   6.321 -0.1373  0.9474 -0.1567
  164LIG    OD2 2457   8.173   4.730   6.505  0.2197  0.1492 -0.0216
  164LIG      C 2458   8.131   4.397   6.357 -0.3618  0.2721 -0.4097
  164LIG    OT1 2459   8.151   4.290   6.299 -0.3844 -0.1258  0.1206
  164LIG    OT2 2460   8.035   4.475   6.334  0.0403 -0.2324 -0.2605
  165LIG      N 2461   8.113   3.734   1.429 -0.2819 -0.1295 -0.5120
  165LIG     H1 2462   8.122   3.743   1.326 -2.0156 -2.8039 -0.9843
  165LIG     H2 2463   8.078   3.828   1.455  1.3453 -0.1969  2.3786
  165LIG     H3 2464   8.207   3.730   1.473 -0.8636  1.8057  1.0520
  165LIG     CA 2465   8.003   3.629   1.471 -0.5466 -1.0545  0.1464
  165LIG     HA 2466   8.051   3.534   1.485  1.1001 -0.0966  1.4020
  165LIG     CB 2467   7.959   3.673   1.612  0.1614 -0.1621 -0.5137
  165LIG    HB1 2468   7.896   3.765   1.609 -0.9064 -0.8947 -1.0854
  165LIG    HB2 2469   8.043   3.688   1.682 -1.0615  0.7247  0.8201
  165LIG     CG 2470   7.865   3.577   1.675  0.1473 -0.1881  0.1513
  165LIG    OD1 2471   7.746   3.612   1.698 -0.1696  0.2345 -0.4158
  165LIG    OD2 2472   7.916   3.471   1.720  0.6789 -0.2906 -0.8695
  165LIG      C 2473   7.895   3.622   1.350 -0.2821  0.4727 -0.3824
  165LIG    OT1 2474   7.895   3.705   1.258  0.3253 -0.0872  0.0503
  165LIG    OT2 2475   7.805   3.531   1.360 -0.2478  0.2643  0.4423
  166LIG      N 2476   8.451   6.933   4.558 -0.0204 -0.1228 -0.0179
  166LIG     H1 2477   8.523   6.993   4.602 -0.4081 -1.0266  1.9562
  166LIG     H2 2478   8.484   6.835   4.569  1.7379  0.3795 -0.5769
  166LIG     H3 2479   8.427   6.959   4.460 -2.6987 -3.1185 -0.3073
  166LIG     CA 2480   8.327   6.947   4.638 -0.4462 -0.0907  0.3807
  166LIG     HA 2481   8.273   6.862   4.600  0.2672  0.5573 -2.2326
  166LIG     CB 2482   8.374   6.941   4.787  0.8350 -0.0595 -0.0672
  166LIG    HB1 2483   8.425   7.033   4.822  1.7929 -1.5694  2.7867
  166LIG    HB2 2484   8.460   6.873   4.799  2.4389  1.7316 -0.8716
  166LIG     CG 2485   8.259   6.902   4.869 -0.3439  0.8137  0.1242
  166LIG    OD1 2486   8.194   6.997   4.922 -0.0785 -0.6956 -0.4558
  166LIG    OD2 2487   8.233   6.782   4.884 -0.9172  0.3777 -0.0817
  166LIG      C 2488   8.252   7.080   4.611  0.0098 -1.1236  0.4328
  166LIG    OT1 2489   8.305   7.179   4.555  0.4428  0.2666  0.3185
  166LIG    OT2 2490   8.132   7.079   4.641  0.7229 -0.7176  0.0145
  167LIG      N 2491   3.800   9.425   9.077  0.3797  0.1402 -0.0307
  167LIG     H1 2492   3.756   9.433   8.983  0.7343  0.1109 -0.2015
  167LIG     H2 2493   3.745   9.351   9.124 -0.9617 -0.0428 -1.7971
  167LIG     H3 2494   3.768   9.504   9.136  0.8132 -0.1437  0.5917
  167LIG     CA 2495   3.937   9.406   9.073 -0.2637 -0.1610  0.3853
  167LIG     HA 2496   3.970   9.500   9.031 -0.0949  1.0071  2.9275
  167LIG     CB 2497   3.992   9.387   9.218 -0.1681 -0.8360  0.7481
  167LIG    HB1 2498   3.949   9.303   9.277 -0.9269  0.3904  2.0227
  167LIG    HB2 2499   3.960   9.481   9.269  0.1736  0.2112 -0.9045
  167LIG     CG 2500   4.145   9.385   9.224 -0.0440 -0.0272 -0.6909
  167LIG    OD1 2501   4.206   9.300   9.294 -0.4659 -0.4976  0.0348
  167LIG    OD2 2502   4.205   9.483   9.173  0.0193 -0.2736  0.4264
  167LIG      C 2503   3.978   9.286   8.981 -0.2616 -0.3631 -0.6287
  167LIG    OT1 2504   3.886   9.209   8.941  0.2515  0.1724 -0.3245
  167LIG    OT2 2505   4.095   9.268   8.949 -0.5124  0.4993  0.1262
  168LIG      N 2506   2.596   1.744   8.584 -0.3668  0.0544  0.2139
  168LIG     H1 2507   2.498   1.774   8.567 -0.5413  1.0576  2.6527
  168LIG     H2 2508   2.590   1.646   8.620 -0.9181 -0.3412 -0.9028
  168LIG     H3 2509   2.632   1.810   8.655 -1.3696  2.1440 -1.1257
  168LIG     CA 2510   2.665   1.767   8.456  0.1768  0.5111 -0.1873
  168LIG     HA 2511   2.770   1.774   8.482  0.9803 -0.6018 -2.7779
  168LIG     CB 2512   2.643   1.640   8.365 -0.4640 -0.3050  0.3009
  168LIG    HB1 2513   2.542   1.658   8.321 -0.4631 -0.0084  0.4194
  168LIG    HB2 2514   2.651   1.548   8.426  1.2544 -0.7131 -0.4693
  168LIG     CG 2515   2.752   1.630   8.259 -0.5010 -0.3676  0.2759
  168LIG    OD1 2516   2.713   1.617   8.138  0.1485  0.8190 -0.1477
  168LIG    OD2 2517   2.870   1.644   8.288  0.1029 -0.4221  0.1868
  168LIG      C 2518   2.629   1.905   8.379 -0.8679  0.1560 -0.1922
  168LIG    OT1 2519   2.542   1.981   8.425  0.4187 -0.2719  0.0840
  168LIG    OT2 2520   2.689   1.937   8.273  0.3876  0.0870 -0.4222
  169LIG      N 2521   9.160   7.440   2.071  0.4562 -0.0623  0.2744
  169LIG     H1 2522   9.149   7.383   1.984 -1.0424  1.1461 -0.3956
  169LIG     H2 2523   9.205   7.528   2.039  0.6787 -0.1016  0.4843
  169LIG     H3 2524   9.213   7.379   2.135  0.5938  1.3029  1.5191
  169LIG     CA 2525   9.024   7.481   2.114 -0.2893  0.2787  0.7481
  169LIG     HA 2526   8.979   7.390   2.150  0.0179  0.1564  0.8237
  169LIG     CB 2527   9.055   7.574   2.237 -0.3730 -0.1661  0.2683
  169LIG    HB1 2528   9.094   7.669   2.193 -2.1811  0.1905 -0.6505
  169LIG    HB2 2529   9.137   7.542   2.305 -0.2954 -0.5207  0.0025
  169LIG     CG 2530   8.933   7.613   2.323 -0.2988 -0.3001  0.1967
  169LIG    OD1 2531   8.919   7.734   2.354  0.1308  0.1693 -0.0262
  169LIG    OD2 2532   8.857   7.522   2.368 -0.0905  0.1196 -1.0682
  169LIG      C 2533   8.936   7.538   2.008  0.1581 -1.1973  0.1508
  169LIG    OT1 2534   8.980   7.582   1.896  0.3020 -0.0381 -0.3627
  169LIG    OT2 2535   8.813   7.544   2.029 -0.2812 -0.5434  0.3047
  170LIG      N 2536   7.199   8.136   9.580 -0.2961  0.4891  0.1473
  170LIG     H1 2537   7.186   8.040   9.618 -2.9199  1.1203  1.0491
  170LIG     H2 2538   7.249   8.136   9.488  1.6993  0.8877  1.1773
  170LIG     H3 2539   7.267   8.189   9.638 -0.5120  0.6814  0.2253
  170LIG     CA 2540   7.072   8.218   9.584 -0.1715  0.2414  0.5195
  170LIG     HA 2541   6.994   8.153   9.547 -1.1398 -0.1093  2.9735
  170LIG     CB 2542   7.046   8.259   9.729 -0.6218 -0.5440  0.1138
  170LIG    HB1 2543   7.089   8.358   9.756  0.8073 -0.5549 -1.9680
  170LIG    HB2 2544   7.069   8.181   9.805 -1.0027 -0.6859  0.0866
  170LIG     CG 2545   6.895   8.274   9.734 -0.4258 -0.4180  0.4037
  170LIG    OD1 2546   6.844   8.369   9.803 -0.6106  0.5588 -0.4656
  170LIG    OD2 2547   6.821   8.185   9.680  0.1399 -0.5290  0.1142
  170LIG      C 2548   7.090   8.349   9.501 -0.0998 -0.2498 -0.4317
  170LIG    OT1 2549   7.200   8.365   9.443 -0.2190  0.0975  0.5021
  170LIG    OT2 2550   6.991   8.419   9.473  0.5209  0.7327 -0.0240
  171LIG      N 2551   5.774   3.454   0.275 -0.4709 -0.2007  0.2882
  171LIG     H1 2552   5.772   3.470   0.378  0.3408  0.3411  0.2361
  171LIG     H2 2553   5.870   3.426   0.245 -0.7629 -0.8480 -0.0467
  171LIG     H3 2554   5.751   3.548   0.238 -2.6099 -0.5411  0.6461
  171LIG     CA 2555   5.675   3.345   0.242 -0.4478 -0.1143 -0.0753
  171LIG     HA 2556   5.585   3.400   0.218 -0.8135 -0.2887  0.8621
  171LIG     CB 2557   5.728   3.268   0.126  0.2437 -0.3483 -0.0146
  171LIG    HB1 2558   5.827   3.217   0.126  0.0599 -0.7587 -1.6333
  171LIG    HB2 2559   5.756   3.353   0.061  1.5433 -0.3444  0.5237
  171LIG     CG 2560   5.620   3.198   0.042 -0.8027  0.0267  0.8633
  171LIG    OD1 2561   5.641   3.078   0.008  0.4437  0.1190 -0.3666
  171LIG    OD2 2562   5.508   3.252   0.014  0.5055 -0.3931 -0.2654
  171LIG      C 2563   5.651   3.243   0.358  0.3388  0.9410  0.7057
  171LIG    OT1 2564   5.718   3.243   0.461  0.0826  0.5953 -0.0325
  171LIG    OT2 2565   5.553   3.163   0.336 -0.2410 -0.7284 -0.5982
  172LIG      N 2566   2.085   5.533   9.535  0.0682 -0.0159  0.2956
  172LIG     H1 2567   2.166   5.553   9.596  2.3139  0.0470 -2.5123
  172LIG     H2 2568   2.001   5.530   9.596  0.3430 -0.8303  0.6536
  172LIG     H3 2569   2.091   5.438   9.493  0.0852 -0.2165  0.7392
  172LIG     CA 2570   2.069   5.633   9.425 -0.2697  0.4913  0.0266
  172LIG     HA 2571   1.978   5.608   9.372  0.7317 -0.6118 -1.2447
  172LIG     CB 2572   2.059   5.776   9.483 -0.9552 -0.1914  0.1546
  172LIG    HB1 2573   2.160   5.800   9.520 -1.0095  0.1268  0.0995
  172LIG    HB2 2574   1.979   5.771   9.560 -2.4221 -1.6290 -1.3424
  172LIG     CG 2575   2.021   5.869   9.370  0.1550 -0.1046  0.4528
  172LIG    OD1 2576   2.088   5.977   9.364 -0.4789 -0.3483  0.1581
  172LIG    OD2 2577   1.919   5.847   9.300 -0.0707  0.1474  0.4865
  172LIG      C 2578   2.184   5.613   9.311  0.3000 -0.4314 -0.4836
  172LIG    OT1 2579   2.273   5.529   9.338 -0.2167  0.0007 -0.0520
  172LIG    OT2 2580   2.180   5.669   9.203 -0.3178 -0.2523  0.0236
  173LIG      N 2581   8.653   2.884   9.848  0.3297 -0.2306 -0.2435
  173LIG     H1 2582   8.744   2.893   9.799  0.1816 -0.7553 -0.6241
  173LIG     H2 2583   8.627   2.974   9.894 -0.3176 -0.9287  0.8057
  173LIG     H3 2584   8.666   2.816   9.925 -1.9550 -1.1016 -0.5759
  173LIG     CA 2585   8.551   2.835   9.760  0.6837 -0.0515 -0.3790
  173LIG     HA 2586   8.459   2.878   9.796 -0.4951 -1.6729 -1.2736
  173LIG     CB 2587   8.585   2.899   9.622 -0.0873  0.1453  1.0687
  173LIG    HB1 2588   8.675   2.862   9.568  0.2757  0.6639  1.3082
  173LIG    HB2 2589   8.602   3.008   9.637  0.3882  0.2659 -0.2194
  173LIG     CG 2590   8.469   2.899   9.521  0.3506 -1.2926 -1.0192
  173LIG    OD1 2591   8.503   2.859   9.407 -0.0038  0.3117 -0.2268
  173LIG    OD2 2592   8.358   2.939   9.545  0.1648 -0.1408 -0.4370
  173LIG      C 2593   8.545   2.673   9.754 -0.4566 -0.3162 -0.2375
  173LIG    OT1 2594   8.628   2.601   9.813 -0.1795  0.0889 -0.3813
  173LIG    OT2 2595   8.449   2.621   9.689 -0.0316 -0.5465  0.2546
  174LIG      N 2596   4.571   7.971   6.846  0.4414 -0.6790 -0.1817
  174LIG     H1 2597   4.645   7.964   6.774  1.6249  0.7637  0.8373
  174LIG     H2 2598   4.489   7.983   6.783  0.6632 -1.4722 -0.6289
  174LIG     H3 2599   4.589   8.061   6.896  1.0135 -0.8454 -0.0807
  174LIG     CA 2600   4.571   7.846   6.922  0.0306  0.5088 -0.2147
  174LIG     HA 2601   4.653   7.853   6.992 -0.0434  3.2080 -0.3043
  174LIG     CB 2602   4.440   7.844   7.005 -0.0188 -0.0830  0.0545
  174LIG    HB1 2603   4.355   7.810   6.943  0.7962 -0.0172 -1.1323
  174LIG    HB2 2604   4.404   7.946   7.032 -2.0192 -0.5299 -0.7778
  174LIG     CG 2605   4.448   7.767   7.132 -0.4620  0.3652 -0.2617
  174LIG    OD1 2606   4.348   7.704   7.173  0.0501 -0.2779  0.7952
  174LIG    OD2 2607   4.555   7.781   7.202  0.1086 -0.3927  0.0012
  174LIG      C 2608   4.598   7.714   6.841  0.1893 -0.3011 -0.6220
  174LIG    OT1 2609   4.619   7.723   6.720 -0.4044  0.0599  0.5019
  174LIG    OT2 2610   4.591   7.605   6.908 -0.5830  0.0073  0.0528
  175LIG      N 2611   5.937   8.601   8.223  0.0084 -0.7823 -0.2132
  175LIG     H1 2612   6.008   8.530   8.245 -0.8878 -1.5488  0.2785
  175LIG     H2 2613   5.877   8.614   8.307  0.6047 -0.0767  0.1154
  175LIG     H3 2614   5.878   8.573   8.142  4.0087 -3.1899 -2.5802
  175LIG     CA 2615   5.997   8.740   8.204 -0.1498  0.5920 -0.3670
  175LIG     HA 2616   6.049   8.761   8.296  2.8354 -0.3168 -1.7232
  175LIG     CB 2617   6.094   8.727   8.078  0.0822 -0.3462 -0.6842
  175LIG    HB1 2618   6.028   8.709   7.990 -0.0939  1.6642 -1.0180
  175LIG    HB2 2619   6.165   8.644   8.098 -0.5251 -0.5340  0.8229
  175LIG     CG 2620   6.185   8.837   8.050 -0.0277  0.3355  0.2622
  175LIG    OD1 2621   6.212   8.853   7.925  0.1837 -0.4327 -0.2701
  175LIG    OD2 2622   6.235   8.916   8.136  0.1685 -0.4978 -0.2639
  175LIG      C 2623   5.884   8.841   8.175  0.1340 -0.2884 -0.3971
  175LIG    OT1 2624   5.764   8.798   8.170 -0.2965  0.0439  0.1225
  175LIG    OT2 2625   5.906   8.965   8.152 -0.4061 -0.0929  0.4254
  176LIG      N 2626   1.667   0.190   8.229 -0.0066  0.6449 -0.4649
  176LIG     H1 2627   1.565   0.170   8.235 -0.2518  1.2925 -2.0908
  176LIG     H2 2628   1.698   0.267   8.291 -0.7402  2.1359 -1.8778
  176LIG     H3 2629   1.705   0.220   8.138  0.2673  0.0372 -0.5553
  176LIG     CA 2630   1.731   0.062   8.270 -0.4212  0.4050 -0.4071
  176LIG     HA 2631   1.833   0.096   8.274 -0.6197  0.9547  0.1565
  176LIG     CB 2632   1.672   0.037   8.413  0.1259  0.4078  0.1919
  176LIG    HB1 2633   1.573  -0.012   8.409 -0.9185  2.4923 -1.5659
  176LIG    HB2 2634   1.663   0.138   8.460 -0.0897  0.7724 -0.6248
  176LIG     CG 2635   1.753  -0.054   8.502  0.8308  0.3900 -0.1675
  176LIG    OD1 2636   1.696  -0.151   8.557  0.3163 -0.5027  0.0374
  176LIG    OD2 2637   1.874  -0.032   8.525  0.1423 -0.4209 -0.4621
  176LIG      C 2638   1.726  -0.074   8.194  0.0443 -0.1666  0.4728
  176LIG    OT1 2639   1.652  -0.089   8.091 -0.0476 -0.4701 -0.6299
  176LIG    OT2 2640   1.794  -0.172   8.224  0.1668  0.6620 -0.5158
  177LIG      N 2641   4.839   0.626   9.579 -0.0531  0.5681 -0.1775
  177LIG     H1 2642   4.806   0.544   9.633  0.2815  0.7521  0.3144
  177LIG     H2 2643   4.779   0.710   9.598  0.5595  0.6828  1.4280
  177LIG     H3 2644   4.826   0.604   9.479  1.2322  2.9380 -0.9565
  177LIG     CA 2645   4.976   0.647   9.620  0.0339 -0.0612 -0.0378
  177LIG     HA 2646   5.008   0.732   9.561 -1.5397  0.3262 -0.3897
  177LIG     CB 2647   4.987   0.654   9.776  0.3860 -0.7924 -0.0624
  177LIG    HB1 2648   4.988   0.555   9.826  0.3949  0.2814  2.2197
  177LIG    HB2 2649   4.895   0.700   9.819  0.0741 -1.1524 -0.3362
  177LIG     CG 2650   5.107   0.745   9.822 -0.2140  0.4196 -0.0907
  177LIG    OD1 2651   5.164   0.712   9.927 -0.4821  0.3907  0.1363
  177LIG    OD2 2652   5.130   0.850   9.755 -0.1029  0.0014 -0.3270
  177LIG      C 2653   5.072   0.542   9.569  0.0076  0.1969  1.3190
  177LIG    OT1 2654   5.024   0.461   9.483 -0.3009 -0.3527  0.5825
  177LIG    OT2 2655   5.190   0.536   9.619 -0.3394 -0.2833 -0.0635
  178LIG      N 2656   8.244   9.395   7.045 -0.2646  0.5387  0.4029
  178LIG     H1 2657   8.208   9.442   7.130  1.6064  2.9017 -0.0152
  178LIG     H2 2658   8.255   9.473   6.977 -1.4762 -0.2415 -0.7364
  178LIG     H3 2659   8.174   9.328   7.007 -0.5364  0.2232  1.4382
  178LIG     CA 2660   8.362   9.321   7.076 -0.4199  0.1514 -0.3050
  178LIG     HA 2661   8.434   9.389   7.117 -1.4892  1.4564 -0.5182
  178LIG     CB 2662   8.314   9.217   7.189 -0.6081 -0.4050  0.6721
  178LIG    HB1 2663   8.272   9.132   7.132 -1.7632 -0.2640  1.2941
  178LIG    HB2 2664   8.239   9.252   7.263  0.2926  0.1415  1.3660
  178LIG     CG 2665   8.427   9.158   7.269 -0.1329  0.3478 -0.1714
  178LIG    OD1 2666   8.443   9.035   7.275 -0.0005 -0.4215  0.3252
  178LIG    OD2 2667   8.507   9.239   7.320 -0.2436  0.5910 -0.3594
  178LIG      C 2668   8.428   9.248   6.963  1.0655 -0.1868  0.8968
  178LIG    OT1 2669   8.378   9.249   6.849 -0.6693 -0.1050  0.6010
  178LIG    OT2 2670   8.532   9.186   6.986  0.6478  0.1960  0.6130
  179LIG      N 2671   8.528   3.527   0.493 -0.3233 -0.0854 -0.0831
  179LIG     H1 2672   8.519   3.428   0.465 -2.0279  0.2272 -0.7845
  179LIG     H2 2673   8.582   3.543   0.581 -0.4757  0.9843 -0.1666
  179LIG     H3 2674   8.431   3.563   0.502  0.2489  1.0029  3.5327
  179LIG     CA 2675   8.605   3.604   0.387  0.4918  0.1912  0.6445
  179LIG     HA 2676   8.707   3.602   0.422  0.4226 -4.0128  1.1137
  179LIG     CB 2677   8.590   3.516   0.261  0.1203 -0.6414  0.1677
  179LIG    HB1 2678   8.485   3.527   0.227  0.6406 -2.2366 -2.2440
  179LIG    HB2 2679   8.613   3.409   0.279  0.5402 -0.6878 -0.6112
  179LIG     CG 2680   8.679   3.560   0.144  0.2319 -0.1340  0.0290
  179LIG    OD1 2681   8.630   3.573   0.028  0.1983  0.0386  0.3643
  179LIG    OD2 2682   8.805   3.574   0.167  0.3207 -0.3420  0.7619
  179LIG      C 2683   8.570   3.753   0.373  0.2340  0.0653 -0.4393
  179LIG    OT1 2684   8.481   3.810   0.445 -0.2288 -0.3869 -0.0627
  179LIG    OT2 2685   8.634   3.822   0.289  0.0762 -0.3342  0.0018
  180LIG      N 2686   7.867   7.000   8.960 -0.0792 -0.0087  0.0653
  180LIG     H1 2687   7.782   7.038   9.006  0.9840 -0.8908  2.9666
  180LIG     H2 2688   7.912   7.075   8.904 -2.8058  1.3259 -0.5121
  180LIG     H3 2689   7.834   6.938   8.884 -0.0132  0.2109 -0.1446
  180LIG     CA 2690   7.953   6.932   9.053  0.8071 -0.4602 -0.2175
  180LIG     HA 2691   7.966   6.827   9.030  2.9714 -0.0175 -1.2298
  180LIG     CB 2692   8.093   6.995   9.044 -0.1919 -0.2245  0.1476
  180LIG    HB1 2693   8.100   7.077   9.119  2.5545 -1.6475  1.5814
  180LIG    HB2 2694   8.124   7.045   8.950 -1.2387 -0.7401 -0.4987
  180LIG     CG 2695   8.189   6.891   9.090  0.1057 -0.8868  0.0830
  180LIG    OD1 2696   8.289   6.922   9.155  0.3458 -0.3222  0.3177
  180LIG    OD2 2697   8.175   6.772   9.043  0.3895  0.2630 -0.4338
  180LIG      C 2698   7.897   6.932   9.203  0.0553 -0.5182  0.2968
  180LIG    OT1 2699   7.794   6.992   9.236 -0.0782  0.3191  0.3694
  180LIG    OT2 2700   7.960   6.870   9.287 -0.1507 -0.1032 -0.2535
  181LIG      N 2701   0.998   1.948   0.450  0.4450  0.2005  0.0836
  181LIG     H1 2702   1.011   1.991   0.356 -0.1826 -0.0741 -0.1358
  181LIG     H2 2703   0.929   1.871   0.445  0.3454  0.3292 -0.7048
  181LIG     H3 2704   0.952   2.019   0.512  0.9572  1.7910 -1.2860
  181LIG     CA 2705   1.130   1.910   0.508 -0.5873 -0.3410 -0.5142
  181LIG     HA 2706   1.181   2.004   0.527 -1.2146 -0.7408  4.8950
  181LIG     CB 2707   1.109   1.857   0.652  0.5265  0.0485 -0.3932
  181LIG    HB1 2708   1.080   1.750   0.641  1.6429 -0.4100  0.8632
  181LIG    HB2 2709   1.031   1.921   0.699  0.7507  0.2520 -0.3004
  181LIG     CG 2710   1.237   1.865   0.745  0.2670 -0.4344  0.1157
  181LIG    OD1 2711   1.269   1.764   0.810 -0.0573  0.1550 -0.4416
  181LIG    OD2 2712   1.307   1.972   0.755 -0.5969  0.0385 -0.3774
  181LIG      C 2713   1.230   1.818   0.423  0.3414 -1.3161  0.1649
  181LIG    OT1 2714   1.193   1.783   0.310 -0.2683 -0.2100 -0.3693
  181LIG    OT2 2715   1.335   1.767   0.474 -0.6855  0.8746  0.1127
  182LIG      N 2716   0.798   1.403   4.750  0.1223 -0.4517  0.0072
  182LIG     H1 2717   0.820   1.452   4.839 -1.3814 -1.2981  0.8878
  182LIG     H2 2718   0.834   1.308   4.771  1.3343  0.2853  1.4653
  182LIG     H3 2719   0.859   1.440   4.675 -2.8604  0.8268 -2.0014
  182LIG     CA 2720   0.652   1.413   4.718  0.5583 -0.6843 -0.5326
  182LIG     HA 2721   0.612   1.508   4.750 -0.1060 -0.8072 -0.9552
  182LIG     CB 2722   0.645   1.403   4.561  0.5425 -0.6492 -0.1329
  182LIG    HB1 2723   0.687   1.308   4.521  0.4249 -0.7559 -0.0012
  182LIG    HB2 2724   0.716   1.477   4.518 -1.0728  1.5796  0.8256
  182LIG     CG 2725   0.513   1.442   4.506  0.3101  0.2738 -0.9345
  182LIG    OD1 2726   0.453   1.371   4.421 -0.2802 -0.0133 -0.4240
  182LIG    OD2 2727   0.481   1.558   4.533 -0.2201 -0.0399 -0.4516
  182LIG      C 2728   0.575   1.307   4.793  0.2822 -0.2434 -0.1333
  182LIG    OT1 2729   0.631   1.208   4.844  0.4899 -0.0539  1.2890
  182LIG    OT2 2730   0.453   1.331   4.818 -0.0147 -0.5933  0.2755
  183LIG      N 2731   8.153   5.625   4.924 -0.8559 -0.3383 -0.2190
  183LIG     H1 2732   8.092   5.544   4.902 -0.1008 -0.9544 -0.0923
  183LIG     H2 2733   8.116   5.653   5.017  1.1082 -0.8211  0.7695
  183LIG     H3 2734   8.134   5.697   4.852  0.7214  0.5918  0.2580
  183LIG     CA 2735   8.301   5.607   4.936  1.0566 -0.0731  0.5339
  183LIG     HA 2736   8.355   5.691   4.977 -0.4398  1.7473 -1.0107
  183LIG     CB 2737   8.319   5.501   5.047  0.9083  0.3341  1.0348
  183LIG    HB1 2738   8.323   5.396   5.013  0.0419 -0.4212  3.0996
  183LIG    HB2 2739   8.249   5.519   5.131  0.5201  0.2168  0.7363
  183LIG     CG 2740   8.462   5.517   5.101 -0.6750  0.4409  0.0078
  183LIG    OD1 2741   8.536   5.417   5.096 -0.3812 -0.3382 -0.2496
  183LIG    OD2 2742   8.495   5.627   5.159  0.3163  1.1948 -0.7759
  183LIG      C 2743   8.370   5.555   4.803  0.2519  0.2971 -0.5810
  183LIG    OT1 2744   8.298   5.531   4.707  0.0026  0.4669 -0.2036
  183LIG    OT2 2745   8.493   5.536   4.791 -0.2118 -0.4804 -0.0964
  184LIG      N 2746   6.658   1.530   3.802  1.0624 -0.3457  0.0836
  184LIG     H1 2747   6.682   1.593   3.881  3.2048 -1.5300  0.4565
  184LIG     H2 2748   6.709   1.559   3.716 -0.1493  2.2571  0.1665
  184LIG     H3 2749   6.556   1.526   3.781  0.9758 -1.5171  0.6457
  184LIG     CA 2750   6.704   1.403   3.850 -0.0442 -0.0617 -0.9491
  184LIG     HA 2751   6.673   1.338   3.769 -0.8237 -1.2776  0.2895
  184LIG     CB 2752   6.864   1.422   3.866  0.4291  0.2054 -0.6322
  184LIG    HB1 2753   6.890   1.471   3.963  1.1596 -0.6096 -0.4065
  184LIG    HB2 2754   6.901   1.486   3.783 -0.4082  2.4822  0.6478
  184LIG     CG 2755   6.932   1.288   3.871  0.9963 -0.0091 -0.1254
  184LIG    OD1 2756   7.007   1.255   3.968  0.2292  0.4342 -0.0258
  184LIG    OD2 2757   6.918   1.220   3.765 -0.0383  0.0104  0.0926
  184LIG      C 2758   6.636   1.347   3.981 -0.0206 -0.3584  0.2945
  184LIG    OT1 2759   6.557   1.422   4.043  0.0401 -0.2249 -0.1521
  184LIG    OT2 2760   6.671   1.234   4.027  0.6620  0.0464  0.5059
  185LIG      N 2761   7.953   5.203   2.518 -0.1414 -0.4285 -0.1315
  185LIG     H1 2762   7.918   5.241   2.428 -1.8348  1.4623  1.2183
  185LIG     H2 2763   8.042   5.155   2.497  0.2204  0.3171 -0.3048
  185LIG     H3 2764   7.881   5.136   2.554 -1.1730  1.2670  1.1692
  185LIG     CA 2765   7.975   5.314   2.613  0.5729 -0.4751  0.8537
  185LIG     HA 2766   8.064   5.368   2.584 -0.4345  1.5028  1.2687
  185LIG     CB 2767   7.845   5.411   2.597 -0.1260 -0.8724 -0.9552
  185LIG    HB1 2768   7.768   5.356   2.655 -0.0371  0.6152  0.6742
  185LIG    HB2 2769   7.826   5.437   2.491  0.1654  0.2492 -0.7479
  185LIG     CG 2770   7.866   5.546   2.660 -0.4204 -0.7842  0.1218
  185LIG    OD1 2771   7.775   5.610   2.717 -0.1089  0.4263 -0.2578
  185LIG    OD2 2772   7.983   5.597   2.654 -0.6793  0.9746  0.4152
  185LIG      C 2773   7.969   5.263   2.759 -0.2405 -0.2003 -0.5441
  185LIG    OT1 2774   7.941   5.142   2.780  0.4352  0.4807  0.7027
  185LIG    OT2 2775   7.990   5.339   2.861  0.3947 -0.3575  0.6051
  186LIG      N 2776   9.851   7.632   7.074  0.7095 -0.1217 -0.2935
  186LIG     H1 2777   9.941   7.677   7.102  2.2077 -1.7954 -2.1006
  186LIG     H2 2778   9.821   7.567   7.149 -0.0378  0.8879  0.3117
  186LIG     H3 2779   9.876   7.577   6.989 -1.5706 -0.0872 -1.0480
  186LIG     CA 2780   9.752   7.739   7.055  0.0771 -0.3003 -0.5441
  186LIG     HA 2781   9.670   7.707   6.993 -1.4556  2.1448  0.1050
  186LIG     CB 2782   9.699   7.779   7.193  0.3614  0.1638  0.2833
  186LIG    HB1 2783   9.759   7.853   7.251  1.4164 -1.6319  1.6214
  186LIG    HB2 2784   9.690   7.690   7.259 -0.1797  0.3330  0.4432
  186LIG     CG 2785   9.555   7.830   7.177 -0.0218  0.6037 -0.4862
  186LIG    OD1 2786   9.520   7.935   7.234  0.1791 -0.2230 -0.0129
  186LIG    OD2 2787   9.472   7.760   7.112 -1.1691  0.0875  0.0860
  186LIG      C 2788   9.818   7.869   6.992 -0.0288  0.2372  0.5759
  186LIG    OT1 2789   9.936   7.870   6.957  0.3538  0.2954 -0.7298
  186LIG    OT2 2790   9.741   7.969   6.979  0.2791  0.1800  0.0729
  187LIG      N 2791   4.722   9.805   6.071  0.1960  0.1101 -0.5162
  187LIG     H1 2792   4.691   9.710   6.041  0.5310 -0.5392  1.0868
  187LIG     H2 2793   4.771   9.799   6.162 -1.2787 -0.4287  0.2723
  187LIG     H3 2794   4.636   9.862   6.083  0.7165  0.8824 -0.4073
  187LIG     CA 2795   4.812   9.871   5.966 -0.2439  0.2745 -0.3889
  187LIG     HA 2796   4.889   9.798   5.949 -0.8449  0.1179 -2.7974
  187LIG     CB 2797   4.730   9.878   5.838  0.5973 -0.2604  0.2655
  187LIG    HB1 2798   4.654   9.958   5.846 -0.3306 -1.2697  2.4561
  187LIG    HB2 2799   4.664   9.791   5.820  1.5417 -0.9408 -0.0208
  187LIG     CG 2800   4.811   9.906   5.720 -0.0316  0.3199  0.7168
  187LIG    OD1 2801   4.797  10.017   5.663 -0.1408  0.0714 -0.7615
  187LIG    OD2 2802   4.892   9.820   5.684  0.1500 -0.2250 -0.0057
  187LIG      C 2803   4.862  10.012   5.996  0.4888 -0.2832 -0.0452
  187LIG    OT1 2804   4.815  10.080   6.093  0.3162  0.2461 -0.4030
  187LIG    OT2 2805   4.951  10.060   5.926  0.3633 -0.3206  0.5794
  188LIG      N 2806   8.507   5.633   9.013  0.5270 -0.3406 -0.2488
  188LIG     H1 2807   8.441   5.711   8.994  2.1168  0.6842 -1.8092
  188LIG     H2 2808   8.599   5.672   9.042  2.2786 -3.5177 -1.1319
  188LIG     H3 2809   8.520   5.578   8.926  1.4653 -0.6180  0.0590
  188LIG     CA 2810   8.459   5.540   9.119  1.1711  0.6924  0.7679
  188LIG     HA 2811   8.531   5.460   9.128 -0.2407 -0.6956  0.3038
  188LIG     CB 2812   8.448   5.616   9.253  0.2708 -0.7578 -0.1987
  188LIG    HB1 2813   8.359   5.682   9.267 -0.3601 -1.2859 -1.5297
  188LIG    HB2 2814   8.545   5.668   9.266 -0.8265  1.1435  0.8536
  188LIG     CG 2815   8.452   5.515   9.366  1.3204 -0.4313 -0.3685
  188LIG    OD1 2816   8.382   5.554   9.467 -0.2017  0.2300 -0.3260
  188LIG    OD2 2817   8.534   5.422   9.365  0.1090 -0.1713  0.0711
  188LIG      C 2818   8.316   5.476   9.074  0.0080  0.3220 -0.6860
  188LIG    OT1 2819   8.254   5.511   8.973 -0.4163 -0.1888  0.9314
  188LIG    OT2 2820   8.266   5.386   9.156 -0.2202 -0.0216 -0.1316
  189LIG      N 2821   1.696   2.608   2.958  0.3168  0.4789 -0.0857
  189LIG     H1 2822   1.701   2.711   2.952  0.2635  0.4666 -0.3365
  189LIG     H2 2823   1.675   2.583   3.057 -0.9861 -1.6731 -0.8335
  189LIG     H3 2824   1.785   2.558   2.937  0.2683 -0.8309  2.4100
  189LIG     CA 2825   1.595   2.544   2.867 -0.0448  0.4140  0.5223
  189LIG     HA 2826   1.505   2.545   2.927 -1.9240 -0.8229 -2.1051
  189LIG     CB 2827   1.580   2.620   2.729 -0.8706 -0.5619 -0.2657
  189LIG    HB1 2828   1.667   2.616   2.660 -0.0601  1.4645  0.5577
  189LIG    HB2 2829   1.578   2.727   2.758 -2.2227 -0.0658 -2.0211
  189LIG     CG 2830   1.456   2.590   2.651 -0.5923  0.6029 -0.1947
  189LIG    OD1 2831   1.455   2.558   2.527  0.1166  0.1911 -0.5793
  189LIG    OD2 2832   1.353   2.613   2.718 -0.1905  0.3881 -0.2410
  189LIG      C 2833   1.629   2.396   2.843 -0.4592 -0.6936 -0.5586
  189LIG    OT1 2834   1.729   2.340   2.897  0.0497 -0.2200 -0.6822
  189LIG    OT2 2835   1.553   2.329   2.770  0.1259  0.6156 -0.0859
  190LIG      N 2836   8.762   1.099   0.201 -0.2566  0.4522  0.0539
  190LIG     H1 2837   8.730   1.150   0.286  1.0538  0.6098  0.4639
  190LIG     H2 2838   8.841   1.153   0.159  0.0748  0.1759  0.3194
  190LIG     H3 2839   8.678   1.108   0.140 -4.0200  0.0555  4.5515
  190LIG     CA 2840   8.815   0.963   0.216 -0.2689 -0.8225  0.3488
  190LIG     HA 2841   8.724   0.909   0.238  0.0131 -1.6737 -0.5185
  190LIG     CB 2842   8.865   0.918   0.080 -0.3912 -0.5470 -0.6293
  190LIG    HB1 2843   8.969   0.955   0.066 -0.2630 -1.0754 -1.1062
  190LIG    HB2 2844   8.790   0.937   0.000 -1.3913  1.4044  0.6946
  190LIG     CG 2845   8.876   0.765   0.081 -0.0869  0.1259  0.1091
  190LIG    OD1 2846   8.981   0.722   0.027  0.7294  0.1096 -0.3450
  190LIG    OD2 2847   8.786   0.693   0.127  0.0156  0.0764  0.1039
  190LIG      C 2848   8.924   0.954   0.328  0.4474  0.8672  0.2688
  190LIG    OT1 2849   8.969   1.053   0.387  0.1827 -0.1927  0.3463
  190LIG    OT2 2850   8.974   0.842   0.355 -0.3561  0.5533  0.0635
  191LIG      N 2851   0.090   5.218   2.243  0.2673 -0.1466 -0.4797
  191LIG     H1 2852   0.130   5.260   2.156 -1.0710  2.0016 -0.1277
  191LIG     H2 2853   0.168   5.207   2.311 -0.9263  0.7697  1.0899
  191LIG     H3 2854   0.046   5.125   2.229  0.1442 -0.7117  2.8274
  191LIG     CA 2855  -0.012   5.298   2.305 -0.6676 -0.7974  0.6030
  191LIG     HA 2856   0.042   5.383   2.342  1.5054 -2.3122  1.0940
  191LIG     CB 2857  -0.112   5.351   2.207 -0.3983 -0.4332  0.3163
  191LIG    HB1 2858  -0.185   5.278   2.166 -1.2422  1.2149 -1.2242
  191LIG    HB2 2859  -0.062   5.392   2.117 -2.8834 -1.5188 -1.6780
  191LIG     CG 2860  -0.197   5.466   2.265 -0.1681  0.6618  0.0010
  191LIG    OD1 2861  -0.320   5.457   2.250  0.2853 -0.0994  0.1311
  191LIG    OD2 2862  -0.144   5.563   2.322 -0.2022 -0.2173 -0.1785
  191LIG      C 2863  -0.075   5.232   2.431 -0.0993 -0.1212  0.5423
  191LIG    OT1 2864  -0.042   5.114   2.463 -0.0694  0.0966 -0.5116
  191LIG    OT2 2865  -0.149   5.293   2.513  0.5355 -0.0740  0.2913
  192LIG      N 2866   1.115   2.261   5.623 -0.2107  0.0504  0.3109
  192LIG     H1 2867   1.100   2.230   5.525  1.7098 -1.3405  0.3932
  192LIG     H2 2868   1.078   2.358   5.624  1.6514  0.8116  0.1741
  192LIG     H3 2869   1.217   2.277   5.637 -0.4869  0.5021  2.0640
  192LIG     CA 2870   1.047   2.179   5.722 -0.4599  0.1480 -0.1529
  192LIG     HA 2871   1.059   2.075   5.695  2.2957 -0.6258  3.3172
  192LIG     CB 2872   1.110   2.203   5.866  0.2242  0.2363 -0.2077
  192LIG    HB1 2873   1.092   2.309   5.890 -1.4068  0.4562 -2.1280
  192LIG    HB2 2874   1.221   2.204   5.861  0.1970 -0.0617 -1.1455
  192LIG     CG 2875   1.063   2.103   5.978  0.2843 -0.0857  0.2515
  192LIG    OD1 2876   1.071   2.156   6.093 -0.7534 -0.5050 -0.0968
  192LIG    OD2 2877   1.046   1.980   5.951  0.0207  0.3331  0.5385
  192LIG      C 2878   0.895   2.210   5.727 -0.5094 -0.1191 -0.4306
  192LIG    OT1 2879   0.848   2.306   5.656 -0.0282  0.6910  0.0322
  192LIG    OT2 2880   0.825   2.138   5.794  0.2920  0.0166  0.6410
  193LIG      N 2881   7.943   2.838   0.100 -0.1110 -0.5525 -0.4622
  193LIG     H1 2882   7.958   2.851   0.202 -0.1798 -3.3409 -0.0213
  193LIG     H2 2883   8.018   2.880   0.041 -0.1948  3.9641  2.1969
  193LIG     H3 2884   7.859   2.898   0.084  1.4270  1.2620 -2.4697
  193LIG     CA 2885   7.933   2.690   0.092  0.0486 -0.9742 -0.3824
  193LIG     HA 2886   7.830   2.667   0.071 -0.3573  0.4990 -0.1204
  193LIG     CB 2887   8.027   2.642  -0.021  0.1026  0.2021  0.7109
  193LIG    HB1 2888   8.124   2.643   0.032 -1.4419  0.2475  3.7708
  193LIG    HB2 2889   8.009   2.708  -0.110  2.9212  1.4067  0.9356
  193LIG     CG 2890   8.002   2.496  -0.067  0.1619 -0.8745 -0.3205
  193LIG    OD1 2891   8.092   2.414  -0.082 -0.0761 -0.1107  0.0037
  193LIG    OD2 2892   7.881   2.472  -0.097  0.0050 -0.2584 -0.2930
  193LIG      C 2893   7.977   2.623   0.223 -0.8368 -0.3587 -0.2271
  193LIG    OT1 2894   8.002   2.700   0.318 -0.0758  0.0842 -0.2679
  193LIG    OT2 2895   7.982   2.498   0.239  0.1942  0.3578 -0.0536
  194LIG      N 2896   5.598   8.576   1.494 -0.1982 -0.0076  0.0676
  194LIG     H1 2897   5.543   8.492   1.465 -0.1491  0.5667 -1.7550
  194LIG     H2 2898   5.698   8.568   1.469  0.3156  3.1479  0.7166
  194LIG     H3 2899   5.596   8.571   1.598  0.3646 -0.6343  0.0574
  194LIG     CA 2900   5.542   8.699   1.443  0.3394  0.4790 -0.0788
  194LIG     HA 2901   5.436   8.686   1.454  0.1348  1.1151 -1.2373
  194LIG     CB 2902   5.618   8.811   1.533  0.5112 -0.5537 -0.4824
  194LIG    HB1 2903   5.706   8.847   1.476 -0.9047 -0.4734 -2.7538
  194LIG    HB2 2904   5.657   8.778   1.632 -0.2818  0.9044  0.3422
  194LIG     CG 2905   5.527   8.925   1.552  0.4314 -0.1935 -0.0762
  194LIG    OD1 2906   5.578   9.039   1.565 -0.7798 -0.2106  0.6078
  194LIG    OD2 2907   5.404   8.909   1.579 -0.3212  0.4033 -0.2270
  194LIG      C 2908   5.556   8.717   1.286  0.5723  0.2144 -0.5769
  194LIG    OT1 2909   5.619   8.638   1.210  0.0099  0.6991 -0.2640
  194LIG    OT2 2910   5.504   8.821   1.238 -0.4181  0.5207 -0.3556
  195LIG      N 2911   9.616   9.175   4.428 -0.4419 -1.0249 -0.3157
  195LIG     H1 2912   9.574   9.087   4.391  2.7035 -2.2061 -1.3575
  195LIG     H2 2913   9.553   9.206   4.505 -1.8986 -3.6513 -0.3134
  195LIG     H3 2914   9.621   9.251   4.357  3.2987 -0.6292  0.2180
  195LIG     CA 2915   9.754   9.143   4.476  0.3128 -0.5740  0.0878
  195LIG     HA 2916   9.811   9.130   4.385  1.6359 -3.0060  1.1901
  195LIG     CB 2917   9.818   9.245   4.573  0.3766  0.6919 -0.7878
  195LIG    HB1 2918   9.784   9.230   4.678  0.7469 -0.4720 -0.8282
  195LIG    HB2 2919   9.780   9.347   4.549 -2.7079  0.2203  1.4193
  195LIG     CG 2920   9.963   9.257   4.573  0.2870  0.4882  0.2355
  195LIG    OD1 2921  10.031   9.263   4.677  0.2249 -0.1297  0.0669
  195LIG    OD2 2922  10.018   9.263   4.461  0.7289 -0.0804  0.1591
  195LIG      C 2923   9.748   9.005   4.550 -0.4022  0.0251 -0.0215
  195LIG    OT1 2924   9.643   8.946   4.580  0.3192 -0.1093 -0.3087
  195LIG    OT2 2925   9.857   8.940   4.577 -0.0420 -0.1509  0.2187
  196LIG      N 2926   2.063   2.740   2.695 -0.3949 -0.6331  0.0148
  196LIG     H1 2927   2.083   2.737   2.593 -0.2282 -1.4394  0.0643
  196LIG     H2 2928   1.984   2.675   2.712 -0.3450 -1.2362 -1.9160
  196LIG     H3 2929   2.044   2.841   2.711  0.6601 -0.1604 -1.5077
  196LIG     CA 2930   2.186   2.696   2.773 -0.0384  0.2807  0.7903
  196LIG     HA 2931   2.262   2.772   2.762 -0.9563  1.0885 -0.3038
  196LIG     CB 2932   2.137   2.704   2.923  0.3608 -0.0249 -0.9942
  196LIG    HB1 2933   2.057   2.627   2.934  1.7285 -1.3194  0.3692
  196LIG    HB2 2934   2.101   2.807   2.945  1.1077  0.0116  0.1499
  196LIG     CG 2935   2.252   2.686   3.015 -0.1011  0.2665 -0.1448
  196LIG    OD1 2936   2.235   2.612   3.120 -0.0239 -0.1998  0.5521
  196LIG    OD2 2937   2.354   2.752   2.991  0.2464 -0.2597  0.3223
  196LIG      C 2938   2.250   2.560   2.734  0.1361 -0.3541 -0.4487
  196LIG    OT1 2939   2.197   2.501   2.640  0.2902 -0.0563  0.3136
  196LIG    OT2 2940   2.348   2.507   2.790 -0.1148 -0.4914  0.3139
  197LIG      N 2941   9.527   3.953   7.389  0.8196  0.0161  0.2590
  197LIG     H1 2942   9.444   3.977   7.332  0.1471 -0.6106  0.9607
  197LIG     H2 2943   9.490   3.898   7.469 -0.6353  2.7927  1.6496
  197LIG     H3 2944   9.569   4.035   7.437 -1.8618  0.4577  2.1134
  197LIG     CA 2945   9.627   3.877   7.305 -0.4153 -0.4716 -0.3201
  197LIG     HA 2946   9.565   3.816   7.241 -1.5465 -0.2163  0.4983
  197LIG     CB 2947   9.729   3.963   7.218  0.5818  0.0364  0.3350
  197LIG    HB1 2948   9.813   3.989   7.284 -0.7013 -2.9281  3.3963
  197LIG    HB2 2949   9.674   4.056   7.190 -1.1899 -1.2059 -0.5328
  197LIG     CG 2950   9.777   3.892   7.101 -0.3277  1.1311 -0.7670
  197LIG    OD1 2951   9.891   3.924   7.057 -0.0748  0.0602  0.8648
  197LIG    OD2 2952   9.712   3.802   7.044  0.5827  0.6773 -0.2075
  197LIG      C 2953   9.702   3.774   7.397 -0.5091 -0.6850  0.3257
  197LIG    OT1 2954   9.690   3.782   7.522  0.4029 -0.7086 -0.4644
  197LIG    OT2 2955   9.768   3.683   7.345 -0.2801 -0.7215 -0.1853
  198LIG      N 2956   0.720   4.035   2.983  0.1478  0.8891 -0.2937
  198LIG     H1 2957   0.710   3.990   3.076 -0.3298  0.0384 -0.7441
  198LIG     H2 2958   0.821   4.047   2.963  0.7383  0.9707  2.4524
  198LIG     H3 2959   0.665   4.123   2.976 -2.3447 -0.5700 -0.2799
  198LIG     CA 2960   0.650   3.941   2.887 -1.0896  0.2932  0.2080
  198LIG     HA 2961   0.557   3.913   2.934 -0.4327 -0.0875  1.3030
  198LIG     CB 2962   0.638   4.019   2.754 -1.2116  0.3804 -0.4394
  198LIG    HB1 2963   0.723   4.019   2.684 -2.3864 -0.5600 -1.9267
  198LIG    HB2 2964   0.613   4.122   2.788 -0.3792  0.4944 -0.1422
  198LIG     CG 2965   0.519   3.973   2.672 -0.4907 -0.1160 -0.3275
  198LIG    OD1 2966   0.532   4.008   2.552  0.2626 -0.2028  0.2050
  198LIG    OD2 2967   0.421   3.929   2.726  0.9793 -0.4179 -0.1784
  198LIG      C 2968   0.723   3.808   2.853  1.1672  0.3395  0.7733
  198LIG    OT1 2969   0.841   3.790   2.900  0.6090  0.0609  0.0258
  198LIG    OT2 2970   0.666   3.720   2.786  0.0776  0.2595 -0.3742
  199LIG      N 2971   4.781   5.083   0.763  0.3037 -0.2658  0.1271
  199LIG     H1 2972   4.847   5.162   0.779 -0.6523  0.9638 -1.6539
  199LIG     H2 2973   4.734   5.059   0.853 -0.2374 -1.7255 -0.5094
  199LIG     H3 2974   4.834   5.000   0.731  1.8999  1.0326 -0.7688
  199LIG     CA 2975   4.686   5.120   0.651  0.3255  0.8799 -0.6702
  199LIG     HA 2976   4.610   5.044   0.646 -0.9630  2.0718  0.1796
  199LIG     CB 2977   4.606   5.250   0.688  0.9619 -0.1229  0.1133
  199LIG    HB1 2978   4.655   5.343   0.653  0.2707  0.6469  1.1575
  199LIG    HB2 2979   4.577   5.254   0.795 -0.3380 -0.8571 -0.1851
  199LIG     CG 2980   4.471   5.247   0.611 -0.0132 -0.5947 -0.3191
  199LIG    OD1 2981   4.420   5.362   0.597  0.4932  0.3747 -0.1779
  199LIG    OD2 2982   4.411   5.145   0.592  0.0540  0.6386  1.3760
  199LIG      C 2983   4.753   5.143   0.514 -0.4607  0.1626  0.0731
  199LIG    OT1 2984   4.880   5.132   0.500 -0.1981 -0.2581  0.1750
  199LIG    OT2 2985   4.681   5.169   0.413 -0.3377 -0.3133  0.7019
  200LIG      N 2986   7.392   9.732   7.858  0.5716 -0.0688  0.1123
  200LIG     H1 2987   7.380   9.629   7.870  1.0106 -0.0439  0.8106
  200LIG     H2 2988   7.326   9.781   7.921  1.6452  1.3161  0.1985
  200LIG     H3 2989   7.372   9.760   7.760 -0.9977  3.0931  1.2174
  200LIG     CA 2990   7.525   9.770   7.906 -1.1217 -0.2043  0.6797
  200LIG     HA 2991   7.590   9.737   7.827  0.1796  0.4145  1.4576
  200LIG     CB 2992   7.533   9.926   7.924 -0.2027  0.6233  0.1833
  200LIG    HB1 2993   7.508   9.968   8.024 -0.7876  1.4511 -0.2984
  200LIG    HB2 2994   7.480   9.984   7.845 -0.3567  0.6611  0.3145
  200LIG     CG 2995   7.668   9.974   7.891 -0.5102 -0.7286  0.3737
  200LIG    OD1 2996   7.715  10.063   7.959  0.3054 -0.2630 -0.1857
  200LIG    OD2 2997   7.729   9.926   7.790  0.1762  0.3929 -0.0488
  200LIG      C 2998   7.575   9.692   8.030  0.1849 -0.8333 -0.2555
  200LIG    OT1 2999   7.488   9.606   8.079  0.1474  0.3883 -0.2917
  200LIG    OT2 3000   7.686   9.719   8.081 -0.5400  0.6997  0.5800
  201LIG      N 3001   9.617   0.895   7.234 -0.0838 -0.7234 -0.1476
  201LIG     H1 3002   9.577   0.801   7.248 -1.6097  0.2076  2.6741
  201LIG     H2 3003   9.575   0.950   7.312  2.5839 -1.5234  2.0437
  201LIG     H3 3004   9.599   0.944   7.145 -2.0256 -1.2136 -0.0545
  201LIG     CA 3005   9.765   0.885   7.249  0.2782 -0.2805  0.2562
  201LIG     HA 3006   9.807   0.835   7.163  1.9183  0.7363  0.4160
  201LIG     CB 3007   9.813   1.034   7.265 -0.0939 -0.8464 -0.3458
  201LIG    HB1 3008   9.792   1.070   7.368 -0.5189 -1.3024 -0.2675
  201LIG    HB2 3009   9.755   1.100   7.197  0.2421  1.2231  1.2885
  201LIG     CG 3010   9.960   1.049   7.230 -0.0887  0.0690 -0.2543
  201LIG    OD1 3011  10.039   1.118   7.299  0.1917  0.4151 -0.9883
  201LIG    OD2 3012   9.998   0.983   7.126  0.0169 -0.0056  0.6266
  201LIG      C 3013   9.810   0.805   7.379  0.1627 -0.4337 -0.1772
  201LIG    OT1 3014   9.725   0.754   7.452  0.5674 -0.7662 -0.4077
  201LIG    OT2 3015   9.930   0.787   7.396 -0.4397  0.2115  0.6069
  202LIG      N 3016   7.198   9.492   1.674 -0.3590 -0.2805  0.3209
  202LIG     H1 3017   7.156   9.582   1.702 -0.3309 -0.1398 -0.0894
  202LIG     H2 3018   7.166   9.466   1.579  3.3223  0.0062 -1.1465
  202LIG     H3 3019   7.171   9.420   1.744  0.1014 -0.9098 -0.1345
  202LIG     CA 3020   7.343   9.490   1.675  0.2118  0.3386 -0.0905
  202LIG     HA 3021   7.377   9.561   1.601  2.9578 -1.1153 -0.3387
  202LIG     CB 3022   7.399   9.519   1.818 -0.1844  0.1406  0.1032
  202LIG    HB1 3023   7.407   9.431   1.885  0.4006 -0.5758 -0.8815
  202LIG    HB2 3024   7.333   9.581   1.882  3.0110  1.5892  2.2565
  202LIG     CG 3025   7.523   9.601   1.819 -0.0439  0.3012 -0.6746
  202LIG    OD1 3026   7.630   9.555   1.868 -0.5678  0.5401 -0.0455
  202LIG    OD2 3027   7.510   9.713   1.775  0.2416 -0.5948 -0.4311
  202LIG      C 3028   7.385   9.348   1.635 -0.0856 -0.8190 -0.6180
  202LIG    OT1 3029   7.312   9.246   1.622  0.1613  0.5677 -0.1667
  202LIG    OT2 3030   7.511   9.330   1.635  0.1852  0.0390 -0.1601
  203LIG      N 3031   1.659   0.755   3.001 -0.1460  0.4322  0.2046
  203LIG     H1 3032   1.593   0.681   3.031  2.2215 -1.3274  1.4844
  203LIG     H2 3033   1.746   0.699   2.984 -0.1004  0.3105  0.8310
  203LIG     H3 3034   1.676   0.830   3.070  2.4870  0.4313 -0.3026
  203LIG     CA 3035   1.606   0.818   2.880 -0.0583 -0.5395 -0.1095
  203LIG     HA 3036   1.648   0.917   2.873  1.3792 -1.0632  0.6515
  203LIG     CB 3037   1.628   0.720   2.758  0.2087 -0.6155 -0.6064
  203LIG    HB1 3038   1.593   0.616   2.772  1.4194 -1.3307 -2.4420
  203LIG    HB2 3039   1.737   0.701   2.762 -0.0550 -1.9956  0.9861
  203LIG     CG 3040   1.603   0.784   2.619  0.3577  0.5318  0.5905
  203LIG    OD1 3041   1.541   0.712   2.537  0.3180  0.0267  0.2988
  203LIG    OD2 3042   1.654   0.893   2.592 -0.2370  0.5038 -0.4704
  203LIG      C 3043   1.447   0.837   2.901  0.2404  0.3136  0.1124
  203LIG    OT1 3044   1.395   0.821   3.013 -0.0320 -0.3238  0.4799
  203LIG    OT2 3045   1.390   0.895   2.808 -0.4670  0.4785 -0.0937
  204LIG      N 3046   9.851   3.602   1.580 -0.5214 -0.6363 -0.0320
  204LIG     H1 3047   9.812   3.529   1.644 -0.6871 -0.6993 -0.2035
  204LIG     H2 3048   9.955   3.595   1.580 -0.5296 -0.7740 -0.0696
  204LIG     H3 3049   9.817   3.697   1.603  3.7547  1.5872 -1.8055
  204LIG     CA 3050   9.796   3.560   1.454 -0.3995  0.0399 -0.1890
  204LIG     HA 3051   9.861   3.480   1.422 -0.0174  0.1819  0.2250
  204LIG     CB 3052   9.651   3.511   1.467  0.2628  0.0913  0.1808
  204LIG    HB1 3053   9.574   3.590   1.473  0.1484 -0.1407  3.8157
  204LIG    HB2 3054   9.637   3.454   1.562  0.4587 -0.1069  0.0901
  204LIG     CG 3055   9.607   3.404   1.373 -0.6613  0.9603 -0.4725
  204LIG    OD1 3056   9.482   3.404   1.343  0.4001 -0.0381 -0.5906
  204LIG    OD2 3057   9.681   3.312   1.327  0.7791  0.0992 -0.0241
  204LIG      C 3058   9.797   3.659   1.341  0.0153 -0.6615  0.5623
  204LIG    OT1 3059   9.831   3.781   1.359 -0.5757  0.1280  0.2947
  204LIG    OT2 3060   9.752   3.618   1.230  0.4251  0.0886  0.2014
  205LIG      N 3061   4.233   0.924   3.429  0.0923 -0.7521  0.1625
  205LIG     H1 3062   4.223   0.866   3.514  1.8145 -0.8698  0.3087
  205LIG     H2 3063   4.257   1.017   3.467 -1.0229 -0.0226 -0.8356
  205LIG     H3 3064   4.135   0.923   3.394  0.1808 -1.8036 -0.0965
  205LIG     CA 3065   4.329   0.850   3.340  0.1239 -0.1451 -0.3364
  205LIG     HA 3066   4.359   0.919   3.262 -0.4914  1.0902  0.4917
  205LIG     CB 3067   4.451   0.795   3.426 -0.2990  0.4197 -0.1586
  205LIG    HB1 3068   4.422   0.696   3.466  1.3887 -0.7591 -1.6867
  205LIG    HB2 3069   4.476   0.871   3.503  0.0417  0.3882 -0.2359
  205LIG     CG 3070   4.571   0.764   3.344 -0.6458 -0.3925  0.5999
  205LIG    OD1 3071   4.663   0.698   3.390 -0.8719  0.3935 -0.0805
  205LIG    OD2 3072   4.576   0.819   3.232  0.0046 -0.1119  0.0415
  205LIG      C 3073   4.240   0.741   3.255  0.3064 -0.1201  0.1161
  205LIG    OT1 3074   4.115   0.738   3.264  0.0813 -0.7513 -0.4549
  205LIG    OT2 3075   4.305   0.671   3.179 -0.1560  0.1942  0.1019
  206LIG      N 3076   1.135   3.418   2.490  0.4287 -0.6858 -0.0942
  206LIG     H1 3077   1.211   3.348   2.497 -0.3713 -1.8496 -2.0576
  206LIG     H2 3078   1.178   3.503   2.532  4.4182 -0.7715 -3.2834
  206LIG     H3 3079   1.060   3.382   2.552 -1.5290  0.8118 -1.4485
  206LIG     CA 3080   1.103   3.443   2.356 -0.3804  0.1724 -0.3519
  206LIG     HA 3081   1.149   3.368   2.293  0.4326  1.7283 -1.6897
  206LIG     CB 3082   0.946   3.450   2.343 -0.2552 -0.0260  0.3626
  206LIG    HB1 3083   0.901   3.537   2.397  1.3096  1.7891 -1.1389
  206LIG    HB2 3084   0.912   3.354   2.388  1.7985 -1.8244 -1.6882
  206LIG     CG 3085   0.898   3.434   2.206 -0.4703  0.4364  0.4538
  206LIG    OD1 3086   0.796   3.490   2.163 -0.1444 -0.2835  0.1225
  206LIG    OD2 3087   0.965   3.352   2.135  0.1813  0.3043 -0.4899
  206LIG      C 3088   1.170   3.570   2.295 -0.4429 -0.3070 -0.5615
  206LIG    OT1 3089   1.254   3.624   2.372 -0.4904 -0.7111  0.3104
  206LIG    OT2 3090   1.148   3.611   2.177  0.3775  0.0400 -0.4066
  207LIG      N 3091   7.658   1.336   0.041 -0.0727 -0.2903  0.6215
  207LIG     H1 3092   7.672   1.305  -0.057  1.1773 -2.0389  1.3117
  207LIG     H2 3093   7.557   1.362   0.049 -0.0157 -0.0246  0.4932
  207LIG     H3 3094   7.720   1.417   0.060  1.0447 -0.4075 -2.0851
  207LIG     CA 3095   7.687   1.216   0.124 -0.1434 -0.0567 -0.1367
  207LIG     HA 3096   7.642   1.252   0.215  4.1948  2.9449  1.1156
  207LIG     CB 3097   7.617   1.099   0.055 -0.4827  0.4049  0.7355
  207LIG    HB1 3098   7.670   1.058  -0.034 -3.2891 -0.7086 -0.5467
  207LIG    HB2 3099   7.519   1.128   0.011  0.2731  2.9043  0.5227
  207LIG     CG 3100   7.593   0.995   0.162  0.0008 -0.7389  0.7031
  207LIG    OD1 3101   7.617   0.875   0.148 -0.1420  0.1122  0.5849
  207LIG    OD2 3102   7.538   1.034   0.268 -0.1127 -0.1990  0.4687
  207LIG      C 3103   7.838   1.200   0.143 -0.6454  0.1899  0.0509
  207LIG    OT1 3104   7.909   1.291   0.098  0.3015  0.1561  0.5781
  207LIG    OT2 3105   7.877   1.097   0.201  0.5499 -0.5269 -0.0277
  208LIG      N 3106   3.634   8.201   9.314  0.1476  0.1827 -0.3193
  208LIG     H1 3107   3.569   8.268   9.360  2.3252  0.7090  2.2340
  208LIG     H2 3108   3.598   8.177   9.219 -1.4646  0.4163  0.1880
  208LIG     H3 3109   3.634   8.114   9.372  0.0281 -0.2066 -0.8924
  208LIG     CA 3110   3.765   8.274   9.323 -0.4382  0.1409 -0.7492
  208LIG     HA 3111   3.844   8.206   9.297 -1.1172 -1.9106  2.0926
  208LIG     CB 3112   3.752   8.411   9.250  0.3824 -0.2120  0.0013
  208LIG    HB1 3113   3.740   8.496   9.321  1.0376  1.0613 -1.3546
  208LIG    HB2 3114   3.671   8.422   9.174 -0.1319 -2.7868  0.0961
  208LIG     CG 3115   3.883   8.418   9.174  0.2251  0.3131  0.2891
  208LIG    OD1 3116   3.933   8.534   9.156  0.3344  0.1258 -0.2712
  208LIG    OD2 3117   3.924   8.316   9.111 -0.5066 -0.2918 -0.2380
  208LIG      C 3118   3.796   8.299   9.470 -0.3779  0.2290  0.8266
  208LIG    OT1 3119   3.721   8.248   9.557 -0.6264  0.2464 -0.4395
  208LIG    OT2 3120   3.906   8.357   9.492  0.5036  0.0080  0.1903
  209LIG      N 3121   5.915   5.342   0.573 -0.3075 -0.2445 -0.6119
  209LIG     H1 3122   5.944   5.351   0.474 -1.9920  1.6162 -0.9974
  209LIG     H2 3123   5.830   5.283   0.585 -0.2731 -0.1129  0.4313
  209LIG     H3 3124   5.895   5.436   0.613  1.1814 -0.2123  0.1089
  209LIG     CA 3125   6.025   5.282   0.648 -0.0057 -0.1794  0.9123
  209LIG     HA 3126   6.103   5.356   0.638 -0.4881  0.3894  1.2818
  209LIG     CB 3127   5.981   5.281   0.796  0.5494  0.8231  0.7589
  209LIG    HB1 3128   5.925   5.189   0.824 -0.2278  1.0882  0.0970
  209LIG    HB2 3129   5.913   5.366   0.818 -0.4621 -0.2822  2.0759
  209LIG     CG 3130   6.092   5.296   0.895  0.4881 -0.5711  0.3541
  209LIG    OD1 3131   6.104   5.215   0.991 -0.1425 -0.1038 -0.2083
  209LIG    OD2 3132   6.171   5.395   0.879  0.3268 -0.3061 -0.3688
  209LIG      C 3133   6.083   5.148   0.595 -0.0064 -0.1336  0.6057
  209LIG    OT1 3134   6.050   5.091   0.485  0.3170 -0.1420 -0.0984
  209LIG    OT2 3135   6.174   5.095   0.660  0.3234 -0.4491 -0.7643
  210LIG      N 3136   8.723   2.240   3.740 -0.9492 -0.3423 -0.2652
  210LIG     H1 3137   8.791   2.298   3.793 -2.1737  1.0941 -0.2135
  210LIG     H2 3138   8.691   2.159   3.797  2.2888 -1.9707 -0.4906
  210LIG     H3 3139   8.782   2.193   3.668  0.6762 -3.9204  3.0069
  210LIG     CA 3140   8.608   2.314   3.692 -0.3513  0.0799 -0.4279
  210LIG     HA 3141   8.645   2.412   3.664 -0.3418 -0.2236 -1.4882
  210LIG     CB 3142   8.568   2.237   3.560  0.5963  0.4665  0.2215
  210LIG    HB1 3143   8.524   2.142   3.596 -1.8566  0.2471 -2.9568
  210LIG    HB2 3144   8.657   2.211   3.499  0.4370 -0.2147  0.2810
  210LIG     CG 3145   8.475   2.315   3.476 -0.3186  1.0352 -0.4929
  210LIG    OD1 3146   8.363   2.274   3.446  1.0758  0.3381 -0.5986
  210LIG    OD2 3147   8.520   2.425   3.427  0.3442 -0.3179  0.4051
  210LIG      C 3148   8.489   2.329   3.792  0.0508 -0.1484  0.0579
  210LIG    OT1 3149   8.489   2.269   3.905 -0.3277 -0.1415  0.1114
  210LIG    OT2 3150   8.400   2.407   3.761 -0.6335  0.0477  1.0094
  211LIG      N 3151   6.636   1.191   9.642  0.0298 -0.2748  0.1272
  211LIG     H1 3152   6.628   1.225   9.740  2.7712 -0.8285  0.6043
  211LIG     H2 3153   6.584   1.253   9.576 -1.7730 -0.6597  1.1058
  211LIG     H3 3154   6.614   1.091   9.628  2.1928 -0.6851 -0.6664
  211LIG     CA 3155   6.777   1.196   9.613 -0.2834 -1.1688  0.1541
  211LIG     HA 3156   6.816   1.106   9.658 -0.3247 -0.5611  1.4707
  211LIG     CB 3157   6.798   1.207   9.458  0.6115 -0.6007  0.1904
  211LIG    HB1 3158   6.773   1.306   9.412 -0.1170 -0.1826  1.4492
  211LIG    HB2 3159   6.729   1.137   9.407  0.5478 -1.2168  1.0973
  211LIG     CG 3160   6.940   1.179   9.416  0.3273  0.7607  0.2366
  211LIG    OD1 3161   6.994   1.255   9.329 -0.0874 -0.3571 -0.3659
  211LIG    OD2 3162   6.991   1.067   9.452 -0.0646  0.3417  0.2195
  211LIG      C 3163   6.845   1.319   9.687 -0.4585  0.4029  0.2943
  211LIG    OT1 3164   6.784   1.393   9.768  0.9906  0.1677 -0.1742
  211LIG    OT2 3165   6.971   1.329   9.673 -0.0976  0.3523  0.1445
  212LIG      N 3166   7.404   0.593   8.320  0.4519 -0.1338  0.0757
  212LIG     H1 3167   7.373   0.691   8.337 -0.0703 -0.2036 -0.4514
  212LIG     H2 3168   7.494   0.569   8.273  1.2150 -1.3215  2.0007
  212LIG     H3 3169   7.329   0.556   8.259  1.7659 -2.3490 -0.3247
  212LIG     CA 3170   7.403   0.515   8.446  0.0930  0.5767  0.2565
  212LIG     HA 3171   7.469   0.576   8.506 -0.3226  0.1914  1.1102
  212LIG     CB 3172   7.271   0.516   8.521  0.1015 -0.1179 -0.2041
  212LIG    HB1 3173   7.210   0.434   8.478  1.5234 -1.3936  0.1168
  212LIG    HB2 3174   7.225   0.617   8.514  0.7057  0.0545 -2.3825
  212LIG     CG 3175   7.289   0.489   8.667  0.1607  0.4054  0.1140
  212LIG    OD1 3176   7.189   0.434   8.722 -0.3462  0.2477 -0.4479
  212LIG    OD2 3177   7.388   0.530   8.730  0.0690 -0.3971 -0.0370
  212LIG      C 3178   7.456   0.365   8.434  0.8131  0.3246 -0.6516
  212LIG    OT1 3179   7.497   0.327   8.321  0.0537 -0.5412  0.3395
  212LIG    OT2 3180   7.452   0.293   8.537  0.3534  0.2618 -0.1433
  213LIG      N 3181   0.327   0.397   1.974 -0.1910  0.1969 -0.7993
  213LIG     H1 3182   0.339   0.294   1.977 -1.7483 -0.0176 -0.8347
  213LIG     H2 3183   0.392   0.434   2.046 -0.9747  1.1253 -0.5424
  213LIG     H3 3184   0.232   0.433   1.998  0.6291  2.5406 -0.7904
  213LIG     CA 3185   0.347   0.454   1.845  0.0541  0.3082  0.0359
  213LIG     HA 3186   0.452   0.433   1.827 -0.5554 -2.4743 -0.7327
  213LIG     CB 3187   0.272   0.373   1.733 -0.6702 -0.3152 -0.2358
  213LIG    HB1 3188   0.162   0.388   1.742 -0.8526 -1.2969 -0.6248
  213LIG    HB2 3189   0.295   0.264   1.736  1.3063  0.0797  0.7656
  213LIG     CG 3190   0.326   0.413   1.598  0.2754 -0.5046  0.2393
  213LIG    OD1 3191   0.253   0.483   1.528  0.1155  0.1781  0.0414
  213LIG    OD2 3192   0.443   0.377   1.572  0.0386  0.0331  0.4918
  213LIG      C 3193   0.325   0.607   1.838  0.3597  0.2662 -0.5759
  213LIG    OT1 3194   0.288   0.669   1.943  0.0526  1.1141  0.7818
  213LIG    OT2 3195   0.350   0.673   1.737 -0.3643  0.4836 -0.0651
  214LIG      N 3196   7.533   0.405   1.728  0.0813  0.1900 -0.0389
  214LIG     H1 3197   7.498   0.479   1.664  2.0447 -0.3986 -1.9230
  214LIG     H2 3198   7.606   0.438   1.794  1.1421 -2.6218  0.3461
  214LIG     H3 3199   7.576   0.334   1.665  1.1937 -0.3745  1.3060
  214LIG     CA 3200   7.419   0.336   1.795 -0.8899 -0.5279  0.4326
  214LIG     HA 3201   7.458   0.244   1.836  0.9267 -0.5611 -1.2178
  214LIG     CB 3202   7.382   0.427   1.914 -0.5790  0.2992 -0.9525
  214LIG    HB1 3203   7.322   0.514   1.882 -1.7913 -0.7955 -1.7938
  214LIG    HB2 3204   7.472   0.467   1.965 -1.7232  0.1663  1.3173
  214LIG     CG 3205   7.304   0.358   2.029 -0.9537  0.2758  0.1818
  214LIG    OD1 3206   7.185   0.384   2.057 -0.2942 -0.2414 -0.5696
  214LIG    OD2 3207   7.383   0.281   2.089  0.7239  0.0589  0.1607
  214LIG      C 3208   7.291   0.309   1.712  0.6971  0.1294  0.4957
  214LIG    OT1 3209   7.264   0.366   1.602  0.1100  0.5969  0.0221
  214LIG    OT2 3210   7.200   0.233   1.766  0.1879  0.2465  0.0267
  215LIG      N 3211   2.493   0.998   8.510  0.0370 -0.2568  1.1788
  215LIG     H1 3212   2.399   0.968   8.542  0.6984 -1.6115  1.9615
  215LIG     H2 3213   2.531   1.073   8.571 -1.4803 -1.1952  3.3828
  215LIG     H3 3214   2.472   1.046   8.420 -0.9129 -0.9241  1.0294
  215LIG     CA 3215   2.600   0.891   8.498 -0.9507 -0.3925  0.4728
  215LIG     HA 3216   2.672   0.897   8.579 -1.9974 -0.5267  1.4375
  215LIG     CB 3217   2.532   0.751   8.489  0.8301  0.4821 -0.3950
  215LIG    HB1 3218   2.499   0.721   8.388  1.3787 -0.1541 -0.3916
  215LIG    HB2 3219   2.444   0.758   8.556 -0.3244  2.9622 -2.0284
  215LIG     CG 3220   2.614   0.639   8.548 -0.2878 -0.6891 -1.0516
  215LIG    OD1 3221   2.610   0.531   8.489  0.2826 -0.2412 -0.1090
  215LIG    OD2 3222   2.671   0.652   8.659  0.7431 -0.1443 -0.4399
  215LIG      C 3223   2.673   0.906   8.362  0.2542 -0.7173 -0.1965
  215LIG    OT1 3224   2.619   0.977   8.268 -0.1343  0.6524 -0.6184
  215LIG    OT2 3225   2.768   0.836   8.327 -0.4635 -0.4868 -0.3810
  216LIG      N 3226   3.573   9.644   1.422  0.7926  0.2585 -0.5010
  216LIG     H1 3227   3.583   9.541   1.435  2.8523 -0.2611 -4.5364
  216LIG     H2 3228   3.633   9.698   1.488 -0.1060  3.0473 -1.8210
  216LIG     H3 3229   3.478   9.679   1.444 -0.1548 -1.9944 -0.8015
  216LIG     CA 3230   3.597   9.692   1.287 -0.2527 -0.6185  0.0723
  216LIG     HA 3231   3.590   9.800   1.284 -0.3589 -0.5688 -3.9485
  216LIG     CB 3232   3.742   9.666   1.242  0.6981 -0.3811 -0.2006
  216LIG    HB1 3233   3.765   9.560   1.220  2.3927 -0.1358  0.2523
  216LIG    HB2 3234   3.805   9.709   1.323  0.3154 -0.0288 -0.0885
  216LIG     CG 3235   3.776   9.742   1.114 -0.1475  0.1676  0.0578
  216LIG    OD1 3236   3.784   9.673   1.007  0.5226 -0.1791 -0.3034
  216LIG    OD2 3237   3.776   9.871   1.112 -0.1086  0.3059 -0.2409
  216LIG      C 3238   3.497   9.640   1.187  0.0301 -0.5208  0.3238
  216LIG    OT1 3239   3.396   9.576   1.232 -0.8814 -0.3376 -0.2443
  216LIG    OT2 3240   3.503   9.662   1.064  0.2895 -0.4814  0.5018
  217LIG      N 3241   9.405   6.614   4.585  0.2689 -0.0235 -0.3559
  217LIG     H1 3242   9.416   6.653   4.681  1.9328 -0.5115 -0.3079
  217LIG     H2 3243   9.452   6.685   4.525 -0.3120  1.4888  0.9155
  217LIG     H3 3244   9.310   6.593   4.549 -0.7666  1.2616  1.4532
  217LIG     CA 3245   9.485   6.490   4.583 -0.3873 -0.9865 -0.3251
  217LIG     HA 3246   9.474   6.446   4.485 -0.6384  1.7337 -1.6056
  217LIG     CB 3247   9.636   6.529   4.609  0.2172  0.6297 -0.3043
  217LIG    HB1 3248   9.651   6.525   4.719 -0.0197  0.2057 -0.2872
  217LIG    HB2 3249   9.663   6.636   4.592 -0.3767  0.8546  0.1051
  217LIG     CG 3250   9.745   6.447   4.538 -0.5768  0.2028  0.5091
  217LIG    OD1 3251   9.860   6.449   4.598  0.1376  0.1675 -0.3856
  217LIG    OD2 3252   9.731   6.393   4.429 -0.3341  0.2433 -0.3618
  217LIG      C 3253   9.442   6.385   4.690  0.3733 -1.0481 -0.0969
  217LIG    OT1 3254   9.374   6.413   4.794  0.1082 -0.7587 -0.3536
  217LIG    OT2 3255   9.500   6.275   4.681 -0.3324  0.1790 -0.1408
  218LIG      N 3256   1.119   7.518   8.342 -0.7747  0.6676 -0.1529
  218LIG     H1 3257   1.057   7.435   8.343  1.3791 -1.1116  2.3084
  218LIG     H2 3258   1.088   7.600   8.286 -1.1782  0.8842  0.3798
  218LIG     H3 3259   1.215   7.488   8.315 -0.5873 -1.4161  2.4641
  218LIG     CA 3260   1.113   7.549   8.494 -0.6635  0.2304 -0.1769
  218LIG     HA 3261   1.024   7.509   8.540  0.8217 -0.3428  2.4269
  218LIG     CB 3262   1.224   7.464   8.560  0.1364 -0.4361 -0.9511
  218LIG    HB1 3263   1.325   7.509   8.551  0.5755 -0.3597  2.7515
  218LIG    HB2 3264   1.239   7.362   8.519  2.2896 -0.9600  0.9154
  218LIG     CG 3265   1.198   7.450   8.707  0.0242  0.1625  0.3978
  218LIG    OD1 3266   1.283   7.503   8.784 -0.0396  0.2274  0.3069
  218LIG    OD2 3267   1.102   7.377   8.747  0.1475 -0.2236 -0.4747
  218LIG      C 3268   1.129   7.704   8.524 -0.2560 -0.0897  0.1665
  218LIG    OT1 3269   1.175   7.783   8.435  0.1466  0.1670 -0.3138
  218LIG    OT2 3270   1.106   7.755   8.640  0.0419 -0.2623 -0.2659
  219LIG      N 3271   2.557   9.803   4.050  0.7166  0.1692  1.0424
  219LIG     H1 3272   2.461   9.777   4.080 -0.7524  1.8664 -1.8319
  219LIG     H2 3273   2.607   9.852   4.126 -0.2263  0.6768  1.3495
  219LIG     H3 3274   2.531   9.869   3.975 -0.5892 -0.5825  0.8060
  219LIG     CA 3275   2.624   9.687   3.982  0.0268  0.0161  0.0368
  219LIG     HA 3276   2.556   9.673   3.899 -0.2656 -0.0486  0.2831
  219LIG     CB 3277   2.771   9.731   3.949  0.6517 -1.0711  0.0506
  219LIG    HB1 3278   2.838   9.737   4.037  0.4418  0.9185  0.1129
  219LIG    HB2 3279   2.757   9.836   3.916  1.5687 -0.3085  1.8887
  219LIG     CG 3280   2.827   9.644   3.841  0.0782 -0.4428  0.1521
  219LIG    OD1 3281   2.931   9.584   3.864 -0.2750  0.0876 -0.5017
  219LIG    OD2 3282   2.764   9.627   3.729 -0.3434  0.2386  0.6855
  219LIG      C 3283   2.618   9.561   4.072  0.1035 -0.3133  0.3493
  219LIG    OT1 3284   2.592   9.571   4.196 -0.1648 -0.1110  0.1265
  219LIG    OT2 3285   2.637   9.454   4.015 -0.5265  0.8324 -0.0636
  220LIG      N 3286   1.006   8.200   7.372  0.1053  0.4651  0.5067
  220LIG     H1 3287   1.054   8.291   7.387  1.3241 -0.1542  0.5074
  220LIG     H2 3288   0.994   8.153   7.464  1.3844 -1.4649 -0.2311
  220LIG     H3 3289   1.070   8.127   7.335 -0.0821  0.2320  0.6414
  220LIG     CA 3290   0.885   8.192   7.285  0.1636  0.8009  0.8799
  220LIG     HA 3291   0.862   8.088   7.270  0.3919  0.7873  0.6125
  220LIG     CB 3292   0.766   8.268   7.353 -0.3572  0.4307  0.7093
  220LIG    HB1 3293   0.785   8.378   7.357 -1.8905  0.8124 -1.1615
  220LIG    HB2 3294   0.756   8.229   7.457  3.3673 -2.5557  0.1464
  220LIG     CG 3295   0.634   8.241   7.286 -0.1554 -0.8396  0.0150
  220LIG    OD1 3296   0.566   8.338   7.232  0.1221 -0.0224 -0.4597
  220LIG    OD2 3297   0.594   8.119   7.285 -0.2466 -0.1057  0.1591
  220LIG      C 3298   0.924   8.258   7.151  0.1921 -0.3249  0.4882
  220LIG    OT1 3299   1.030   8.327   7.142 -0.2874  0.5251  0.2747
  220LIG    OT2 3300   0.851   8.249   7.052  0.5831  0.0690  0.4434
  221LIG      N 3301   4.369   0.740   7.097  0.1057 -0.6290  0.7760
  221LIG     H1 3302   4.332   0.647   7.126 -0.1299 -0.5681  0.6713
  221LIG     H2 3303   4.405   0.774   7.189  2.1580  0.7131 -0.4572
  221LIG     H3 3304   4.294   0.802   7.058  0.7982 -0.9180 -1.1024
  221LIG     CA 3305   4.469   0.735   6.985  0.1632 -0.0118 -0.4776
  221LIG     HA 3306   4.567   0.701   7.017 -0.6185 -0.9671  0.9963
  221LIG     CB 3307   4.395   0.650   6.872  0.1324  0.2949 -0.2320
  221LIG    HB1 3308   4.328   0.714   6.810 -0.3341  0.3972  0.3710
  221LIG    HB2 3309   4.328   0.570   6.910  0.3543 -0.7054 -1.8529
  221LIG     CG 3310   4.507   0.586   6.794  0.4762  0.1830  0.0386
  221LIG    OD1 3311   4.518   0.613   6.671  0.3544 -0.8276  0.1620
  221LIG    OD2 3312   4.585   0.502   6.846 -0.0160 -0.3822  0.0245
  221LIG      C 3313   4.494   0.881   6.943 -0.2887 -0.2906  0.8052
  221LIG    OT1 3314   4.437   0.976   6.998  0.7143 -0.4450  0.6299
  221LIG    OT2 3315   4.580   0.907   6.858  0.3452  0.0879 -0.2773
  222LIG      N 3316   7.828   3.902   5.644  0.5262 -0.1089  0.0123
  222LIG     H1 3317   7.902   3.943   5.705  1.0086  1.1686 -1.3492
  222LIG     H2 3318   7.738   3.953   5.652 -0.3657 -1.7705  0.9307
  222LIG     H3 3319   7.804   3.803   5.664  1.1729 -0.7662 -2.1115
  222LIG     CA 3320   7.875   3.909   5.507  0.1330  0.2828 -0.6099
  222LIG     HA 3321   7.931   3.817   5.497 -2.4466 -1.7271  1.7867
  222LIG     CB 3322   7.760   3.917   5.400  0.5642  0.1071 -0.4863
  222LIG    HB1 3323   7.744   4.024   5.376  1.7638  0.1941 -0.9694
  222LIG    HB2 3324   7.664   3.874   5.437  2.0339 -1.6862  1.5200
  222LIG     CG 3325   7.797   3.848   5.274 -0.0528  0.1179 -0.4371
  222LIG    OD1 3326   7.742   3.874   5.166  0.1182 -0.7554  0.4702
  222LIG    OD2 3327   7.894   3.763   5.281  0.1676 -0.1534  0.2468
  222LIG      C 3328   7.975   4.035   5.483  0.4131  0.0106  0.2287
  222LIG    OT1 3329   7.987   4.121   5.570 -0.8170  0.4698 -0.0342
  222LIG    OT2 3330   8.046   4.044   5.375 -0.1221 -0.3286 -0.3868
  223LIG      N 3331   3.802   8.882   5.201  0.2313 -0.1046 -0.6249
  223LIG     H1 3332   3.743   8.938   5.135  0.8724  0.4554 -0.7401
  223LIG     H2 3333   3.847   8.809   5.143 -1.4837 -0.3097 -1.7916
  223LIG     H3 3334   3.744   8.831   5.271 -0.2861  3.0216  1.4158
  223LIG     CA 3335   3.890   8.962   5.289 -0.4202 -0.1665  0.1038
  223LIG     HA 3336   3.987   8.959   5.242 -0.2391  1.2439  0.3405
  223LIG     CB 3337   3.829   9.099   5.283 -0.3791 -0.5575  0.1503
  223LIG    HB1 3338   3.725   9.111   5.319 -0.4435 -1.5257  0.2958
  223LIG    HB2 3339   3.822   9.127   5.175  0.4015  2.6724  0.8278
  223LIG     CG 3340   3.916   9.204   5.338  0.5047  0.8152 -0.4491
  223LIG    OD1 3341   3.865   9.278   5.423 -0.2645 -0.0554 -0.6671
  223LIG    OD2 3342   4.037   9.217   5.302  0.1017 -0.2279 -0.1529
  223LIG      C 3343   3.906   8.909   5.432 -0.2499  0.0362  0.2999
  223LIG    OT1 3344   3.824   8.827   5.472  0.6998  0.5840  0.4224
  223LIG    OT2 3345   3.998   8.949   5.505 -0.7700  0.4873  0.0255
  224LIG      N 3346   4.686   1.088   8.434  0.4236  0.4768 -0.6092
  224LIG     H1 3347   4.605   1.037   8.394  0.5609  0.0957 -0.4074
  224LIG     H2 3348   4.738   1.021   8.494 -2.1616 -1.9902 -0.9213
  224LIG     H3 3349   4.649   1.160   8.499  1.6307  0.5914 -0.0205
  224LIG     CA 3350   4.779   1.135   8.329 -0.0980 -0.6415  0.3021
  224LIG     HA 3351   4.743   1.232   8.298  1.9039 -0.2233 -0.8924
  224LIG     CB 3352   4.917   1.138   8.400 -0.1344 -0.2017  0.6776
  224LIG    HB1 3353   4.962   1.036   8.401 -0.5292 -0.3952  2.2223
  224LIG    HB2 3354   4.914   1.174   8.505  0.8440  3.4882 -0.4384
  224LIG     CG 3355   5.012   1.236   8.327  0.2047  0.5887  0.6388
  224LIG    OD1 3356   5.135   1.214   8.341 -0.5359 -0.1649  0.1111
  224LIG    OD2 3357   4.964   1.341   8.278 -0.1171  0.0006  0.0695
  224LIG      C 3358   4.786   1.046   8.200  0.4438 -0.1648  0.3431
  224LIG    OT1 3359   4.713   0.943   8.189  0.4348 -0.6555  0.4534
  224LIG    OT2 3360   4.865   1.081   8.109 -0.1121 -0.8790  0.5363
  225LIG      N 3361   1.113   4.122   9.744  0.4036 -0.5526  0.1281
  225LIG     H1 3362   1.031   4.186   9.736  1.1960  0.7955  2.0954
  225LIG     H2 3363   1.176   4.173   9.809 -0.3305  0.3677  0.1491
  225LIG     H3 3364   1.162   4.117   9.653 -3.0588  1.5501 -2.1115
  225LIG     CA 3365   1.064   3.993   9.794 -0.4776  0.4837  0.2294
  225LIG     HA 3366   1.107   3.918   9.730  0.4972 -0.3348  1.7751
  225LIG     CB 3367   1.111   3.989   9.942  0.3622  0.1833  0.0257
  225LIG    HB1 3368   1.055   4.069   9.995  3.6890  3.6501 -1.2640
  225LIG    HB2 3369   1.215   4.023   9.956 -0.3524  2.3759  0.3774
  225LIG     CG 3370   1.090   3.851   9.998 -0.7888  0.1823  0.1034
  225LIG    OD1 3371   1.027   3.845  10.109 -0.2871  0.3803  0.3150
  225LIG    OD2 3372   1.143   3.749   9.948  0.1538 -0.4035 -0.5064
  225LIG      C 3373   0.903   3.994   9.779  0.3361 -0.0026 -0.2121
  225LIG    OT1 3374   0.843   4.098   9.738 -0.0434 -0.0614 -0.2286
  225LIG    OT2 3375   0.841   3.887   9.813  0.2436 -0.2842  0.4879
  226LIG      N 3376   9.100   5.263   1.350 -0.1623 -0.1913  0.8567
  226LIG     H1 3377   9.201   5.242   1.338 -0.7471 -2.9117 -0.0472
  226LIG     H2 3378   9.061   5.180   1.301  2.1935 -0.1876 -1.2103
  226LIG     H3 3379   9.062   5.346   1.300 -0.8035 -0.7864  0.3194
  226LIG     CA 3380   9.061   5.271   1.489 -0.4897 -0.1323 -0.0076
  226LIG     HA 3381   9.096   5.179   1.533 -0.6779  0.9171  2.4776
  226LIG     CB 3382   9.131   5.386   1.557 -0.7131  0.0969  0.1428
  226LIG    HB1 3383   9.101   5.482   1.509  1.3540  0.1450 -1.1862
  226LIG    HB2 3384   9.241   5.375   1.545 -0.5706 -2.0042  2.6211
  226LIG     CG 3385   9.122   5.385   1.706 -0.2319 -0.1683 -1.2626
  226LIG    OD1 3386   9.072   5.483   1.755  0.2907 -0.2751  0.5343
  226LIG    OD2 3387   9.168   5.291   1.780  0.4327 -0.1680  0.0588
  226LIG      C 3388   8.906   5.284   1.506 -0.4298  0.2451 -0.8153
  226LIG    OT1 3389   8.839   5.311   1.402 -0.1728  0.3539  0.2414
  226LIG    OT2 3390   8.857   5.246   1.618 -0.4758 -0.1240  0.5108
  227LIG      N 3391   1.450   1.665   6.888 -0.3368 -0.4616  0.4689
  227LIG     H1 3392   1.452   1.593   6.812  0.1219 -1.2542  1.2171
  227LIG     H2 3393   1.437   1.757   6.842 -0.1925 -0.7503 -0.1686
  227LIG     H3 3394   1.535   1.680   6.946 -0.1281  0.8319 -0.1343
  227LIG     CA 3395   1.325   1.655   6.966 -0.4881 -0.1179 -0.0753
  227LIG     HA 3396   1.294   1.757   6.981  0.8360  0.1669  0.9086
  227LIG     CB 3397   1.215   1.585   6.885 -0.4645 -0.8442  0.7117
  227LIG    HB1 3398   1.232   1.478   6.863  0.4128 -0.3637 -1.1429
  227LIG    HB2 3399   1.204   1.624   6.781 -0.5828  1.1755  1.4344
  227LIG     CG 3400   1.080   1.601   6.946 -0.2295 -0.0078 -0.0585
  227LIG    OD1 3401   1.013   1.505   6.983 -0.5192  0.0227 -0.1237
  227LIG    OD2 3402   1.031   1.719   6.950  0.4867  0.7076 -0.3898
  227LIG      C 3403   1.344   1.595   7.108 -0.3921 -0.2609 -0.2595
  227LIG    OT1 3404   1.457   1.541   7.136  0.7811  0.3328  0.2089
  227LIG    OT2 3405   1.253   1.609   7.191 -0.0700 -0.7170 -0.0011
  228LIG      N 3406   0.702   2.664   9.844  0.6497 -0.6570 -0.0146
  228LIG     H1 3407   0.646   2.731   9.788 -0.2714 -1.9585 -0.7000
  228LIG     H2 3408   0.738   2.587   9.783  4.0672  1.5309 -1.0635
  228LIG     H3 3409   0.645   2.629   9.924  1.1118 -1.3629  0.0144
  228LIG     CA 3410   0.824   2.737   9.891 -0.0843 -0.4292 -0.0610
  228LIG     HA 3411   0.787   2.827   9.937  0.5597  1.2651 -2.6552
  228LIG     CB 3412   0.901   2.640   9.990  0.0326 -0.0048  0.2351
  228LIG    HB1 3413   0.970   2.565   9.945 -1.3505 -1.1489 -0.0491
  228LIG    HB2 3414   0.819   2.587  10.042 -1.2845 -0.5404 -2.2430
  228LIG     CG 3415   0.974   2.723  10.091  0.3168  0.5646 -0.3951
  228LIG    OD1 3416   1.082   2.667  10.126  0.1555 -0.0696 -0.1463
  228LIG    OD2 3417   0.922   2.825  10.140  0.2120 -0.7710 -0.3535
  228LIG      C 3418   0.916   2.800   9.784  0.3286  0.5229 -0.3675
  228LIG    OT1 3419   0.905   2.759   9.667  0.5269 -0.0004 -0.2585
  228LIG    OT2 3420   1.014   2.873   9.821  0.3054  0.3328 -0.2084
  229LIG      N 3421   0.009   6.229   0.037  0.3387  0.3227 -0.6814
  229LIG     H1 3422  -0.090   6.199   0.019 -0.1745  1.1101  0.7051
  229LIG     H2 3423   0.063   6.229  -0.052 -0.3600  0.5629 -1.1184
  229LIG     H3 3424   0.051   6.155   0.096  1.3331  2.1171  0.9815
  229LIG     CA 3425   0.010   6.360   0.106  0.3073 -0.5235 -0.8242
  229LIG     HA 3426  -0.063   6.414   0.048  1.1621  0.6026 -0.9096
  229LIG     CB 3427  -0.029   6.347   0.261 -0.7750  0.4514  0.8949
  229LIG    HB1 3428   0.055   6.340   0.333  0.2013  0.2099 -0.2473
  229LIG    HB2 3429  -0.096   6.262   0.285  0.3156 -1.1677 -1.4780
  229LIG     CG 3430  -0.102   6.471   0.304  0.6513  0.5281 -0.0046
  229LIG    OD1 3431  -0.107   6.503   0.424 -0.0253 -0.1286 -0.6694
  229LIG    OD2 3432  -0.169   6.529   0.212  0.1410 -0.4179  0.4367
  229LIG      C 3433   0.126   6.452   0.082 -0.2999 -0.3328  0.1049
  229LIG    OT1 3434   0.197   6.423  -0.019  0.0789 -0.1595 -0.2696
  229LIG    OT2 3435   0.148   6.558   0.146  0.1117 -0.3844  0.1690
  230LIG      N 3436   5.337   1.542   6.175  0.1936  0.2306  0.8406
  230LIG     H1 3437   5.416   1.515   6.113 -0.3323 -1.9272  1.0487
  230LIG     H2 3438   5.318   1.644   6.182  1.3942  0.5448 -0.1452
  230LIG     H3 3439   5.358   1.497   6.266 -3.2390 -1.2327  1.0362
  230LIG     CA 3440   5.214   1.481   6.121  0.0608  0.0542  0.0741
  230LIG     HA 3441   5.228   1.376   6.097 -0.0720  0.2219 -0.7433
  230LIG     CB 3442   5.108   1.506   6.231 -0.4154  0.1958 -0.1156
  230LIG    HB1 3443   5.084   1.614   6.233  0.6739  0.4792 -0.9568
  230LIG    HB2 3444   5.139   1.476   6.333 -1.3804 -0.1485  0.0905
  230LIG     CG 3445   4.978   1.429   6.201  1.0612 -0.4004 -0.2209
  230LIG    OD1 3446   4.868   1.481   6.235  0.1559 -0.4160  0.2417
  230LIG    OD2 3447   4.990   1.306   6.175  0.6412 -0.4836 -0.0871
  230LIG      C 3448   5.169   1.550   5.992  0.1544 -0.9869 -0.1817
  230LIG    OT1 3449   5.241   1.641   5.933 -0.6482  0.0872  0.2606
  230LIG    OT2 3450   5.059   1.519   5.942  0.2708 -0.3986 -0.2001
  231LIG      N 3451   2.089   8.013   1.258  0.5084 -0.2679  0.1805
  231LIG     H1 3452   2.128   7.963   1.175  1.4102  0.7023 -0.0059
  231LIG     H2 3453   2.095   7.942   1.333  1.6751 -0.3072  0.0730
  231LIG     H3 3454   1.989   8.030   1.235  0.4678  0.8818  1.1224
  231LIG     CA 3455   2.171   8.140   1.272 -0.4337  0.3661  0.5196
  231LIG     HA 3456   2.271   8.105   1.293 -0.6633 -0.1126  0.8159
  231LIG     CB 3457   2.151   8.213   1.140  0.0046  0.4258  0.3345
  231LIG    HB1 3458   2.052   8.263   1.128  1.1315  2.1128 -2.8684
  231LIG    HB2 3459   2.151   8.152   1.047 -1.0239  0.1038  0.5321
  231LIG     CG 3460   2.264   8.310   1.113  0.3883 -0.2339 -0.1264
  231LIG    OD1 3461   2.230   8.432   1.094  0.0513  0.2987  0.1107
  231LIG    OD2 3462   2.383   8.276   1.121  0.7431  0.2153 -0.4763
  231LIG      C 3463   2.138   8.235   1.393  0.1014  0.4822 -0.2706
  231LIG    OT1 3464   2.036   8.206   1.465 -0.5157 -0.3535  0.4143
  231LIG    OT2 3465   2.219   8.327   1.423 -0.3158  0.6955 -0.1995
  232LIG      N 3466   0.368   3.447   7.990  0.0991  0.1463 -0.1704
  232LIG     H1 3467   0.269   3.417   7.980 -0.6886  2.6037 -0.3179
  232LIG     H2 3468   0.428   3.384   7.933 -2.5822 -3.5782  0.7507
  232LIG     H3 3469   0.397   3.453   8.090  0.9645  1.7300 -0.4921
  232LIG     CA 3470   0.382   3.588   7.945 -0.0498 -0.0906 -0.3342
  232LIG     HA 3471   0.429   3.645   8.024  0.6169  0.5492 -1.1638
  232LIG     CB 3472   0.463   3.584   7.816  0.2424 -0.3618  0.1140
  232LIG    HB1 3473   0.411   3.523   7.739  0.0408 -2.3765  1.7663
  232LIG    HB2 3474   0.562   3.537   7.831 -0.4724 -1.2922  2.4721
  232LIG     CG 3475   0.483   3.723   7.763 -0.2487 -0.5064  0.1673
  232LIG    OD1 3476   0.460   3.739   7.640  0.6360 -0.2012  0.6389
  232LIG    OD2 3477   0.520   3.823   7.835 -0.1323  0.2355  0.0564
  232LIG      C 3478   0.237   3.652   7.942 -0.4875 -0.0288 -0.4137
  232LIG    OT1 3479   0.138   3.582   7.969  0.5871 -0.1223  0.2171
  232LIG    OT2 3480   0.230   3.772   7.916 -0.2589  0.1979  0.1406
  233LIG      N 3481   8.231   0.015   3.751 -0.4848  0.7288  0.6446
  233LIG     H1 3482   8.182  -0.066   3.708  0.5043  1.2279 -1.5844
  233LIG     H2 3483   8.307  -0.009   3.817  0.0206  1.7250  0.4345
  233LIG     H3 3484   8.161   0.079   3.795 -0.9001  0.0404  1.0046
  233LIG     CA 3485   8.291   0.103   3.641  0.0172  0.0540 -0.3227
  233LIG     HA 3486   8.375   0.155   3.684  0.6243  0.3915 -1.8495
  233LIG     CB 3487   8.336  -0.002   3.532 -0.9959 -0.1313 -0.6645
  233LIG    HB1 3488   8.249  -0.036   3.472 -0.2407 -0.9604 -1.3352
  233LIG    HB2 3489   8.393  -0.079   3.589 -1.2881 -0.5378 -0.9203
  233LIG     CG 3490   8.449   0.046   3.445  0.6085 -0.0418 -0.1947
  233LIG    OD1 3491   8.468  -0.006   3.329  0.6794  0.0860  0.3853
  233LIG    OD2 3492   8.516   0.138   3.489  0.0036 -0.3153  0.5408
  233LIG      C 3493   8.194   0.219   3.590 -0.4567 -0.4606 -0.2194
  233LIG    OT1 3494   8.078   0.220   3.627 -0.8832 -0.3208 -0.0994
  233LIG    OT2 3495   8.235   0.299   3.504  0.2974 -0.3157  0.1357
  234LIG      N 3496   4.789   7.503   0.032 -0.0407 -0.2845 -0.3687
  234LIG     H1 3497   4.720   7.557  -0.025  1.8697  1.8804 -0.8118
  234LIG     H2 3498   4.875   7.490  -0.025  1.6922  1.2094  1.7240
  234LIG     H3 3499   4.745   7.418   0.073 -1.5906  0.9537  0.6590
  234LIG     CA 3500   4.824   7.582   0.154  0.7655  0.2374  0.0047
  234LIG     HA 3501   4.886   7.518   0.214  1.5788  0.7541 -0.2595
  234LIG     CB 3502   4.907   7.698   0.094  0.6602 -0.3125  0.1095
  234LIG    HB1 3503   4.841   7.772   0.044  3.1280  1.5620 -0.5581
  234LIG    HB2 3504   4.984   7.671   0.019  3.3475  0.6829  2.3130
  234LIG     CG 3505   4.984   7.758   0.198 -1.1267 -0.6003 -0.2032
  234LIG    OD1 3506   4.970   7.877   0.224  0.3183 -0.4029 -0.1010
  234LIG    OD2 3507   5.083   7.695   0.248  0.2413  0.3087  0.1466
  234LIG      C 3508   4.704   7.628   0.244  0.2559 -0.6807  0.0275
  234LIG    OT1 3509   4.584   7.634   0.197  0.5284  0.1914  0.2756
  234LIG    OT2 3510   4.734   7.663   0.361  0.1261 -0.2545  0.3141
  235LIG      N 3511   5.385   9.669   7.212 -0.1276 -0.0197 -0.1832
  235LIG     H1 3512   5.356   9.677   7.112  1.4678  0.4656 -0.6342
  235LIG     H2 3513   5.465   9.605   7.230  1.2696  1.5720 -0.4640
  235LIG     H3 3514   5.303   9.643   7.270  0.8455 -1.8338  0.4400
  235LIG     CA 3515   5.424   9.809   7.259 -0.6621 -0.1800 -0.1607
  235LIG     HA 3516   5.343   9.879   7.246 -0.7896 -0.2205  0.3968
  235LIG     CB 3517   5.459   9.807   7.412  0.4131  0.1074  0.0623
  235LIG    HB1 3518   5.560   9.765   7.432  1.3046  1.3628 -1.5385
  235LIG    HB2 3519   5.384   9.737   7.456  0.4303  0.4996  0.7207
  235LIG     CG 3520   5.459   9.945   7.474  0.0158  0.2260 -0.0370
  235LIG    OD1 3521   5.565   9.975   7.533  0.0061  0.3994  0.1523
  235LIG    OD2 3522   5.359  10.025   7.460  0.1142  0.4056 -0.7089
  235LIG      C 3523   5.547   9.857   7.174  0.0327  0.2343 -0.5230
  235LIG    OT1 3524   5.600   9.778   7.092 -0.2338  0.5592  0.1951
  235LIG    OT2 3525   5.583   9.980   7.178  0.3013  0.3220  0.0372
  236LIG      N 3526   0.510   0.137   3.320 -0.0166  0.2618 -0.1027
  236LIG     H1 3527   0.566   0.203   3.377  1.3925 -1.1588  0.2230
  236LIG     H2 3528   0.507   0.044   3.367  3.4340 -0.1850 -0.4989
  236LIG     H3 3529   0.564   0.121   3.233  0.3959  0.6940  0.0727
  236LIG     CA 3530   0.377   0.188   3.288 -0.2138  0.3110 -0.0437
  236LIG     HA 3531   0.334   0.137   3.203 -0.9002  1.1565 -0.2194
  236LIG     CB 3532   0.303   0.178   3.424  0.5861 -0.3930 -0.1628
  236LIG    HB1 3533   0.335   0.258   3.495 -0.5386 -0.8802  0.9229
  236LIG    HB2 3534   0.308   0.078   3.473  0.2002 -0.6770 -0.6952
  236LIG     CG 3535   0.154   0.193   3.397  0.1445  0.0105 -0.2433
  236LIG    OD1 3536   0.092   0.283   3.463 -0.1036  0.2891  0.6452
  236LIG    OD2 3537   0.091   0.132   3.306  0.0870 -0.4056  0.2129
  236LIG      C 3538   0.384   0.336   3.238 -0.0464 -0.0595 -0.6125
  236LIG    OT1 3539   0.493   0.398   3.242 -0.2126  0.0059 -0.3566
  236LIG    OT2 3540   0.278   0.393   3.198  0.0943  0.3478  0.1740
  237LIG      N 3541   4.319   1.474   2.764 -1.0607 -0.7564  0.0447
  237LIG     H1 3542   4.408   1.427   2.794 -1.7085 -1.5193  0.8436
  237LIG     H2 3543   4.243   1.441   2.826  0.6722 -0.6202  2.4037
  237LIG     H3 3544   4.297   1.452   2.665 -2.4319  0.6593  0.0099
  237LIG     CA 3545   4.324   1.628   2.777  0.2520  0.6964 -0.0322
  237LIG     HA 3546   4.380   1.652   2.866 -1.0718  0.1682  0.9690
  237LIG     CB 3547   4.374   1.681   2.637 -0.9081 -0.2359  0.6172
  237LIG    HB1 3548   4.300   1.686   2.554 -0.0521  1.2083 -0.0978
  237LIG    HB2 3549   4.457   1.614   2.606  0.4978  1.5649  0.3532
  237LIG     CG 3550   4.442   1.822   2.652  0.3924 -0.3220 -0.3669
  237LIG    OD1 3551   4.448   1.895   2.547 -0.1475 -0.7218 -0.4966
  237LIG    OD2 3552   4.490   1.846   2.760 -0.6930 -0.2025  0.2035
  237LIG      C 3553   4.186   1.687   2.799  0.5005 -0.5713 -0.2772
  237LIG    OT1 3554   4.083   1.620   2.773  0.5896 -0.9746 -0.2739
  237LIG    OT2 3555   4.181   1.810   2.832 -0.1939 -0.0944  0.0834
  238LIG      N 3556   2.217   1.315   1.506 -0.6311  0.3057  1.2577
  238LIG     H1 3557   2.116   1.332   1.524 -0.4744  0.3797  2.1027
  238LIG     H2 3558   2.257   1.389   1.444  4.1795 -1.5404  1.7128
  238LIG     H3 3559   2.213   1.224   1.456 -0.5308  1.1492 -0.3681
  238LIG     CA 3560   2.274   1.309   1.641 -0.4500 -0.8250 -0.1623
  238LIG     HA 3561   2.271   1.404   1.693 -0.4273 -1.3010  0.7257
  238LIG     CB 3562   2.192   1.198   1.712  0.0455 -0.2070  0.4238
  238LIG    HB1 3563   2.226   1.103   1.667  1.2320  1.1291 -1.6444
  238LIG    HB2 3564   2.082   1.205   1.700 -0.1800  1.4402  2.7292
  238LIG     CG 3565   2.228   1.202   1.866  0.0848  0.4858 -0.1470
  238LIG    OD1 3566   2.254   1.089   1.921  0.0187  0.0517  0.6647
  238LIG    OD2 3567   2.215   1.312   1.926 -0.0767  0.5153 -0.1021
  238LIG      C 3568   2.426   1.283   1.635  0.8943  0.3258 -0.3202
  238LIG    OT1 3569   2.482   1.252   1.530  0.1192 -1.2910  0.1356
  238LIG    OT2 3570   2.490   1.312   1.740  0.6712 -0.1813 -0.0510
  239LIG      N 3571   5.421   9.061   4.855  0.2191 -0.1050  0.2311
  239LIG     H1 3572   5.488   9.000   4.907 -0.2383 -1.4471 -0.7051
  239LIG     H2 3573   5.449   9.066   4.755 -2.0715  0.7852 -0.4254
  239LIG     H3 3574   5.433   9.151   4.905  2.0517  0.8234 -1.7210
  239LIG     CA 3575   5.276   9.021   4.847  0.0133 -0.2581 -0.3333
  239LIG     HA 3576   5.278   8.929   4.791  2.3673 -0.5149  0.0777
  239LIG     CB 3577   5.224   8.996   4.993 -0.6803  0.7254  0.5987
  239LIG    HB1 3578   5.201   9.095   5.039  0.4962  0.8698  0.9129
  239LIG    HB2 3579   5.283   8.922   5.051 -1.0722 -0.9195 -1.0045
  239LIG     CG 3580   5.094   8.918   4.990 -0.3830 -0.8293 -0.0671
  239LIG    OD1 3581   5.013   8.940   5.084  0.0748 -0.4027 -0.5250
  239LIG    OD2 3582   5.086   8.819   4.913 -0.0329  0.1014  0.4204
  239LIG      C 3583   5.194   9.129   4.780  0.2596 -0.0206 -0.4472
  239LIG    OT1 3584   5.240   9.244   4.760  0.3379 -0.2393  0.2008
  239LIG    OT2 3585   5.082   9.098   4.733  0.2528  0.5066  0.4470
  240LIG      N 3586   1.276   3.131   6.767  0.6187 -0.6078 -0.0807
  240LIG     H1 3587   1.315   3.199   6.698 -0.5666 -0.1108 -0.2975
  240LIG     H2 3588   1.352   3.102   6.832 -1.1711 -0.2090  2.3272
  240LIG     H3 3589   1.228   3.055   6.715  0.6474 -0.4010 -0.4140
  240LIG     CA 3590   1.188   3.223   6.841  0.0408  0.5704  0.8074
  240LIG     HA 3591   1.139   3.165   6.918 -0.3761 -0.5892 -0.2918
  240LIG     CB 3592   1.286   3.332   6.896  0.4368  0.8325 -0.4241
  240LIG    HB1 3593   1.332   3.389   6.812  0.0070  0.7267 -0.7363
  240LIG    HB2 3594   1.353   3.276   6.964  0.0070  4.2662  3.1768
  240LIG     CG 3595   1.215   3.423   6.992 -0.0153 -1.2136 -0.7558
  240LIG    OD1 3596   1.223   3.554   6.989  0.0846 -0.2654  0.0404
  240LIG    OD2 3597   1.151   3.364   7.083  0.1338  0.0048 -0.5728
  240LIG      C 3598   1.078   3.271   6.748  0.8237  1.4164 -0.0423
  240LIG    OT1 3599   1.069   3.232   6.628 -0.1755 -0.0425 -0.1702
  240LIG    OT2 3600   0.996   3.349   6.801 -0.0483 -0.2341 -0.3656
  241LIG      N 3601   0.707   9.651   5.006 -0.3689  0.5421  0.5142
  241LIG     H1 3602   0.796   9.688   4.966 -1.3638  1.1369 -1.2456
  241LIG     H2 3603   0.716   9.672   5.107 -0.5652 -3.6438  1.5799
  241LIG     H3 3604   0.708   9.549   4.984  0.4157  0.7971 -0.7335
  241LIG     CA 3605   0.598   9.733   4.943  0.2085  0.4577  0.3148
  241LIG     HA 3606   0.609   9.836   4.976 -1.2079 -0.1132  2.9400
  241LIG     CB 3607   0.600   9.714   4.793  0.5204  0.1768  0.3470
  241LIG    HB1 3608   0.556   9.619   4.755  0.3745 -0.6278  2.4385
  241LIG    HB2 3609   0.705   9.720   4.756  0.9795  0.7667  1.6838
  241LIG     CG 3610   0.530   9.835   4.731 -0.9721 -0.1881 -0.8242
  241LIG    OD1 3611   0.433   9.830   4.647  0.0303  0.2686  0.8518
  241LIG    OD2 3612   0.578   9.946   4.761 -0.2500  0.1385  0.0255
  241LIG      C 3613   0.461   9.688   5.003  0.6070  0.0388 -0.0817
  241LIG    OT1 3614   0.450   9.587   5.075 -0.0483 -0.1318 -0.3641
  241LIG    OT2 3615   0.360   9.762   4.984 -0.6687  0.0938  0.2973
  242LIG      N 3616   8.280   9.040   6.205 -0.0360 -0.4063 -0.7475
  242LIG     H1 3617   8.312   9.043   6.106  1.7753  1.2264 -0.1610
  242LIG     H2 3618   8.261   9.138   6.235  0.6797  0.6463 -3.4223
  242LIG     H3 3619   8.357   8.997   6.259 -1.1342  1.0865  2.2274
  242LIG     CA 3620   8.161   8.948   6.212  0.1522  0.1116 -0.0876
  242LIG     HA 3621   8.090   8.985   6.139 -0.1263  0.4691  0.3585
  242LIG     CB 3622   8.216   8.804   6.170 -0.4065  0.0939  0.0510
  242LIG    HB1 3623   8.275   8.757   6.252  0.9207  1.1913 -0.2413
  242LIG    HB2 3624   8.290   8.819   6.089  2.6854  0.6581  2.7682
  242LIG     CG 3625   8.102   8.712   6.114 -0.1566  0.4043  0.1853
  242LIG    OD1 3626   8.095   8.591   6.149 -0.5628  0.1087 -0.2252
  242LIG    OD2 3627   8.025   8.757   6.022 -0.3455 -0.0332  0.7947
  242LIG      C 3628   8.079   8.938   6.341 -0.0994  0.0753  0.2618
  242LIG    OT1 3629   8.122   8.998   6.445  0.8455  0.4035  0.4301
  242LIG    OT2 3630   7.984   8.857   6.341 -0.1861 -0.1629  0.0081
  243LIG      N 3631   5.536   8.363   7.293 -0.0008 -0.4655 -0.2521
  243LIG     H1 3632   5.579   8.416   7.371  0.5625 -1.2514 -0.0138
  243LIG     H2 3633   5.603   8.363   7.213 -0.7278  0.2917 -0.8900
  243LIG     H3 3634   5.444   8.404   7.265  0.7939  0.7143 -1.2702
  243LIG     CA 3635   5.526   8.221   7.347  0.3988 -0.5977 -0.6275
  243LIG     HA 3636   5.470   8.225   7.439 -0.8817 -2.3248 -1.2750
  243LIG     CB 3637   5.465   8.128   7.240 -0.3947 -0.3831 -0.0589
  243LIG    HB1 3638   5.524   8.105   7.149 -1.0845 -1.7850 -0.1733
  243LIG    HB2 3639   5.373   8.176   7.200 -0.1464  1.1340  1.1068
  243LIG     CG 3640   5.415   7.997   7.305 -0.3163 -0.2863 -0.0428
  243LIG    OD1 3641   5.441   7.897   7.238 -0.1862 -0.4137 -0.4929
  243LIG    OD2 3642   5.356   7.998   7.415 -0.2608  0.4542  0.0991
  243LIG      C 3643   5.665   8.158   7.388 -0.6690  0.6555  0.0807
  243LIG    OT1 3644   5.773   8.212   7.351 -0.0130  0.3577  0.8054
  243LIG    OT2 3645   5.672   8.064   7.465  0.0648  0.3192  0.3417
  244LIG      N 3646   0.104   0.344   5.437 -0.0203  0.1371  0.5298
  244LIG     H1 3647   0.099   0.447   5.451  0.1496  0.2280 -0.0371
  244LIG     H2 3648   0.171   0.336   5.357 -0.6500  0.1718 -0.0104
  244LIG     H3 3649   0.009   0.312   5.409  0.0817  0.4430 -0.2098
  244LIG     CA 3650   0.161   0.269   5.556  0.4188 -0.4477  0.0224
  244LIG     HA 3651   0.104   0.285   5.647  0.2829 -0.3812 -0.0745
  244LIG     CB 3652   0.159   0.120   5.515  0.3281  0.7780 -0.2978
  244LIG    HB1 3653   0.245   0.097   5.448  2.9558  1.5470  2.5477
  244LIG    HB2 3654   0.071   0.091   5.454 -1.8326  2.3966  1.8801
  244LIG     CG 3655   0.161   0.026   5.633 -0.2967 -0.5524  0.8301
  244LIG    OD1 3656   0.236  -0.074   5.628 -0.1495 -0.3009 -0.8725
  244LIG    OD2 3657   0.079   0.050   5.729  0.2577  0.1270 -0.1955
  244LIG      C 3658   0.298   0.306   5.603 -0.5753 -0.9106 -0.4740
  244LIG    OT1 3659   0.362   0.389   5.529  0.1079  0.6546 -0.1014
  244LIG    OT2 3660   0.344   0.264   5.715 -0.0921 -0.0424  0.0211
  245LIG      N 3661   1.122   5.635   7.202 -0.7482  0.2449  0.0389
  245LIG     H1 3662   1.055   5.572   7.251 -1.2298  1.8990  1.6518
  245LIG     H2 3663   1.111   5.738   7.212 -1.0333  0.1707  0.5276
  245LIG     H3 3664   1.107   5.606   7.104 -0.0269 -2.6675  0.6743
  245LIG     CA 3665   1.263   5.605   7.241  0.0707 -0.1209 -0.5749
  245LIG     HA 3666   1.323   5.694   7.237 -1.7282  1.2297  0.9442
  245LIG     CB 3667   1.264   5.566   7.391  0.2304  0.0810  0.9406
  245LIG    HB1 3668   1.203   5.475   7.408  0.2602 -0.4873 -1.7059
  245LIG    HB2 3669   1.223   5.651   7.450 -0.4711 -0.9059  1.9247
  245LIG     CG 3670   1.403   5.557   7.448  0.7432 -0.3004  0.3125
  245LIG    OD1 3671   1.434   5.465   7.532 -0.6443 -0.7702  0.1524
  245LIG    OD2 3672   1.489   5.641   7.411  0.2131 -0.8552  0.4378
  245LIG      C 3673   1.325   5.495   7.151 -0.0707 -0.5034 -0.2470
  245LIG    OT1 3674   1.257   5.442   7.057  0.3233 -0.2910 -0.0126
  245LIG    OT2 3675   1.449   5.469   7.165  0.0670  0.9176 -0.4064
  246LIG      N 3676   0.012   2.063   0.284  0.1770  0.0269  0.0830
  246LIG     H1 3677  -0.056   1.987   0.264 -1.0344  0.6776  1.5308
  246LIG     H2 3678  -0.016   2.123   0.365 -0.4715  1.9820 -1.5056
  246LIG     H3 3679   0.012   2.124   0.200 -1.0366 -1.8286 -1.3625
  246LIG     CA 3680   0.144   2.004   0.298  0.8180 -0.6076 -0.5490
  246LIG     HA 3681   0.203   2.086   0.336  0.6565  0.0871 -1.7804
  246LIG     CB 3682   0.124   1.882   0.392 -0.2715 -0.0416 -0.7551
  246LIG    HB1 3683   0.071   1.804   0.334  0.4865 -0.6310 -0.6626
  246LIG    HB2 3684   0.065   1.899   0.484  1.9045  0.1841  0.6690
  246LIG     CG 3685   0.253   1.820   0.440 -0.2132 -0.3066 -0.0817
  246LIG    OD1 3686   0.252   1.700   0.477  0.0906  0.5091  0.2119
  246LIG    OD2 3687   0.352   1.895   0.469  0.6138  0.0856 -0.3590
  246LIG      C 3688   0.192   1.955   0.157 -1.0135 -0.1122  0.3569
  246LIG    OT1 3689   0.122   1.985   0.058  0.1941 -0.1042  0.2264
  246LIG    OT2 3690   0.295   1.882   0.149  0.4117  0.5088 -0.1414
  247LIG      N 3691   8.168   9.328   0.627  0.0089 -0.3622  0.1897
  247LIG     H1 3692   8.197   9.287   0.718 -1.5793 -0.9648  0.4711
  247LIG     H2 3693   8.064   9.321   0.622 -0.0082  0.4113 -0.6357
  247LIG     H3 3694   8.214   9.274   0.551  3.0203  0.6502  1.1511
  247LIG     CA 3695   8.212   9.471   0.631  0.7842 -0.3269 -0.2018
  247LIG     HA 3696   8.303   9.467   0.574  1.2083 -0.5998  0.4866
  247LIG     CB 3697   8.092   9.550   0.564  0.1989  0.5632  0.1074
  247LIG    HB1 3698   8.001   9.549   0.627  1.1543  2.3202  1.6252
  247LIG    HB2 3699   8.065   9.503   0.467 -1.7034 -2.6881  2.0104
  247LIG     CG 3700   8.131   9.691   0.545 -0.1372 -1.1485  0.4719
  247LIG    OD1 3701   8.048   9.781   0.576 -0.2059  0.0924  0.4137
  247LIG    OD2 3702   8.238   9.718   0.488 -0.0086 -0.5118  0.3701
  247LIG      C 3703   8.243   9.512   0.778 -0.1295 -0.4596 -0.0908
  247LIG    OT1 3704   8.222   9.431   0.871 -0.0385  0.2410  0.6114
  247LIG    OT2 3705   8.296   9.622   0.801  0.6485 -0.3116  0.2945
  248LIG      N 3706   8.179   8.204   2.885  0.4959 -0.2288 -0.3114
  248LIG     H1 3707   8.188   8.275   2.809  2.0041  0.0866  0.1296
  248LIG     H2 3708   8.088   8.154   2.874 -1.7638  3.2163  0.9795
  248LIG     H3 3709   8.173   8.262   2.972  1.8192 -1.6666  0.7897
  248LIG     CA 3710   8.287   8.115   2.915 -0.2813  0.2679  0.4669
  248LIG     HA 3711   8.304   8.049   2.832  2.3011 -1.1996  2.0413
  248LIG     CB 3712   8.410   8.199   2.945  0.0338 -0.2206  0.4663
  248LIG    HB1 3713   8.394   8.252   3.041  0.8219  1.7215 -0.4253
  248LIG    HB2 3714   8.424   8.283   2.873  2.4455 -0.8320  0.1432
  248LIG     CG 3715   8.538   8.118   2.957  0.1856  0.2491  0.1621
  248LIG    OD1 3716   8.610   8.136   3.062  0.3278 -0.4850 -0.1525
  248LIG    OD2 3717   8.581   8.055   2.859 -0.5423  0.0094  0.4696
  248LIG      C 3718   8.254   8.026   3.039  0.6912 -0.0362 -0.3713
  248LIG    OT1 3719   8.146   8.026   3.108  0.2828 -0.3371  0.1542
  248LIG    OT2 3720   8.342   7.941   3.076 -0.2995 -0.9122  0.0073
  249LIG      N 3721   6.764   1.581   0.526 -0.4080  0.4422 -0.4044
  249LIG     H1 3722   6.707   1.580   0.613  1.1918  0.5702  0.6995
  249LIG     H2 3723   6.718   1.518   0.457  0.7756 -1.3804  0.3695
  249LIG     H3 3724   6.851   1.529   0.550 -0.5838  0.5610  0.5340
  249LIG     CA 3725   6.791   1.711   0.469  0.0096 -0.0795 -0.0724
  249LIG     HA 3726   6.694   1.758   0.462  0.1066 -0.0261 -1.3975
  249LIG     CB 3727   6.902   1.780   0.559  0.1736  0.7458  0.4083
  249LIG    HB1 3728   7.003   1.737   0.543  0.7899  2.2302  0.0702
  249LIG    HB2 3729   6.872   1.764   0.665 -0.7678  0.5002  0.1206
  249LIG     CG 3730   6.911   1.928   0.527 -0.4647  0.1963 -0.4364
  249LIG    OD1 3731   7.021   1.981   0.507 -0.2330  0.1663 -0.2578
  249LIG    OD2 3732   6.805   1.996   0.533  0.2876  0.4053 -0.6230
  249LIG      C 3733   6.843   1.688   0.323 -0.3264 -0.1557  0.5133
  249LIG    OT1 3734   6.863   1.570   0.283  0.2273  0.2991  0.3741
  249LIG    OT2 3735   6.881   1.785   0.257 -0.0935 -0.1605  0.0723
  250LIG      N 3736   0.937   6.883   9.327  0.4277 -0.1413  0.5470
  250LIG     H1 3737   0.911   6.850   9.422  0.8904 -2.5865 -0.1062
  250LIG     H2 3738   0.878   6.833   9.258  1.6840 -0.1440 -0.5810
  250LIG     H3 3739   1.038   6.862   9.314  0.4972  1.3539 -2.1541
  250LIG     CA 3740   0.919   7.030   9.334 -0.3943  0.1046 -0.2639
  250LIG     HA 3741   0.811   7.040   9.331 -0.6738 -2.3556 -0.6933
  250LIG     CB 3742   0.973   7.082   9.475 -0.0599  0.2489  0.7297
  250LIG    HB1 3743   1.083   7.099   9.476 -0.2996  2.0053  1.1354
  250LIG    HB2 3744   0.944   7.014   9.559 -1.3696 -0.0137  0.0981
  250LIG     CG 3745   0.905   7.211   9.502 -0.3082  0.4274 -0.1544
  250LIG    OD1 3746   0.977   7.294   9.566  0.0105 -0.4476 -0.2562
  250LIG    OD2 3747   0.782   7.229   9.471  0.0469 -0.6418  0.3059
  250LIG      C 3748   0.989   7.091   9.215 -0.1797 -0.5072 -0.2050
  250LIG    OT1 3749   1.054   7.029   9.132 -0.3521  0.4025 -0.5194
  250LIG    OT2 3750   0.981   7.216   9.202 -0.3085  0.2539 -0.1737
  251LIG      N 3751   9.663   0.873   3.147  0.1537  0.3083 -0.2077
  251LIG     H1 3752   9.678   0.878   3.250  1.5347  1.0032 -0.4164
  251LIG     H2 3753   9.582   0.809   3.136  0.3358 -0.2800  1.6570
  251LIG     H3 3754   9.738   0.830   3.090 -1.4224  0.3418 -2.4439
  251LIG     CA 3755   9.625   1.012   3.094  0.3029  0.5095  0.4388
  251LIG     HA 3756   9.706   1.074   3.128 -1.1087  1.1977  2.8159
  251LIG     CB 3757   9.603   0.993   2.941 -0.0541  0.4214  0.5750
  251LIG    HB1 3758   9.500   0.954   2.926  0.6390 -0.7766 -1.5203
  251LIG    HB2 3759   9.670   0.922   2.887  0.2436  1.4349 -0.4240
  251LIG     CG 3760   9.604   1.123   2.865 -0.6713 -0.7188 -0.2510
  251LIG    OD1 3761   9.515   1.143   2.781  0.2984  0.2860 -0.3834
  251LIG    OD2 3762   9.697   1.208   2.895  0.1287 -0.2310  0.4161
  251LIG      C 3763   9.489   1.066   3.156  0.2178  0.2381 -0.0408
  251LIG    OT1 3764   9.417   0.981   3.208  0.2759 -0.5491  0.6756
  251LIG    OT2 3765   9.464   1.189   3.160 -0.6372 -0.1942 -0.5515
  252LIG      N 3766   3.094   7.706   0.677  0.6454  0.1589 -0.1914
  252LIG     H1 3767   3.084   7.708   0.573 -0.8457  0.0871 -0.0720
  252LIG     H2 3768   3.051   7.615   0.702 -0.6209  0.7027 -0.3223
  252LIG     H3 3769   3.036   7.776   0.727  1.6233  0.5714  0.4033
  252LIG     CA 3770   3.233   7.717   0.718 -0.7658  0.2876  0.4003
  252LIG     HA 3771   3.266   7.814   0.687  0.2991 -0.5974 -1.4012
  252LIG     CB 3772   3.238   7.700   0.873 -0.2018 -0.1638 -0.2263
  252LIG    HB1 3773   3.222   7.595   0.907 -0.7433  0.9759  3.4835
  252LIG    HB2 3774   3.160   7.760   0.925  0.7374  1.2189 -0.3614
  252LIG     CG 3775   3.371   7.754   0.922  0.0991  0.3744 -0.4520
  252LIG    OD1 3776   3.439   7.683   1.000  0.1624 -0.8944  0.3492
  252LIG    OD2 3777   3.417   7.873   0.894  0.0666  0.6608 -0.3168
  252LIG      C 3778   3.340   7.619   0.649 -0.0037  0.7139  0.2467
  252LIG    OT1 3779   3.293   7.524   0.581  0.4207 -0.7215  0.3629
  252LIG    OT2 3780   3.462   7.629   0.669 -0.9257 -0.1022  0.2196
  253LIG      N 3781   2.476   9.325   1.495 -0.5469 -0.4214  0.0020
  253LIG     H1 3782   2.555   9.360   1.436 -0.2605  2.0875  1.7040
  253LIG     H2 3783   2.431   9.242   1.451 -1.7190  0.0201  0.3451
  253LIG     H3 3784   2.402   9.398   1.487 -0.2263  0.1166  1.6334
  253LIG     CA 3785   2.542   9.310   1.631 -0.2547  0.1253  0.0752
  253LIG     HA 3786   2.611   9.393   1.633 -1.1746  0.8882  0.6474
  253LIG     CB 3787   2.429   9.336   1.736  0.0212  0.8984 -0.5692
  253LIG    HB1 3788   2.377   9.239   1.750  0.3479  0.4931 -1.9666
  253LIG    HB2 3789   2.351   9.406   1.700  0.8539  1.9930 -0.3071
  253LIG     CG 3790   2.488   9.389   1.865 -0.1922  0.4986  0.4066
  253LIG    OD1 3791   2.462   9.337   1.972  0.2577  0.4209  0.5412
  253LIG    OD2 3792   2.564   9.488   1.861  0.4552 -0.5840 -0.2871
  253LIG      C 3793   2.620   9.175   1.654  0.8888 -0.3338  0.3833
  253LIG    OT1 3794   2.617   9.103   1.551  0.7148  0.1911  0.3021
  253LIG    OT2 3795   2.694   9.155   1.753 -0.2436 -0.3708 -0.1582
  254LIG      N 3796   2.877   8.556   7.602  0.2529 -0.4603  0.2137
  254LIG     H1 3797   2.940   8.485   7.643  1.5199  0.6638  0.2977
  254LIG     H2 3798   2.800   8.592   7.663  0.5920  0.2918  0.2068
  254LIG     H3 3799   2.823   8.504   7.530 -0.3656 -2.4899  2.0347
  254LIG     CA 3800   2.953   8.678   7.558  0.3801  0.1412 -0.6601
  254LIG     HA 3801   2.923   8.702   7.457 -0.0719  3.5156  0.1700
  254LIG     CB 3802   2.930   8.787   7.664  0.0170  0.2738  0.3851
  254LIG    HB1 3803   2.983   8.762   7.758 -1.0978  0.3615  1.0509
  254LIG    HB2 3804   2.823   8.803   7.688  0.5541  3.5060  1.1318
  254LIG     CG 3805   2.976   8.922   7.604  0.5107 -0.0961  0.2960
  254LIG    OD1 3806   3.052   8.991   7.674 -0.7169 -0.0426 -0.3349
  254LIG    OD2 3807   2.944   8.954   7.484  0.1486  0.7478 -0.1129
  254LIG      C 3808   3.099   8.639   7.544 -0.4688 -0.2409 -0.5457
  254LIG    OT1 3809   3.144   8.530   7.591  0.3585  0.4390  0.6148
  254LIG    OT2 3810   3.176   8.718   7.485 -0.6983  0.2900 -0.2214
  255LIG      N 3811   9.734   8.946   3.785  0.2032  0.0099  0.0540
  255LIG     H1 3812   9.791   8.954   3.872  0.0157  2.8095 -0.0078
  255LIG     H2 3813   9.633   8.968   3.798  0.0408  0.3360 -1.5568
  255LIG     H3 3814   9.750   8.846   3.761 -0.0391 -0.7958  2.8920
  255LIG     CA 3815   9.775   9.045   3.681  0.3002 -0.6336  0.5875
  255LIG     HA 3816   9.685   9.062   3.622 -0.2380 -1.3424  1.1917
  255LIG     CB 3817   9.811   9.177   3.756 -0.6587 -0.7475 -0.0683
  255LIG    HB1 3818   9.909   9.164   3.805 -0.2217  2.2783  0.0733
  255LIG    HB2 3819   9.747   9.186   3.846  0.5964 -2.7389  1.0865
  255LIG     CG 3820   9.800   9.303   3.668 -0.1953  0.3942 -0.3964
  255LIG    OD1 3821   9.892   9.384   3.689  0.4672 -0.0007  0.1283
  255LIG    OD2 3822   9.697   9.328   3.602  0.1197 -0.8250  0.4288
  255LIG      C 3823   9.891   9.004   3.590  0.0273 -0.3053 -0.2688
  255LIG    OT1 3824   9.953   8.897   3.606 -0.6124  0.7004 -0.0923
  255LIG    OT2 3825   9.916   9.079   3.495 -0.6084 -0.0087  0.3170
  256LIG      N 3826   0.748   6.261   1.134  0.0473  0.2970  0.5121
  256LIG     H1 3827   0.763   6.286   1.233  1.0983 -1.4017  0.8275
  256LIG     H2 3828   0.680   6.335   1.108 -1.8746 -0.5381  2.8495
  256LIG     H3 3829   0.701   6.168   1.136  1.1770 -0.2854  2.5320
  256LIG     CA 3830   0.875   6.270   1.052 -0.0554  0.2017 -0.2546
  256LIG     HA 3831   0.941   6.347   1.089 -1.0656  1.5931 -1.2349
  256LIG     CB 3832   0.937   6.130   1.073 -0.0412  0.0918 -0.3885
  256LIG    HB1 3833   0.878   6.039   1.046 -0.7307 -0.0326  1.3740
  256LIG    HB2 3834   0.950   6.117   1.183 -1.7602  1.7957  0.0604
  256LIG     CG 3835   1.078   6.124   1.022 -0.4851  0.3244 -0.0273
  256LIG    OD1 3836   1.124   6.021   0.960 -0.4981 -0.0602 -0.1409
  256LIG    OD2 3837   1.158   6.222   1.051  1.0113  0.0922 -0.2097
  256LIG      C 3838   0.849   6.298   0.902 -0.7398 -0.8756 -0.3305
  256LIG    OT1 3839   0.733   6.309   0.855 -0.4624  0.3274 -0.1896
  256LIG    OT2 3840   0.951   6.319   0.826  0.4546 -0.1932 -0.4677
  257LIG      N 3841   0.381   0.072   9.812  0.1123 -0.2290  0.1103
  257LIG     H1 3842   0.466   0.106   9.862  2.2812 -2.5077 -1.6863
  257LIG     H2 3843   0.375  -0.030   9.832  0.7366 -0.2131  0.4029
  257LIG     H3 3844   0.401   0.091   9.711 -0.0420 -0.4912  0.0285
  257LIG     CA 3845   0.279   0.165   9.848  0.2548  0.3676  0.0426
  257LIG     HA 3846   0.262   0.154   9.954  1.6230  0.9827  0.3466
  257LIG     CB 3847   0.334   0.310   9.820 -0.5368  0.4620  0.1622
  257LIG    HB1 3848   0.318   0.337   9.714  0.1098 -1.6254 -0.5181
  257LIG    HB2 3849   0.443   0.321   9.839 -0.1359 -2.6013  0.1607
  257LIG     CG 3850   0.258   0.405   9.908  0.0864  0.0972  0.0867
  257LIG    OD1 3851   0.212   0.507   9.857  0.3913  0.0541 -0.5414
  257LIG    OD2 3852   0.241   0.371  10.029  0.1205  0.5693  0.1243
  257LIG      C 3853   0.141   0.136   9.774 -0.0847  0.6836  0.3880
  257LIG    OT1 3854   0.134   0.032   9.699  0.1830 -0.3708 -0.4478
  257LIG    OT2 3855   0.044   0.210   9.802 -0.1778 -0.1746  0.3310
  258LIG      N 3856   2.073   8.021   8.467 -0.1607 -0.2750  0.1027
  258LIG     H1 3857   2.117   8.054   8.379 -1.9113  1.5019 -0.1762
  258LIG     H2 3858   2.050   8.107   8.522  0.4904 -0.7435  1.1434
  258LIG     H3 3859   2.128   7.967   8.537  0.2129 -0.2157 -0.1453
  258LIG     CA 3860   1.953   7.944   8.442 -0.1122 -0.3791 -0.1838
  258LIG     HA 3861   1.931   7.891   8.533  0.9104 -0.8696 -0.2069
  258LIG     CB 3862   1.844   8.033   8.397  0.4548 -0.5317  0.2556
  258LIG    HB1 3863   1.853   8.058   8.289 -1.5608 -3.1911 -0.6399
  258LIG    HB2 3864   1.834   8.133   8.443  0.0839 -0.4404 -0.0166
  258LIG     CG 3865   1.708   7.976   8.417  0.8010 -0.5505  0.4114
  258LIG    OD1 3866   1.612   7.999   8.338  0.2071 -0.0690 -0.2409
  258LIG    OD2 3867   1.692   7.927   8.530 -0.1358 -0.2666 -0.0553
  258LIG      C 3868   1.978   7.831   8.329  0.5497  0.3212 -0.5453
  258LIG    OT1 3869   2.082   7.830   8.263 -0.4690  0.4023 -0.0959
  258LIG    OT2 3870   1.887   7.743   8.314  0.1231 -0.1843  0.0875
  259LIG      N 3871   1.146   4.666   2.507  0.1329 -0.5320  0.3492
  259LIG     H1 3872   1.172   4.574   2.465  0.7910  0.0032 -0.4394
  259LIG     H2 3873   1.204   4.679   2.593 -0.7418  1.5239  0.6838
  259LIG     H3 3874   1.046   4.662   2.533 -0.5756  1.4368 -1.8128
  259LIG     CA 3875   1.182   4.760   2.405 -0.2834 -0.0826 -0.3309
  259LIG     HA 3876   1.167   4.859   2.446  0.1625 -0.0521 -0.2344
  259LIG     CB 3877   1.330   4.716   2.373  0.0673 -0.7141 -0.1471
  259LIG    HB1 3878   1.327   4.640   2.292  0.0234  0.6779 -1.5007
  259LIG    HB2 3879   1.382   4.676   2.463 -1.0850 -0.4004  0.6707
  259LIG     CG 3880   1.406   4.838   2.325 -0.2712 -0.4815 -0.6962
  259LIG    OD1 3881   1.505   4.824   2.246 -0.2823 -0.2362 -0.1402
  259LIG    OD2 3882   1.378   4.953   2.374 -0.1772  0.3731 -0.6396
  259LIG      C 3883   1.093   4.740   2.277  0.3662 -0.4728  0.5247
  259LIG    OT1 3884   1.015   4.645   2.254  0.2495 -0.3728 -0.2615
  259LIG    OT2 3885   1.114   4.835   2.187 -0.2261 -0.0460  0.3829
  260LIG      N 3886   8.747   3.877   1.723  0.1265  0.7686 -0.0409
  260LIG     H1 3887   8.792   3.790   1.688 -0.5149  0.6649 -0.6409
  260LIG     H2 3888   8.774   3.888   1.822 -1.3624 -1.1908  0.6431
  260LIG     H3 3889   8.645   3.865   1.705  0.3071 -3.0457  0.6110
  260LIG     CA 3890   8.797   3.985   1.638  0.3327  0.2418  0.4893
  260LIG     HA 3891   8.734   4.066   1.671  0.6814  0.6267  0.2072
  260LIG     CB 3892   8.951   4.015   1.684  0.4468 -0.4144  0.2895
  260LIG    HB1 3893   8.998   3.938   1.620 -1.8820 -0.4041 -1.5515
  260LIG    HB2 3894   8.971   3.998   1.792 -0.9299 -1.1621  0.4506
  260LIG     CG 3895   8.984   4.156   1.649 -0.2483 -0.3240  0.0259
  260LIG    OD1 3896   9.054   4.188   1.552  0.3223  0.7515  0.1864
  260LIG    OD2 3897   8.934   4.246   1.724  0.2169 -0.2531  0.4623
  260LIG      C 3898   8.772   3.962   1.480 -0.0702 -1.1830  0.2973
  260LIG    OT1 3899   8.706   3.862   1.442  0.5775 -0.2464 -0.4961
  260LIG    OT2 3900   8.827   4.046   1.401  0.3036 -0.0257  0.0049
  261LIG      N 3901   9.729   9.242   5.837  0.3774 -0.9512 -0.1193
  261LIG     H1 3902   9.663   9.316   5.805 -0.0332 -1.0639  0.4595
  261LIG     H2 3903   9.772   9.276   5.925 -1.7979  0.0615  0.6363
  261LIG     H3 3904   9.802   9.221   5.765  2.1733 -1.8303  1.8633
  261LIG     CA 3905   9.659   9.117   5.870 -0.0585  0.5081  0.7429
  261LIG     HA 3906   9.724   9.042   5.911 -1.3345 -1.6693 -0.9959
  261LIG     CB 3907   9.538   9.144   5.974  0.0138 -0.4443  0.6479
  261LIG    HB1 3908   9.452   9.194   5.923 -0.6358 -2.0910  0.0762
  261LIG    HB2 3909   9.570   9.223   6.045 -0.9075 -1.2681  2.0180
  261LIG     CG 3910   9.490   9.020   6.041 -0.1239  0.4335 -0.3316
  261LIG    OD1 3911   9.371   8.996   6.056  0.8334  0.1066 -0.4359
  261LIG    OD2 3912   9.578   8.943   6.095  0.3394  0.2091 -0.5329
  261LIG      C 3913   9.597   9.055   5.743  0.5111  0.9352  0.3114
  261LIG    OT1 3914   9.607   9.119   5.634  0.6813 -0.2422 -0.6595
  261LIG    OT2 3915   9.537   8.942   5.752  0.3015 -0.1630  0.4548
  262LIG      N 3916   7.675   1.447   6.059 -0.8337 -0.2399  0.1495
  262LIG     H1 3917   7.601   1.455   6.132  1.4591 -2.1670  2.8938
  262LIG     H2 3918   7.706   1.348   6.051  1.1314  0.3298  0.1433
  262LIG     H3 3919   7.749   1.504   6.103 -1.5416 -0.5030  1.7457
  262LIG     CA 3920   7.644   1.503   5.920 -0.4065 -0.2987 -0.1608
  262LIG     HA 3921   7.541   1.535   5.921 -1.0123 -2.1656 -0.0397
  262LIG     CB 3922   7.743   1.624   5.894  0.0278  0.1410  0.5262
  262LIG    HB1 3923   7.841   1.581   5.864  0.1423  1.4341 -1.1604
  262LIG    HB2 3924   7.741   1.689   5.984 -1.8054 -0.6607  1.1241
  262LIG     CG 3925   7.713   1.724   5.781  0.2117  0.4759  0.4337
  262LIG    OD1 3926   7.808   1.755   5.703 -0.3851 -0.1643 -0.0517
  262LIG    OD2 3927   7.600   1.782   5.782  0.0672 -0.4624 -0.2304
  262LIG      C 3928   7.661   1.398   5.802  0.1138  0.6376 -0.2123
  262LIG    OT1 3929   7.702   1.283   5.823  0.7509  0.4221 -0.2419
  262LIG    OT2 3930   7.619   1.430   5.691 -0.4697 -0.3947  0.5012
  263LIG      N 3931   5.640   5.485   9.054 -1.1152  0.8354 -0.0714
  263LIG     H1 3932   5.670   5.389   9.028  0.1402  1.4405 -0.9416
  263LIG     H2 3933   5.550   5.510   9.009 -1.2921 -0.6825 -0.6021
  263LIG     H3 3934   5.714   5.550   9.021 -0.2188 -0.2229 -0.1853
  263LIG     CA 3935   5.614   5.492   9.207 -0.4654  0.1403  0.2649
  263LIG     HA 3936   5.557   5.405   9.236 -0.7216  0.4601  0.7296
  263LIG     CB 3937   5.753   5.510   9.274 -0.1619 -0.7863 -0.4422
  263LIG    HB1 3938   5.792   5.612   9.252 -0.8674 -0.1918  0.9469
  263LIG    HB2 3939   5.832   5.440   9.242  0.7424 -0.4603  0.9830
  263LIG     CG 3940   5.751   5.487   9.424  0.4850 -0.3228 -0.2165
  263LIG    OD1 3941   5.826   5.558   9.497 -0.1815 -0.1155  0.5230
  263LIG    OD2 3942   5.696   5.381   9.469 -0.2729  0.2357  0.3547
  263LIG      C 3943   5.522   5.618   9.230  0.1147  0.3114 -0.2578
  263LIG    OT1 3944   5.511   5.702   9.142 -0.0810  0.3861 -0.0837
  263LIG    OT2 3945   5.438   5.611   9.327 -0.3296  0.2705  0.2941
  264LIG      N 3946   0.087   7.205   8.958 -0.5670 -0.6027  0.3305
  264LIG     H1 3947   0.039   7.231   8.869 -1.1778 -0.0242  0.8156
  264LIG     H2 3948   0.030   7.240   9.037 -0.8303 -0.6070  0.1447
  264LIG     H3 3949   0.176   7.257   8.967 -1.6710  1.1216  2.1695
  264LIG     CA 3950   0.096   7.058   8.952 -0.4586 -0.2437 -0.4636
  264LIG     HA 3951   0.170   7.028   8.879  0.4771 -1.1783  0.8162
  264LIG     CB 3952   0.110   7.009   9.098 -0.7278 -0.5630  0.0715
  264LIG    HB1 3953   0.011   6.994   9.148 -1.1509  0.2056 -0.5114
  264LIG    HB2 3954   0.170   7.073   9.166 -1.3576  1.1589 -0.9477
  264LIG     CG 3955   0.173   6.873   9.096 -0.0040  0.9817  0.1189
  264LIG    OD1 3956   0.127   6.780   9.166  0.9861  0.0596  0.0699
  264LIG    OD2 3957   0.278   6.857   9.023 -0.1521  0.6050  0.6906
  264LIG      C 3958  -0.024   6.995   8.887  0.1931  0.4709 -0.1346
  264LIG    OT1 3959  -0.105   7.065   8.821  0.6213  0.4562 -0.4824
  264LIG    OT2 3960  -0.039   6.869   8.889 -0.6192 -0.0982  0.3778
  265LIG      N 3961   7.289   7.594   0.385 -0.3377  0.4082  0.3703
  265LIG     H1 3962   7.187   7.576   0.378 -0.4607  1.4056 -0.9245
  265LIG     H2 3963   7.301   7.695   0.362  0.2848  0.0997 -0.7504
  265LIG     H3 3964   7.345   7.538   0.317 -0.3128 -0.6723  1.2614
  265LIG     CA 3965   7.333   7.563   0.519  0.3381  0.6765  0.0428
  265LIG     HA 3966   7.438   7.586   0.529  1.3011 -3.0469 -0.0459
  265LIG     CB 3967   7.264   7.675   0.596  0.4672 -0.0190 -0.1519
  265LIG    HB1 3968   7.155   7.654   0.598  0.6727 -1.4699 -1.6442
  265LIG    HB2 3969   7.273   7.780   0.562 -2.9065  0.6825  0.7957
  265LIG     CG 3970   7.324   7.689   0.734 -0.3262  0.3436 -0.3442
  265LIG    OD1 3971   7.268   7.635   0.834 -0.2676 -0.3611  0.7192
  265LIG    OD2 3972   7.440   7.733   0.736  0.2308 -0.3063  0.5763
  265LIG      C 3973   7.298   7.422   0.572  0.3803 -0.3635  0.7225
  265LIG    OT1 3974   7.216   7.350   0.511 -0.1344  0.3911  0.3909
  265LIG    OT2 3975   7.366   7.382   0.674  0.1997 -0.8575  0.7671
  266LIG      N 3976   9.534   2.430   9.197  0.6411 -0.4547  0.7164
  266LIG     H1 3977   9.522   2.378   9.286 -0.1795 -1.6190 -0.0441
  266LIG     H2 3978   9.610   2.500   9.203  0.8600 -0.3062 -2.2810
  266LIG     H3 3979   9.451   2.485   9.169 -1.0107 -3.6730 -1.3867
  266LIG     CA 3980   9.567   2.328   9.087  0.8655 -0.3900  0.2740
  266LIG     HA 3981   9.495   2.248   9.080  0.2960 -0.0456  1.7594
  266LIG     CB 3982   9.563   2.408   8.949 -0.5310  0.1191  0.9641
  266LIG    HB1 3983   9.643   2.485   8.955  2.1193 -2.2663 -1.2758
  266LIG    HB2 3984   9.467   2.465   8.947  0.6488  2.1867  0.3717
  266LIG     CG 3985   9.577   2.317   8.832  0.0225  0.2006  0.4263
  266LIG    OD1 3986   9.662   2.347   8.746 -0.2916  0.1101 -0.3537
  266LIG    OD2 3987   9.496   2.218   8.816 -0.2879  0.1518  0.1612
  266LIG      C 3988   9.700   2.263   9.107  0.7787 -0.0428  0.6516
  266LIG    OT1 3989   9.781   2.301   9.194  0.1580 -0.6555  0.1463
  266LIG    OT2 3990   9.723   2.160   9.036 -0.5258 -0.1862  0.1168
  267LIG      N 3991   7.413   9.169   2.452 -0.2519 -0.5176 -0.6007
  267LIG     H1 3992   7.342   9.215   2.512 -0.1218 -1.4631  0.2992
  267LIG     H2 3993   7.383   9.072   2.426 -3.1791  0.0347  0.3357
  267LIG     H3 3994   7.502   9.175   2.506 -1.1769  1.2839  0.8062
  267LIG     CA 3995   7.436   9.253   2.323  0.1234  0.3953 -0.1893
  267LIG     HA 3996   7.496   9.196   2.253 -0.9008 -0.9231 -0.0411
  267LIG     CB 3997   7.296   9.276   2.261 -0.2252  0.2350  0.3631
  267LIG    HB1 3998   7.241   9.360   2.307 -0.3320  0.2720  0.1681
  267LIG    HB2 3999   7.226   9.190   2.270 -0.6755  0.6867  1.3630
  267LIG     CG 4000   7.320   9.315   2.116  1.0019  0.3382  0.2425
  267LIG    OD1 4001   7.275   9.427   2.079  0.2005 -0.5787  0.0851
  267LIG    OD2 4002   7.369   9.231   2.036  0.1418  0.3183  0.3208
  267LIG      C 4003   7.510   9.383   2.348 -0.7101  0.2844 -0.3761
  267LIG    OT1 4004   7.519   9.432   2.462 -1.3133  0.1463  0.0654
  267LIG    OT2 4005   7.566   9.440   2.250 -0.2302  0.2868  1.3152
  268LIG      N 4006   0.839   4.405   2.692 -0.2136  0.1583 -0.0782
  268LIG     H1 4007   0.927   4.388   2.640 -1.6204 -2.0296 -1.8639
  268LIG     H2 4008   0.763   4.339   2.666 -0.0091  0.1429 -0.6496
  268LIG     H3 4009   0.816   4.504   2.670  1.5876  0.3455 -1.3145
  268LIG     CA 4010   0.873   4.388   2.833  0.6328  0.5101 -1.0199
  268LIG     HA 4011   0.900   4.284   2.841 -0.5928  0.1594 -1.1876
  268LIG     CB 4012   0.986   4.485   2.861 -0.7205 -1.0793 -0.3197
  268LIG    HB1 4013   0.935   4.582   2.872 -0.6716 -1.2691  2.0990
  268LIG    HB2 4014   1.059   4.493   2.777 -2.0890 -0.4711 -1.4893
  268LIG     CG 4015   1.059   4.467   2.988 -0.1847 -0.6867 -0.2669
  268LIG    OD1 4016   1.087   4.571   3.049 -0.7053 -0.3653  0.4659
  268LIG    OD2 4017   1.111   4.352   3.019 -0.2447 -0.6218  0.3736
  268LIG      C 4018   0.759   4.405   2.942  0.2969 -0.0555  0.5923
  268LIG    OT1 4019   0.640   4.430   2.907  0.0321  0.1335 -0.2581
  268LIG    OT2 4020   0.790   4.384   3.063  0.2266 -0.6553  0.1721
  269LIG      N 4021   5.236   9.832   5.152 -0.5766 -0.1650  0.0606
  269LIG     H1 4022   5.304   9.910   5.139 -0.9800  0.1382 -0.2855
  269LIG     H2 4023   5.153   9.857   5.210 -0.3917  1.8864 -0.4775
  269LIG     H3 4024   5.297   9.764   5.201  1.2920  0.8731 -0.7128
  269LIG     CA 4025   5.184   9.784   5.022  0.2908  0.2917 -0.4467
  269LIG     HA 4026   5.141   9.686   5.036  1.6856 -0.2651  0.1282
  269LIG     CB 4027   5.066   9.884   4.988 -0.6670 -0.1374 -0.2368
  269LIG    HB1 4028   5.103   9.980   4.945 -0.6705  0.6162  1.3942
  269LIG    HB2 4029   5.028   9.918   5.087  1.9127 -0.6965  1.0166
  269LIG     CG 4030   4.960   9.823   4.901  0.1746  0.0172  0.5401
  269LIG    OD1 4031   4.919   9.888   4.802 -0.1447  0.0548  0.4788
  269LIG    OD2 4032   4.919   9.704   4.923  0.1742 -0.5636  0.0952
  269LIG      C 4033   5.285   9.773   4.906  0.1632  0.5743 -0.3738
  269LIG    OT1 4034   5.406   9.810   4.919  0.1661 -0.3466 -0.1095
  269LIG    OT2 4035   5.246   9.717   4.804  0.0677 -0.1677 -0.1019
  270LIG      N 4036   2.032   9.770   0.219  0.0774 -0.0655  0.2599
  270LIG     H1 4037   2.069   9.687   0.269 -0.1070 -0.1067  0.3282
  270LIG     H2 4038   1.990   9.841   0.283 -0.1723  0.3340 -0.3405
  270LIG     H3 4039   1.970   9.732   0.145 -1.7393  0.1962  1.5559
  270LIG     CA 4040   2.148   9.852   0.177 -0.0523  0.5032  0.4087
  270LIG     HA 4041   2.219   9.776   0.150  0.0907  0.6034  0.5040
  270LIG     CB 4042   2.103   9.942   0.061 -0.3733 -0.3737  0.7006
  270LIG    HB1 4043   2.060  10.035   0.105 -1.0898 -1.1435  1.6804
  270LIG    HB2 4044   2.022   9.896   0.000  0.8361  0.2439 -1.4654
  270LIG     CG 4045   2.219   9.970  -0.037  0.0959 -0.2105  0.7735
  270LIG    OD1 4046   2.245  10.088  -0.064 -0.4601  0.1208  0.4342
  270LIG    OD2 4047   2.271   9.872  -0.090  0.3301  0.1654 -0.5397
  270LIG      C 4048   2.217   9.928   0.288 -0.1878 -0.3281 -0.1979
  270LIG    OT1 4049   2.155   9.948   0.392 -0.5434 -0.4232  0.1328
  270LIG    OT2 4050   2.327   9.983   0.271 -0.1926  0.2793 -0.6702
  271LIG      N 4051   3.306   3.062   0.361  0.2981 -0.3940  0.6896
  271LIG     H1 4052   3.240   3.014   0.297  1.8879 -2.5023  0.5024
  271LIG     H2 4053   3.402   3.068   0.319  0.6826  1.9770  1.7445
  271LIG     H3 4054   3.302   3.005   0.447  0.0542  0.3580  1.1858
  271LIG     CA 4055   3.252   3.200   0.390 -0.1609  0.6808 -0.9611
  271LIG     HA 4056   3.335   3.252   0.436 -0.3691  0.4260 -0.2951
  271LIG     CB 4057   3.212   3.262   0.253 -0.6056  0.2033  0.0543
  271LIG    HB1 4058   3.102   3.252   0.238 -0.6886  1.0272  0.0804
  271LIG    HB2 4059   3.257   3.229   0.157  0.0217  0.3027  0.3091
  271LIG     CG 4060   3.234   3.404   0.254  0.1736 -0.1310 -0.0906
  271LIG    OD1 4061   3.155   3.480   0.196  0.2123 -0.5844 -0.0219
  271LIG    OD2 4062   3.335   3.454   0.310  0.2578  0.7129  0.5694
  271LIG      C 4063   3.135   3.204   0.493  0.7214  0.0496 -0.2903
  271LIG    OT1 4064   3.086   3.097   0.543 -0.0428  0.5249 -0.2938
  271LIG    OT2 4065   3.079   3.314   0.521 -0.3620  0.6221 -0.2425
  272LIG      N 4066   9.080   6.978   2.064  0.1874 -0.0929 -0.3859
  272LIG     H1 4067   9.164   7.032   2.091 -0.0346 -0.2338  0.6229
  272LIG     H2 4068   9.032   7.015   1.980 -0.9784 -0.2836  0.1774
  272LIG     H3 4069   9.016   6.989   2.145  2.9839  2.4177  1.7308
  272LIG     CA 4070   9.105   6.832   2.054  0.6315  1.3498 -0.2791
  272LIG     HA 4071   9.212   6.822   2.044  0.3940 -2.8618 -0.4843
  272LIG     CB 4072   9.057   6.776   2.200  0.0455  0.6596 -0.2187
  272LIG    HB1 4073   8.946   6.770   2.199 -0.0867  1.7732 -3.2522
  272LIG    HB2 4074   9.085   6.840   2.286 -2.3709 -0.1771  1.2882
  272LIG     CG 4075   9.114   6.637   2.227 -1.0867 -0.8499 -0.5296
  272LIG    OD1 4076   9.038   6.548   2.267  0.1458  0.3532 -0.1454
  272LIG    OD2 4077   9.242   6.620   2.218  0.5288 -0.2753  0.1689
  272LIG      C 4078   9.049   6.764   1.928 -0.5492  1.1428 -0.4223
  272LIG    OT1 4079   8.988   6.829   1.836 -1.2833  0.2205 -0.3256
  272LIG    OT2 4080   9.081   6.642   1.913  0.2171 -0.3735 -0.8780
  273LIG      N 4081   8.543   8.636   3.155  0.2185  0.2723  0.2222
  273LIG     H1 4082   8.608   8.566   3.114  2.5197  2.7122 -0.4961
  273LIG     H2 4083   8.517   8.709   3.085  1.5697 -0.1298 -0.7334
  273LIG     H3 4084   8.599   8.675   3.233  0.5577 -0.8157  0.5402
  273LIG     CA 4085   8.417   8.564   3.197 -0.1026 -0.7842 -0.4470
  273LIG     HA 4086   8.407   8.470   3.145 -2.4154  0.0258 -1.6059
  273LIG     CB 4087   8.430   8.556   3.354 -0.4417  0.1774 -0.5200
  273LIG    HB1 4088   8.427   8.652   3.409 -2.0644 -0.8243  1.2603
  273LIG    HB2 4089   8.527   8.505   3.367 -0.9698 -0.3555  1.6946
  273LIG     CG 4090   8.322   8.466   3.413 -0.3402 -0.2337 -0.2258
  273LIG    OD1 4091   8.262   8.498   3.520 -0.4829  0.1098 -0.2263
  273LIG    OD2 4092   8.320   8.351   3.358  0.3146  0.2819  0.4711
  273LIG      C 4093   8.289   8.650   3.164 -0.8435  0.9178  0.0279
  273LIG    OT1 4094   8.309   8.764   3.115  0.3561 -0.0505  0.3124
  273LIG    OT2 4095   8.178   8.609   3.192  0.3740 -0.2627  0.3075
  274LIG      N 4096   5.331   6.138   9.815  0.3518 -0.2933 -0.0047
  274LIG     H1 4097   5.260   6.183   9.753 -0.6081 -0.7406  0.7404
  274LIG     H2 4098   5.390   6.216   9.850 -2.9411  3.5651 -2.0812
  274LIG     H3 4099   5.377   6.065   9.757 -1.9833 -2.1129  0.2819
  274LIG     CA 4100   5.270   6.068   9.938  0.1517  0.2897  0.3738
  274LIG     HA 4101   5.325   6.102  10.025  2.6012 -4.0850  0.7866
  274LIG     CB 4102   5.116   6.094   9.939  0.8189 -0.0947  0.6439
  274LIG    HB1 4103   5.066   6.041   9.854  0.9434 -2.0874  1.7495
  274LIG    HB2 4104   5.079   6.198   9.938 -1.3695 -0.8137  1.2880
  274LIG     CG 4105   5.060   6.038  10.069 -0.0693 -0.0345  0.6943
  274LIG    OD1 4106   4.971   5.956  10.056 -0.2319  0.0965 -0.2490
  274LIG    OD2 4107   5.094   6.087  10.186 -0.2979 -0.1930 -0.3281
  274LIG      C 4108   5.312   5.914   9.940  0.2099  0.0068 -1.1822
  274LIG    OT1 4109   5.373   5.863   9.841 -0.0619 -0.3825 -0.8739
  274LIG    OT2 4110   5.280   5.847  10.045  0.4066 -0.9006  0.5952
  275LIG      N 4111   7.756   5.270   1.661 -0.0640 -0.3346 -0.1831
  275LIG     H1 4112   7.746   5.316   1.568  1.5134  0.5789  0.0506
  275LIG     H2 4113   7.788   5.172   1.652  0.2980 -0.4509  1.8649
  275LIG     H3 4114   7.666   5.260   1.713  0.1371 -1.2655 -0.0083
  275LIG     CA 4115   7.856   5.344   1.750 -0.1459  0.2435 -0.0360
  275LIG     HA 4116   7.799   5.429   1.785 -1.6915 -1.1489  0.9811
  275LIG     CB 4117   7.904   5.247   1.865  0.5899  0.0948  0.0846
  275LIG    HB1 4118   7.963   5.157   1.838 -0.1683  0.0693 -1.6290
  275LIG    HB2 4119   7.806   5.206   1.899  0.0179 -0.0392 -1.6278
  275LIG     CG 4120   7.956   5.323   1.980 -0.7184 -0.4465  0.1329
  275LIG    OD1 4121   8.057   5.281   2.036 -0.1534  0.1226 -0.3718
  275LIG    OD2 4122   7.890   5.426   2.015  0.5288  0.4695 -0.1405
  275LIG      C 4123   7.982   5.383   1.670  0.2305  0.9640  0.5286
  275LIG    OT1 4124   7.996   5.345   1.550 -0.4369 -0.0496 -0.2521
  275LIG    OT2 4125   8.069   5.459   1.720  1.0681  0.1345 -0.6635
  276LIG      N 4126   6.141   2.537   9.446  0.3067 -0.7538  0.2201
  276LIG     H1 4127   6.214   2.492   9.504  2.3286 -2.0479 -3.0143
  276LIG     H2 4128   6.064   2.563   9.510 -0.5395 -0.3936 -0.9021
  276LIG     H3 4129   6.104   2.463   9.383  2.7016 -3.3300  1.6315
  276LIG     CA 4130   6.204   2.654   9.376 -0.2452  0.7504 -0.2437
  276LIG     HA 4131   6.122   2.708   9.332  0.1406  0.5596 -1.2328
  276LIG     CB 4132   6.268   2.742   9.489 -0.5112  0.3506  0.2591
  276LIG    HB1 4133   6.361   2.697   9.529  0.2852  0.8509 -0.9798
  276LIG    HB2 4134   6.193   2.764   9.568 -0.1440 -0.3329  0.8056
  276LIG     CG 4135   6.330   2.869   9.436 -0.3173  0.0999 -0.5957
  276LIG    OD1 4136   6.454   2.896   9.470  0.0004 -0.1846 -1.2850
  276LIG    OD2 4137   6.262   2.955   9.376 -0.0220  0.2545 -0.0355
  276LIG      C 4138   6.310   2.600   9.274  0.6771  0.0708 -0.0317
  276LIG    OT1 4139   6.339   2.478   9.270  0.4636  0.6616  0.0446
  276LIG    OT2 4140   6.361   2.683   9.198 -0.5332  0.1949  0.5767
  277LIG      N 4141   3.446   1.611   6.796  0.0772 -0.6970 -0.4872
  277LIG     H1 4142   3.385   1.639   6.876  1.1367  0.5440 -0.0739
  277LIG     H2 4143   3.493   1.521   6.817  0.2246  0.0012  2.7345
  277LIG     H3 4144   3.516   1.688   6.793 -0.0184 -0.3514  2.7843
  277LIG     CA 4145   3.365   1.606   6.668  0.0257 -0.0222 -0.1431
  277LIG     HA 4146   3.423   1.557   6.591  0.9240  2.0927 -0.8768
  277LIG     CB 4147   3.250   1.512   6.705 -0.2728 -0.6933 -0.1971
  277LIG    HB1 4148   3.175   1.567   6.766  0.5578 -0.1136  0.3326
  277LIG    HB2 4149   3.282   1.428   6.771  0.1550  0.8291  1.6362
  277LIG     CG 4150   3.187   1.453   6.580  0.4115  0.5677 -0.4094
  277LIG    OD1 4151   3.060   1.463   6.579  0.1444  0.0438 -0.4537
  277LIG    OD2 4152   3.254   1.398   6.489  0.0665 -0.1239  0.4249
  277LIG      C 4153   3.330   1.750   6.618 -0.0136 -0.4838  0.4000
  277LIG    OT1 4154   3.345   1.853   6.688  0.0278 -0.4188 -0.9628
  277LIG    OT2 4155   3.271   1.756   6.505 -0.4066 -0.1526  0.2430
  278LIG      N 4156   5.935   1.440   1.078 -0.1211 -0.4214 -0.9047
  278LIG     H1 4157   5.948   1.407   1.176  0.0438  0.9141 -0.4530
  278LIG     H2 4158   5.869   1.521   1.082  1.0020  0.4925 -0.0222
  278LIG     H3 4159   5.910   1.360   1.018  3.7757 -1.3648 -1.5237
  278LIG     CA 4160   6.055   1.497   1.009  0.1588 -0.1381 -0.3972
  278LIG     HA 4161   6.092   1.584   1.063 -2.2275  1.0261 -0.5021
  278LIG     CB 4162   6.162   1.385   1.014  0.0556  0.4054 -0.5235
  278LIG    HB1 4163   6.138   1.311   0.935 -2.5340 -0.8643  1.2857
  278LIG    HB2 4164   6.169   1.337   1.114  1.1743  1.5124 -0.0436
  278LIG     CG 4165   6.301   1.439   1.010 -0.4485  0.0140  0.8651
  278LIG    OD1 4166   6.387   1.397   0.931  0.6908  0.1959  0.4003
  278LIG    OD2 4167   6.322   1.538   1.087 -0.2022 -0.4789  0.2533
  278LIG      C 4168   6.034   1.529   0.865  0.6095  0.7528 -0.1042
  278LIG    OT1 4169   5.925   1.515   0.810  0.3864  0.5537  0.2981
  278LIG    OT2 4170   6.130   1.566   0.796  0.7629  0.2989 -0.5821
  279LIG      N 4171   1.185   5.859   8.098  0.5443 -0.1225 -0.3648
  279LIG     H1 4172   1.205   5.758   8.089  2.2396  0.2131 -0.7175
  279LIG     H2 4173   1.222   5.889   8.190 -0.0996 -0.2501 -0.0579
  279LIG     H3 4174   1.081   5.870   8.098  0.4746 -0.2739  1.8420
  279LIG     CA 4175   1.241   5.945   7.997 -1.3301 -0.4408 -0.2946
  279LIG     HA 4176   1.197   5.914   7.903 -0.0533  1.2692 -1.5132
  279LIG     CB 4177   1.211   6.098   8.031  0.8177 -0.1344  0.4742
  279LIG    HB1 4178   1.267   6.152   8.110  0.4788 -0.0686  0.6689
  279LIG    HB2 4179   1.104   6.096   8.060  0.8684 -1.9675  0.6309
  279LIG     CG 4180   1.221   6.189   7.910 -0.9766  0.2754 -0.3044
  279LIG    OD1 4181   1.291   6.295   7.922  0.7665  0.9418 -0.1277
  279LIG    OD2 4182   1.162   6.155   7.811  0.2562 -0.0868  0.3031
  279LIG      C 4183   1.399   5.925   7.982 -0.4046 -0.0326  0.9073
  279LIG    OT1 4184   1.466   5.846   8.048  0.3538 -0.2139 -0.2456
  279LIG    OT2 4185   1.456   5.984   7.881  0.2744 -0.6811 -0.8022
  280LIG      N 4186   8.612   1.044   6.025 -0.2510  0.0574  0.4427
  280LIG     H1 4187   8.626   1.138   5.981  2.6414  0.4333  1.9331
  280LIG     H2 4188   8.699   1.026   6.079 -0.1566  1.1574  0.6960
  280LIG     H3 4189   8.605   0.969   5.954  0.5966  0.2823  0.1033
  280LIG     CA 4190   8.502   1.054   6.117 -0.3551  0.5094  0.5748
  280LIG     HA 4191   8.548   1.106   6.200  0.8947 -2.4291  1.8544
  280LIG     CB 4192   8.378   1.109   6.047  0.1298  0.1362  0.5073
  280LIG    HB1 4193   8.333   1.016   6.006  0.6547  0.6179 -1.2286
  280LIG    HB2 4194   8.402   1.187   5.972 -2.5787  0.6661  0.0948
  280LIG     CG 4195   8.289   1.166   6.157  0.1626 -0.0355 -0.4508
  280LIG    OD1 4196   8.164   1.144   6.152  0.2198 -0.4601  1.0582
  280LIG    OD2 4197   8.343   1.242   6.241  0.0208 -0.2744  0.0143
  280LIG      C 4198   8.477   0.909   6.170  0.3641 -0.0257 -0.2066
  280LIG    OT1 4199   8.535   0.811   6.127  0.0443 -0.3353  0.3002
  280LIG    OT2 4200   8.393   0.893   6.264  0.3993 -0.4345 -0.8756
  281LIG      N 4201   3.997   0.463   2.722  0.1682 -0.0630 -0.1427
  281LIG     H1 4202   4.100   0.448   2.713  0.0390 -1.8139  0.6956
  281LIG     H2 4203   4.000   0.544   2.786  2.5647 -2.0793  2.5965
  281LIG     H3 4204   3.959   0.385   2.780 -1.7068 -0.6649 -2.0585
  281LIG     CA 4205   3.928   0.494   2.596 -0.1647  0.5525 -0.2699
  281LIG     HA 4206   3.951   0.416   2.525 -1.0375 -1.5991  1.6691
  281LIG     CB 4207   3.773   0.514   2.626 -0.1819  0.1551 -0.1897
  281LIG    HB1 4208   3.751   0.602   2.690 -1.2840 -2.4245  3.2847
  281LIG    HB2 4209   3.734   0.427   2.682  0.4936  0.1779  0.3260
  281LIG     CG 4210   3.694   0.515   2.496 -0.0100  0.1659  0.2138
  281LIG    OD1 4211   3.630   0.621   2.477  0.5916 -0.0812  0.8937
  281LIG    OD2 4212   3.699   0.411   2.422 -0.5060 -0.7178 -0.3575
  281LIG      C 4213   3.994   0.622   2.531  0.6898  0.1684  0.0626
  281LIG    OT1 4214   4.067   0.699   2.598 -0.3935  0.9857  0.4006
  281LIG    OT2 4215   3.963   0.652   2.414  0.0912  0.1844  0.5896
  282LIG      N 4216   9.809   5.313   7.872  0.1689 -0.0557  0.7032
  282LIG     H1 4217   9.749   5.315   7.957 -0.7268 -1.3818  0.1234
  282LIG     H2 4218   9.840   5.411   7.853 -0.1093 -0.2283 -0.7768
  282LIG     H3 4219   9.755   5.284   7.788  1.0565 -2.2728  0.8480
  282LIG     CA 4220   9.925   5.216   7.883  0.1330 -0.0606  0.4326
  282LIG     HA 4221   9.878   5.118   7.882 -0.3061  0.1502 -0.8608
  282LIG     CB 4222  10.005   5.237   7.749  0.1215  0.5477  0.6213
  282LIG    HB1 4223  10.079   5.319   7.763  0.4369  1.0531 -3.1647
  282LIG    HB2 4224   9.931   5.267   7.672 -2.3303  0.1080  2.6547
  282LIG     CG 4225  10.086   5.117   7.714  0.6436  0.3879 -0.1948
  282LIG    OD1 4226  10.210   5.127   7.690 -0.0495  0.4884  0.4316
  282LIG    OD2 4227  10.026   5.010   7.711 -0.6892  0.6117 -0.4332
  282LIG      C 4228  10.002   5.232   8.011 -0.3938 -0.7854  0.2604
  282LIG    OT1 4229   9.989   5.334   8.083 -0.0642 -0.2310  0.3088
  282LIG    OT2 4230  10.087   5.143   8.035  0.3109 -0.5784  0.0596
  283LIG      N 4231   7.919   7.233   1.875  0.2457  0.4121 -0.1913
  283LIG     H1 4232   7.987   7.246   1.952  2.6444  0.8160 -2.2402
  283LIG     H2 4233   7.842   7.168   1.900  0.9753 -0.5822 -0.4862
  283LIG     H3 4234   7.971   7.200   1.791  0.9866 -3.0945  1.4806
  283LIG     CA 4235   7.868   7.370   1.854 -0.8716  0.0358 -0.6174
  283LIG     HA 4236   7.849   7.410   1.952  0.2633  0.1015 -0.4136
  283LIG     CB 4237   7.976   7.449   1.774 -0.3761  0.5280 -0.1477
  283LIG    HB1 4238   7.981   7.416   1.668 -0.0794  2.0151 -0.6180
  283LIG    HB2 4239   8.072   7.442   1.830 -0.3223  3.5053  0.3085
  283LIG     CG 4240   7.941   7.598   1.776 -0.0268 -0.3192 -0.0233
  283LIG    OD1 4241   7.951   7.656   1.665 -0.3818  0.0049  0.0193
  283LIG    OD2 4242   7.926   7.661   1.887  0.5621 -0.8663  0.0324
  283LIG      C 4243   7.736   7.371   1.776 -0.7434 -0.0670 -0.2181
  283LIG    OT1 4244   7.666   7.268   1.767  0.0771 -0.1162 -0.6752
  283LIG    OT2 4245   7.690   7.481   1.732  0.2305 -0.3930  0.4673
  284LIG      N 4246   1.508   2.863   9.641  0.3206 -0.7984  0.3498
  284LIG     H1 4247   1.498   2.766   9.677 -1.8949  0.0303  2.2170
  284LIG     H2 4248   1.435   2.870   9.568  2.4754 -0.8168 -1.9586
  284LIG     H3 4249   1.597   2.874   9.588  0.1885 -0.2060  0.2427
  284LIG     CA 4250   1.490   2.966   9.748 -0.3788  0.5984  0.4887
  284LIG     HA 4251   1.385   2.960   9.775 -0.9368  2.4672 -1.0533
  284LIG     CB 4252   1.588   2.921   9.857 -0.0632  0.2862  0.1039
  284LIG    HB1 4253   1.691   2.941   9.821 -0.9523 -0.0148 -2.7966
  284LIG    HB2 4254   1.583   2.812   9.876  1.7951  0.0841 -0.3366
  284LIG     CG 4255   1.551   3.005   9.978 -0.3541 -0.0052  0.0171
  284LIG    OD1 4256   1.632   3.096  10.017  0.0707 -0.2600  0.3301
  284LIG    OD2 4257   1.443   2.973  10.034  0.4636  0.1486  0.1052
  284LIG      C 4258   1.520   3.106   9.695  0.0806  0.0188 -0.6440
  284LIG    OT1 4259   1.596   3.119   9.599  0.8517  0.1971  0.0550
  284LIG    OT2 4260   1.475   3.206   9.757 -0.4064  0.4958  0.0788
  285LIG      N 4261   9.253   4.785   1.258  0.4318  0.1996 -0.5546
  285LIG     H1 4262   9.182   4.807   1.184  0.2157 -0.6882 -0.6229
  285LIG     H2 4263   9.282   4.871   1.308 -1.0126  1.3484 -1.5788
  285LIG     H3 4264   9.337   4.745   1.211  1.2926 -0.9296  1.8155
  285LIG     CA 4265   9.181   4.678   1.323 -0.1381  0.9261  0.4494
  285LIG     HA 4266   9.229   4.585   1.297 -2.8046 -0.7311  1.0777
  285LIG     CB 4267   9.191   4.716   1.480 -0.1059 -0.3099  0.4187
  285LIG    HB1 4268   9.128   4.803   1.508  2.8254  1.1293  3.2066
  285LIG    HB2 4269   9.295   4.747   1.505 -0.2176 -0.6499  1.3366
  285LIG     CG 4270   9.154   4.591   1.554  0.3721 -0.5461 -0.2482
  285LIG    OD1 4271   9.068   4.611   1.648 -0.6453 -0.0696 -0.2760
  285LIG    OD2 4272   9.208   4.483   1.537 -0.7583  0.0903  0.2347
  285LIG      C 4273   9.039   4.675   1.276  0.0390 -0.2523 -0.4685
  285LIG    OT1 4274   8.994   4.762   1.195 -0.5904 -0.2109 -0.6410
  285LIG    OT2 4275   8.966   4.585   1.327  0.0517  0.2354  0.2339
  286LIG      N 4276   7.936   1.308   5.657  0.0286  0.0775 -0.8235
  286LIG     H1 4277   7.982   1.225   5.700 -0.8460  0.1786  0.3591
  286LIG     H2 4278   7.998   1.391   5.670 -0.5117  0.4561 -0.6417
  286LIG     H3 4279   7.842   1.328   5.695  0.1068  1.1553 -1.1768
  286LIG     CA 4280   7.917   1.282   5.512 -0.8478 -0.7176 -0.1578
  286LIG     HA 4281   7.992   1.208   5.488  1.7001  2.0896 -1.6094
  286LIG     CB 4282   7.768   1.237   5.502  0.1434  0.7379  0.8612
  286LIG    HB1 4283   7.693   1.318   5.499 -1.2030 -0.3712  2.7667
  286LIG    HB2 4284   7.737   1.161   5.577  0.1374  0.2741  0.4022
  286LIG     CG 4285   7.740   1.163   5.372  0.5638  0.6325 -0.1868
  286LIG    OD1 4286   7.638   1.191   5.303 -0.2264  0.1123  0.3836
  286LIG    OD2 4287   7.811   1.063   5.341  0.0212 -0.2781 -0.3331
  286LIG      C 4288   7.943   1.408   5.424 -0.1409  0.9024  0.0715
  286LIG    OT1 4289   7.966   1.518   5.484 -0.6499 -0.4174 -0.3521
  286LIG    OT2 4290   7.945   1.396   5.297  0.2869 -0.4164 -0.0829
  287LIG      N 4291   6.340   0.545   1.285 -0.1865  0.0666  0.0504
  287LIG     H1 4292   6.246   0.591   1.285  0.0846  0.6362 -0.4026
  287LIG     H2 4293   6.399   0.572   1.203  0.9142 -2.3911 -0.0775
  287LIG     H3 4294   6.312   0.447   1.261 -0.4599  0.6944 -2.5270
  287LIG     CA 4295   6.407   0.545   1.414  0.1274  1.0522 -0.4463
  287LIG     HA 4296   6.495   0.482   1.408 -1.1883 -1.0099  0.7279
  287LIG     CB 4297   6.438   0.691   1.434  0.1600  0.5152  0.4108
  287LIG    HB1 4298   6.354   0.753   1.472  1.5659  1.3623  2.2846
  287LIG    HB2 4299   6.482   0.735   1.341  2.3147 -2.4850 -0.1516
  287LIG     CG 4300   6.550   0.700   1.535  0.0890 -0.0160 -0.0529
  287LIG    OD1 4301   6.540   0.793   1.618  0.1517  0.0998  0.2177
  287LIG    OD2 4302   6.650   0.620   1.533 -0.2506 -0.3589 -0.1152
  287LIG      C 4303   6.322   0.480   1.530 -0.5833 -0.3254 -0.0695
  287LIG    OT1 4304   6.201   0.458   1.510 -0.0074  0.3674  0.4682
  287LIG    OT2 4305   6.375   0.455   1.642  0.2043 -0.0365  0.3497
  288LIG      N 4306   9.823   9.159   8.258  0.1313  0.3960 -0.0618
  288LIG     H1 4307   9.897   9.086   8.245 -0.4414 -0.7482  2.4891
  288LIG     H2 4308   9.815   9.214   8.170  0.6468  0.5845  0.0055
  288LIG     H3 4309   9.863   9.229   8.323  3.6756  0.4387 -2.0269
  288LIG     CA 4310   9.700   9.104   8.299  0.1035  0.0260 -0.4693
  288LIG     HA 4311   9.680   9.015   8.241 -1.5926  1.0089 -1.4975
  288LIG     CB 4312   9.724   9.082   8.449  0.4754  0.3102 -0.3734
  288LIG    HB1 4313   9.741   9.172   8.511 -0.1329 -0.1274  0.4466
  288LIG    HB2 4314   9.811   9.015   8.470 -1.3168 -1.3024  2.6085
  288LIG     CG 4315   9.608   9.008   8.507 -0.8451 -0.0961  0.4461
  288LIG    OD1 4316   9.544   9.057   8.599  0.4187 -0.4431 -0.9901
  288LIG    OD2 4317   9.590   8.890   8.460  0.3870 -0.1062 -1.4237
  288LIG      C 4318   9.581   9.202   8.269 -0.2838  0.0384  0.2950
  288LIG    OT1 4319   9.602   9.315   8.224  0.6918 -0.4120 -0.6848
  288LIG    OT2 4320   9.460   9.152   8.269 -0.3859  0.2675 -1.2202
  289LIG      N 4321   0.575   8.447   8.952 -0.4960 -0.7493  0.1474
  289LIG     H1 4322   0.657   8.448   9.016  0.0161  0.1991 -0.4992
  289LIG     H2 4323   0.605   8.454   8.853 -1.3608 -1.1109 -0.1531
  289LIG     H3 4324   0.518   8.533   8.970 -0.5799 -0.6390 -0.6302
  289LIG     CA 4325   0.495   8.329   8.973  0.5196 -0.6695  0.3848
  289LIG     HA 4326   0.558   8.251   8.932  0.9617  0.5476 -1.3740
  289LIG     CB 4327   0.458   8.332   9.125  0.1596 -0.3141  0.3465
  289LIG    HB1 4328   0.369   8.397   9.139 -0.5146 -1.1531  0.0513
  289LIG    HB2 4329   0.548   8.365   9.182  2.1247 -0.9023 -2.2024
  289LIG     CG 4330   0.423   8.194   9.177 -0.1231  0.2511  0.3812
  289LIG    OD1 4331   0.329   8.182   9.258 -0.2873  0.0333 -0.1868
  289LIG    OD2 4332   0.496   8.095   9.156  0.5325  0.0559  0.1344
  289LIG      C 4333   0.370   8.318   8.884  0.4383 -0.4026  0.9875
  289LIG    OT1 4334   0.349   8.398   8.791 -0.0518  0.1249  0.1504
  289LIG    OT2 4335   0.295   8.217   8.898  0.0683 -0.2685  0.0358
  290LIG      N 4336   7.948   0.580   6.198 -0.3456  0.0203 -0.1345
  290LIG     H1 4337   7.903   0.489   6.222 -1.3578  0.5843  0.1991
  290LIG     H2 4338   7.972   0.637   6.281  0.6108  0.9612 -1.0273
  290LIG     H3 4339   7.886   0.640   6.140  2.1177  2.3127 -0.5572
  290LIG     CA 4340   8.070   0.545   6.129 -0.1056  0.5793 -0.7960
  290LIG     HA 4341   8.142   0.624   6.145  0.6521 -0.3851  0.8305
  290LIG     CB 4342   8.131   0.422   6.195  0.4867  0.3820  0.2792
  290LIG    HB1 4343   8.070   0.330   6.183  2.2290 -0.8096  0.1706
  290LIG    HB2 4344   8.135   0.429   6.305 -0.5329 -2.5329  0.5792
  290LIG     CG 4345   8.275   0.407   6.145  0.0835  0.7477  0.9167
  290LIG    OD1 4346   8.316   0.304   6.090  0.7958  0.5439 -0.0010
  290LIG    OD2 4347   8.356   0.503   6.166 -0.1890 -0.5220  0.0470
  290LIG      C 4348   8.039   0.517   5.984 -0.4009  0.4561  0.0915
  290LIG    OT1 4349   7.926   0.495   5.942 -0.0117 -0.3330 -0.5967
  290LIG    OT2 4350   8.136   0.521   5.903 -0.0712  0.1356  0.4967
  291LIG      N 4351   7.182   1.345   4.755  0.0103  0.0788  0.2223
  291LIG     H1 4352   7.092   1.396   4.747 -1.2518 -2.1599 -0.6196
  291LIG     H2 4353   7.181   1.267   4.824 -1.3926  1.5873  2.0339
  291LIG     H3 4354   7.251   1.408   4.802  0.0054 -0.8624  1.5744
  291LIG     CA 4355   7.243   1.318   4.616  1.1492  0.5266 -0.8516
  291LIG     HA 4356   7.335   1.263   4.625 -0.2603 -1.7228  1.1282
  291LIG     CB 4357   7.142   1.224   4.546  0.4902 -0.0633 -0.6499
  291LIG    HB1 4358   7.052   1.280   4.513 -0.6526 -0.9236  0.8316
  291LIG    HB2 4359   7.093   1.154   4.618 -1.2569  2.1948  0.5038
  291LIG     CG 4360   7.196   1.156   4.425 -0.8636 -0.1784  0.2906
  291LIG    OD1 4361   7.130   1.149   4.320  0.2871  0.4871  0.0547
  291LIG    OD2 4362   7.301   1.081   4.448  0.1356  0.5501  0.1235
  291LIG      C 4363   7.267   1.453   4.540 -0.0851  0.4998 -0.1040
  291LIG    OT1 4364   7.235   1.560   4.598 -0.0236 -0.4515  0.0455
  291LIG    OT2 4365   7.318   1.467   4.428  0.2924  0.6767  0.0210
  292LIG      N 4366   1.724   0.907   1.537  0.2691  0.0606  0.1028
  292LIG     H1 4367   1.822   0.876   1.520 -0.4175 -1.2383 -1.8481
  292LIG     H2 4368   1.674   0.916   1.446  1.4935  0.3002 -0.5695
  292LIG     H3 4369   1.732   1.001   1.582  3.4902  0.5170 -1.1403
  292LIG     CA 4370   1.640   0.812   1.617  0.3226  0.6635  0.7769
  292LIG     HA 4371   1.613   0.728   1.554  0.1145 -0.2988  2.1187
  292LIG     CB 4372   1.729   0.772   1.742 -0.3126  0.4411 -0.7287
  292LIG    HB1 4373   1.749   0.853   1.815 -1.2041 -0.8501  1.0083
  292LIG    HB2 4374   1.827   0.732   1.706  1.6977  2.5287  1.9678
  292LIG     CG 4375   1.668   0.651   1.814 -0.2581 -0.2528  0.3315
  292LIG    OD1 4376   1.663   0.666   1.941  0.3667  0.0415  0.1971
  292LIG    OD2 4377   1.654   0.544   1.759  0.0497  0.7320  0.4982
  292LIG      C 4378   1.509   0.880   1.663  0.0002  0.5546  0.4632
  292LIG    OT1 4379   1.497   1.003   1.664  0.1344  0.3581  0.4734
  292LIG    OT2 4380   1.413   0.817   1.706  0.0408  0.3805  0.2133
  293LIG      N 4381   1.570   6.258   1.990  0.1412  0.4916 -0.3093
  293LIG     H1 4382   1.574   6.328   2.067  0.2780  2.6409 -2.1385
  293LIG     H2 4383   1.664   6.253   1.947  0.4367 -2.1016  0.4732
  293LIG     H3 4384   1.523   6.312   1.914 -0.5891  0.8188  0.3517
  293LIG     CA 4385   1.525   6.124   2.011  0.6016  0.2407  0.0968
  293LIG     HA 4386   1.595   6.072   2.074  0.3708 -1.0807 -0.7006
  293LIG     CB 4387   1.388   6.146   2.073 -0.5256  0.6475 -0.8259
  293LIG    HB1 4388   1.309   6.165   1.998 -2.1727  0.5915  0.8118
  293LIG    HB2 4389   1.391   6.234   2.141 -1.4845  0.0447  0.0342
  293LIG     CG 4390   1.344   6.022   2.152 -0.2276 -0.2080  0.2000
  293LIG    OD1 4391   1.225   5.985   2.147  0.0914 -0.6657  0.2747
  293LIG    OD2 4392   1.421   5.968   2.232 -0.0626 -0.2910 -0.0842
  293LIG      C 4393   1.519   6.046   1.876 -0.3895 -1.0003  0.2714
  293LIG    OT1 4394   1.563   6.104   1.773  0.2506  0.4151  0.3302
  293LIG    OT2 4395   1.467   5.933   1.865  0.2148 -0.3545  0.5853
  294LIG      N 4396   7.165   9.435   7.455 -0.3602  0.0976 -0.4391
  294LIG     H1 4397   7.222   9.360   7.499 -0.0269 -0.1050 -1.1941
  294LIG     H2 4398   7.188   9.435   7.353  0.0051 -0.5343 -0.3553
  294LIG     H3 4399   7.187   9.528   7.497 -0.6437  0.2041 -0.5241
  294LIG     CA 4400   7.020   9.389   7.474 -0.1317 -0.2449  0.3299
  294LIG     HA 4401   7.016   9.291   7.430  1.8589  0.0621 -0.6326
  294LIG     CB 4402   6.973   9.406   7.621 -0.3636  0.9344  0.5181
  294LIG    HB1 4403   6.944   9.512   7.636 -1.1067  0.6537  1.1543
  294LIG    HB2 4404   7.054   9.370   7.688 -0.6113  1.0098  0.8609
  294LIG     CG 4405   6.854   9.314   7.647  0.3748  0.4196  0.4827
  294LIG    OD1 4406   6.758   9.358   7.713  0.0020 -0.2556 -0.7465
  294LIG    OD2 4407   6.867   9.193   7.612  0.2282 -0.1077 -0.1863
  294LIG      C 4408   6.935   9.486   7.389 -0.1360 -0.2640  0.7343
  294LIG    OT1 4409   6.990   9.565   7.304  0.3048 -0.6119 -0.7500
  294LIG    OT2 4410   6.810   9.480   7.390  0.5262 -0.1723 -0.1151
  295LIG      N 4411   1.064   3.478   6.047  0.5283  0.8133 -0.0801
  295LIG     H1 4412   0.966   3.444   6.052  0.6209  0.1195 -1.8673
  295LIG     H2 4413   1.107   3.472   6.141  1.7992 -0.0224 -0.6811
  295LIG     H3 4414   1.069   3.579   6.022 -1.1030  1.7092  2.7817
  295LIG     CA 4415   1.146   3.391   5.956 -0.3166 -0.3068 -0.4184
  295LIG     HA 4416   1.100   3.293   5.956  0.9946 -0.9792 -2.3275
  295LIG     CB 4417   1.120   3.447   5.812 -0.2449  0.0509 -0.5734
  295LIG    HB1 4418   1.183   3.536   5.793  0.0583  0.8032  3.1395
  295LIG    HB2 4419   1.016   3.481   5.791 -0.6869 -1.6964 -1.3649
  295LIG     CG 4420   1.170   3.347   5.712  0.2787 -0.2593 -0.0690
  295LIG    OD1 4421   1.258   3.376   5.624  0.1998 -0.6427 -0.7723
  295LIG    OD2 4422   1.111   3.237   5.721  0.6617  0.3573 -0.1023
  295LIG      C 4423   1.287   3.382   6.009 -0.2183 -0.0987  0.3191
  295LIG    OT1 4424   1.331   3.460   6.094 -0.7349  0.1754 -0.5199
  295LIG    OT2 4425   1.361   3.288   5.959 -0.6300 -0.6480 -0.1100
  296LIG      N 4426   0.594   4.521   5.919  0.2151  0.0821  0.7046
  296LIG     H1 4427   0.590   4.606   5.979  0.5995  1.0335 -0.5712
  296LIG     H2 4428   0.672   4.458   5.949  0.3350  1.1231  2.6746
  296LIG     H3 4429   0.612   4.560   5.824  0.9814 -2.3463 -0.2424
  296LIG     CA 4430   0.456   4.465   5.907  0.5640 -0.0327 -0.6310
  296LIG     HA 4431   0.451   4.392   5.828  1.1200 -2.3679  1.3865
  296LIG     CB 4432   0.417   4.403   6.048 -0.3900 -0.5823  0.0768
  296LIG    HB1 4433   0.397   4.485   6.120  2.7733 -0.9988  1.5991
  296LIG    HB2 4434   0.496   4.341   6.096  1.3148  1.2429 -0.2702
  296LIG     CG 4435   0.299   4.306   6.030  0.2413 -0.2317  0.1934
  296LIG    OD1 4436   0.198   4.339   6.088  0.1223  0.2432 -0.0491
  296LIG    OD2 4437   0.317   4.204   5.954 -0.4542 -0.8352 -0.2224
  296LIG      C 4438   0.349   4.573   5.867  0.3064  0.1891  0.0648
  296LIG    OT1 4439   0.392   4.689   5.843  1.1528 -0.2698  0.3795
  296LIG    OT2 4440   0.227   4.550   5.875 -0.3670  0.4173 -0.0161
  297LIG      N 4441   4.893   8.684   9.670 -0.1977  0.2213  0.1403
  297LIG     H1 4442   4.926   8.783   9.664 -0.7072  0.4972  1.5337
  297LIG     H2 4443   4.949   8.646   9.750  0.4852  1.2394  0.1641
  297LIG     H3 4444   4.925   8.638   9.582  1.1196  2.5327 -0.6858
  297LIG     CA 4445   4.746   8.673   9.694  0.6458  0.7789  0.9243
  297LIG     HA 4446   4.721   8.722   9.787  2.1799  0.2105  1.6624
  297LIG     CB 4447   4.690   8.753   9.574  0.6393  0.1900  0.8251
  297LIG    HB1 4448   4.717   8.703   9.479  0.6679  1.1531  0.3141
  297LIG    HB2 4449   4.714   8.861   9.584 -0.7282  0.6147 -0.1553
  297LIG     CG 4450   4.536   8.759   9.587  0.6297  0.2920 -0.1194
  297LIG    OD1 4451   4.473   8.707   9.493  0.6128 -0.5707  0.3290
  297LIG    OD2 4452   4.484   8.820   9.683  0.4023 -0.2354  0.0385
  297LIG      C 4453   4.696   8.532   9.709 -0.3160  0.3148  0.4053
  297LIG    OT1 4454   4.763   8.441   9.651 -0.1507  0.2662  0.3912
  297LIG    OT2 4455   4.597   8.504   9.781 -0.3333  0.4114 -0.3319
  298LIG      N 4456   4.174   8.284   9.192  0.4565 -0.0156  0.0123
  298LIG     H1 4457   4.073   8.283   9.170  0.7097  3.2041 -1.9603
  298LIG     H2 4458   4.185   8.273   9.295  3.1538 -0.8802 -0.2660
  298LIG     H3 4459   4.202   8.381   9.167 -0.0862 -0.0019 -0.5629
  298LIG     CA 4460   4.243   8.179   9.119 -0.9574 -0.9712 -0.6514
  298LIG     HA 4461   4.195   8.086   9.146 -1.3175 -0.2442  1.4104
  298LIG     CB 4462   4.235   8.212   8.972  0.6544  0.5696  0.2502
  298LIG    HB1 4463   4.289   8.305   8.944 -0.1128  0.9837  0.1040
  298LIG    HB2 4464   4.129   8.235   8.944  0.0406 -1.0573  1.1367
  298LIG     CG 4465   4.278   8.092   8.903 -0.4996  0.3097  0.7972
  298LIG    OD1 4466   4.365   8.097   8.809 -0.7372 -0.3074  0.9227
  298LIG    OD2 4467   4.221   7.988   8.929 -0.2533 -0.6468  0.2351
  298LIG      C 4468   4.390   8.164   9.182 -0.0624  0.9533 -0.3040
  298LIG    OT1 4469   4.428   8.238   9.277 -0.3912  0.1196  0.2830
  298LIG    OT2 4470   4.458   8.070   9.131  0.1584 -0.0281 -0.6651
  299LIG      N 4471   5.594   7.892   7.009 -0.2115 -0.1015  0.1583
  299LIG     H1 4472   5.525   7.893   7.087  0.1171  1.2494  0.4639
  299LIG     H2 4473   5.640   7.799   7.005  2.9429  1.3144  0.2782
  299LIG     H3 4474   5.671   7.960   7.024 -1.4759  1.1510  1.2644
  299LIG     CA 4475   5.514   7.938   6.899  0.1852  0.1443 -0.7822
  299LIG     HA 4476   5.532   7.858   6.829  1.9815 -0.3209  0.1584
  299LIG     CB 4477   5.366   7.927   6.948  0.6132  0.0299 -0.1977
  299LIG    HB1 4478   5.330   8.018   7.001  1.4592 -0.4097  1.1938
  299LIG    HB2 4479   5.349   7.845   7.021  0.3705  0.1486 -0.1172
  299LIG     CG 4480   5.273   7.899   6.833 -0.4386  0.1114  0.0003
  299LIG    OD1 4481   5.186   7.981   6.804 -0.2214  0.2494 -0.4106
  299LIG    OD2 4482   5.274   7.783   6.777  0.2902 -0.9252 -0.1825
  299LIG      C 4483   5.548   8.078   6.838 -0.4985  0.6378 -0.5223
  299LIG    OT1 4484   5.651   8.138   6.883 -0.4776 -0.1565  0.4957
  299LIG    OT2 4485   5.467   8.139   6.764  0.5233  0.3139 -0.4704
  300LIG      N 4486   5.784   0.215   2.490  0.0006 -0.3271  0.8466
  300LIG     H1 4487   5.793   0.147   2.568  1.0372 -1.6951 -0.4039
  300LIG     H2 4488   5.688   0.254   2.480  0.2205  0.4641  1.5932
  300LIG     H3 4489   5.800   0.161   2.403 -1.4693 -0.6652  0.7765
  300LIG     CA 4490   5.875   0.335   2.497 -0.5136 -0.5927 -0.7811
  300LIG     HA 4491   5.972   0.308   2.457  0.9908  0.0115  2.2028
  300LIG     CB 4492   5.809   0.443   2.417 -0.2606  0.5074  0.2559
  300LIG    HB1 4493   5.716   0.480   2.466  1.9401  4.1699  2.0947
  300LIG    HB2 4494   5.780   0.406   2.316  1.9303 -3.2464  0.7949
  300LIG     CG 4495   5.890   0.571   2.389 -0.1223  0.6809  0.0214
  300LIG    OD1 4496   5.821   0.675   2.361 -0.2423 -0.0411 -0.4320
  300LIG    OD2 4497   6.014   0.566   2.372 -0.7626  0.5853  0.5098
  300LIG      C 4498   5.901   0.391   2.642 -1.1420 -0.1199  0.2166
  300LIG    OT1 4499   5.829   0.340   2.732  0.7353 -0.3318 -0.1193
  300LIG    OT2 4500   5.990   0.476   2.669 -0.8218  0.1656 -0.1164
  301LIG      N 4501   9.835   3.295   7.578  0.7208  0.4368 -0.1883
  301LIG     H1 4502   9.837   3.333   7.675 -0.4890  2.7599 -1.0189
  301LIG     H2 4503   9.765   3.343   7.519  0.7538  0.3514 -0.2992
  301LIG     H3 4504   9.802   3.197   7.591 -2.9610  1.5289 -0.2711
  301LIG     CA 4505   9.967   3.297   7.507  0.1931  0.3361 -0.4671
  301LIG     HA 4506   9.993   3.402   7.499  0.7591  0.4665  2.2698
  301LIG     CB 4507  10.077   3.215   7.591 -0.1023 -0.0362  0.2735
  301LIG    HB1 4508  10.049   3.109   7.603  0.1373 -0.2339 -0.8146
  301LIG    HB2 4509  10.085   3.265   7.690  0.6183  0.1261  0.1430
  301LIG     CG 4510  10.214   3.238   7.529 -0.1364 -0.6744  0.0164
  301LIG    OD1 4511  10.283   3.141   7.492  0.0918 -0.0577  0.1308
  301LIG    OD2 4512  10.254   3.357   7.514 -0.6782  0.1380 -0.0257
  301LIG      C 4513   9.943   3.233   7.365 -0.3468 -0.2651 -0.3178
  301LIG    OT1 4514   9.828   3.189   7.335 -0.2189 -0.3735  0.2812
  301LIG    OT2 4515  10.029   3.228   7.279 -0.2258  0.5733 -0.2606
  302LIG      N 4516   6.609   1.042   6.398  0.3100 -0.1301 -0.1060
  302LIG     H1 4517   6.671   1.126   6.393  0.7860 -0.4096  0.8200
  302LIG     H2 4518   6.626   1.001   6.492  1.5887  1.7877  0.5741
  302LIG     H3 4519   6.633   0.975   6.323 -4.9754  0.3960 -2.7582
  302LIG     CA 4520   6.467   1.078   6.367 -0.3648  0.7888 -0.6058
  302LIG     HA 4521   6.402   1.023   6.433  1.9881 -1.9575 -0.4090
  302LIG     CB 4522   6.479   1.237   6.387 -0.2272 -0.7054 -0.7040
  302LIG    HB1 4523   6.542   1.286   6.310  0.1708 -1.2802 -0.7590
  302LIG    HB2 4524   6.511   1.249   6.493 -3.3347  1.6521  0.0830
  302LIG     CG 4525   6.345   1.301   6.389  1.0153  0.4581 -0.6526
  302LIG    OD1 4526   6.331   1.410   6.329  0.3210 -0.6760  0.1157
  302LIG    OD2 4527   6.249   1.244   6.446 -0.0934  0.7026 -0.9130
  302LIG      C 4528   6.429   1.044   6.215  0.2774  0.0429 -0.5982
  302LIG    OT1 4529   6.524   0.997   6.147 -0.2914  0.3401 -0.3033
  302LIG    OT2 4530   6.311   1.054   6.172  0.1545 -0.3686 -0.2071
  303LIG      N 4531   0.107   9.695   1.074 -0.2344 -0.2885 -0.4054
  303LIG     H1 4532   0.110   9.748   0.984  1.5273 -0.0753 -0.2581
  303LIG     H2 4533   0.122   9.595   1.052  0.4899 -0.3208  0.1867
  303LIG     H3 4534   0.014   9.704   1.119 -0.5167 -1.5798 -0.7054
  303LIG     CA 4535   0.219   9.750   1.155 -0.5178  0.6423 -0.0594
  303LIG     HA 4536   0.310   9.751   1.096 -0.7515 -0.7519 -0.4771
  303LIG     CB 4537   0.174   9.900   1.196 -0.3799  1.1375  0.4402
  303LIG    HB1 4538   0.095   9.883   1.273 -0.4076 -0.0438  0.1676
  303LIG    HB2 4539   0.133   9.952   1.108 -1.4423 -1.5693 -0.7847
  303LIG     CG 4540   0.293   9.978   1.242  0.4353 -0.1012 -0.6027
  303LIG    OD1 4541   0.294  10.010   1.359 -0.1843 -0.6093 -0.5902
  303LIG    OD2 4542   0.390  10.013   1.173  0.2949 -0.2529  0.3524
  303LIG      C 4543   0.254   9.651   1.275  0.6289  0.0365  0.3152
  303LIG    OT1 4544   0.183   9.553   1.304 -0.0735  0.5122 -0.0238
  303LIG    OT2 4545   0.348   9.693   1.345 -0.7172  0.7766  0.1895
  304LIG      N 4546   5.170   1.140   7.567 -0.2378  0.1515  0.0779
  304LIG     H1 4547   5.248   1.196   7.526 -0.3914 -0.5087 -1.1894
  304LIG     H2 4548   5.084   1.195   7.585  0.0151  0.9526 -1.0674
  304LIG     H3 4549   5.201   1.104   7.659  1.6764  0.9621 -0.2139
  304LIG     CA 4550   5.150   1.033   7.469  0.0634 -0.0290  0.2880
  304LIG     HA 4551   5.048   1.001   7.457  0.6489 -1.6328 -0.7729
  304LIG     CB 4552   5.217   1.081   7.342  0.0765 -0.2473  0.7681
  304LIG    HB1 4553   5.325   1.101   7.357 -0.0477  0.4421  0.8085
  304LIG    HB2 4554   5.174   1.180   7.316  0.4279 -0.0350  0.9847
  304LIG     CG 4555   5.190   0.998   7.221  0.4321  0.1240 -0.2869
  304LIG    OD1 4556   5.282   0.971   7.141  0.0629  0.1263 -0.4197
  304LIG    OD2 4557   5.071   0.952   7.206 -0.3402 -0.1697 -0.3427
  304LIG      C 4558   5.225   0.906   7.526 -0.3717  0.6899 -0.8183
  304LIG    OT1 4559   5.299   0.915   7.627  0.2010 -0.6907  0.0358
  304LIG    OT2 4560   5.218   0.795   7.470  0.3506  0.4325  0.1490
  305LIG      N 4561   0.162   8.131   1.982 -0.2637  0.0228 -0.4952
  305LIG     H1 4562   0.262   8.162   1.983  0.3041 -1.7203  0.5871
  305LIG     H2 4563   0.106   8.191   1.918 -0.3131  0.5679  0.0590
  305LIG     H3 4564   0.118   8.139   2.076  0.9646  0.5801  0.0557
  305LIG     CA 4565   0.157   7.985   1.941 -0.3764 -0.5581 -0.5575
  305LIG     HA 4566   0.057   7.959   1.972 -0.5432  2.4123  2.0040
  305LIG     CB 4567   0.173   7.964   1.790 -0.1751 -0.1054  0.1610
  305LIG    HB1 4568   0.271   7.985   1.743  0.6125 -1.9676  0.8283
  305LIG    HB2 4569   0.096   8.027   1.741 -0.1701 -0.0988  0.1615
  305LIG     CG 4570   0.148   7.818   1.761 -0.0218 -0.5770 -0.3552
  305LIG    OD1 4571   0.237   7.757   1.691 -0.9375 -0.5218 -0.0675
  305LIG    OD2 4572   0.041   7.751   1.791  0.3524 -0.2416 -0.4260
  305LIG      C 4573   0.259   7.904   2.022 -0.3048 -0.3624  1.1046
  305LIG    OT1 4574   0.328   7.963   2.113 -0.5370 -0.2662  0.1738
  305LIG    OT2 4575   0.261   7.777   2.009  0.3443 -0.6772  0.4411
  306LIG      N 4576   0.089   9.711   4.180 -0.4319  0.1539 -0.4017
  306LIG     H1 4577   0.122   9.679   4.274 -1.6780 -1.9506 -0.6152
  306LIG     H2 4578  -0.008   9.747   4.189 -0.5419  0.0371 -1.0318
  306LIG     H3 4579   0.082   9.626   4.119  2.5425 -1.2739  1.0281
  306LIG     CA 4580   0.176   9.828   4.128  0.6660  0.1204 -0.3191
  306LIG     HA 4581   0.275   9.804   4.165  0.3529 -0.7125  0.0118
  306LIG     CB 4582   0.169   9.860   3.975 -0.2298  0.1348 -0.1567
  306LIG    HB1 4583   0.078   9.921   3.955 -1.0820 -0.1701  2.4045
  306LIG    HB2 4584   0.166   9.769   3.913 -0.0450  0.2752 -0.3703
  306LIG     CG 4585   0.288   9.941   3.940 -0.0121  0.1954 -0.3674
  306LIG    OD1 4586   0.282  10.030   3.851 -0.5173  0.0159  0.0728
  306LIG    OD2 4587   0.393   9.901   3.988 -0.6090  0.3629 -0.8346
  306LIG      C 4588   0.125   9.957   4.206 -0.2617  0.5409  0.1916
  306LIG    OT1 4589   0.046   9.939   4.306  0.0806  0.8145  0.5097
  306LIG    OT2 4590   0.161  10.072   4.169  0.0695  0.7497 -0.1059
  307LIG      N 4591   6.734   9.708   2.557 -0.0329  0.1769 -0.0576
  307LIG     H1 4592   6.777   9.655   2.636  1.2272  1.1270 -0.0647
  307LIG     H2 4593   6.669   9.774   2.604  0.6376  1.1026 -0.3880
  307LIG     H3 4594   6.678   9.642   2.499 -0.6823  1.6902 -1.2194
  307LIG     CA 4595   6.838   9.766   2.471 -0.2545  0.1268 -0.0248
  307LIG     HA 4596   6.778   9.828   2.406 -1.5048 -0.2495  0.7453
  307LIG     CB 4597   6.926   9.856   2.562 -0.1091  0.7866 -0.4564
  307LIG    HB1 4598   6.990   9.795   2.630 -1.1359  0.2820  0.0733
  307LIG    HB2 4599   6.863   9.921   2.625  0.0648  1.0711 -0.5759
  307LIG     CG 4600   6.994   9.956   2.482 -0.7521 -0.6389  0.0532
  307LIG    OD1 4601   7.117   9.975   2.490 -0.3157 -0.0593  0.8034
  307LIG    OD2 4602   6.925  10.021   2.399  0.1465 -0.5476  0.0867
  307LIG      C 4603   6.920   9.664   2.390 -0.1110  0.1677  0.0141
  307LIG    OT1 4604   6.904   9.546   2.418 -0.4312 -0.3663  0.4039
  307LIG    OT2 4605   7.002   9.701   2.306  0.5524  0.2768  0.0003
  308LIG      N 4606   0.911   4.273   5.501  0.1744  0.3598 -0.1290
  308LIG     H1 4607   0.974   4.282   5.583  0.9117  1.2836 -0.7746
  308LIG     H2 4608   0.829   4.214   5.526  0.8118  0.4698  2.4632
  308LIG     H3 4609   0.960   4.207   5.436  0.6993 -0.2331  0.8503
  308LIG     CA 4610   0.874   4.408   5.446 -0.1815  0.3999 -0.2690
  308LIG     HA 4611   0.807   4.452   5.518  0.3069  0.6238  0.0618
  308LIG     CB 4612   1.003   4.504   5.433  0.5669 -0.2990  0.2646
  308LIG    HB1 4613   1.062   4.455   5.352  0.0379 -1.4855  0.5799
  308LIG    HB2 4614   1.059   4.506   5.529 -0.8363  0.5036  1.1019
  308LIG     CG 4615   0.962   4.649   5.404 -0.5253  0.4940 -0.0425
  308LIG    OD1 4616   1.017   4.707   5.304  0.1694  0.0171  0.1544
  308LIG    OD2 4617   0.880   4.706   5.480 -0.0916 -0.4968 -0.0804
  308LIG      C 4618   0.800   4.393   5.311 -0.0762  0.0895 -0.3330
  308LIG    OT1 4619   0.782   4.280   5.269  0.2864  0.0073 -0.1550
  308LIG    OT2 4620   0.751   4.497   5.253  0.0563 -0.2303  0.0364
  309LIG      N 4621   1.971   0.212   4.710  0.2444 -0.0514 -0.1656
  309LIG     H1 4622   1.872   0.216   4.741  0.4745 -0.4178  0.6353
  309LIG     H2 4623   2.029   0.209   4.796  1.1560  2.1090 -0.6304
  309LIG     H3 4624   1.987   0.306   4.667  0.0310  0.5912  1.1057
  309LIG     CA 4625   2.000   0.096   4.629  0.5574 -0.3375  0.0110
  309LIG     HA 4626   1.961   0.007   4.674 -1.0830 -0.2042 -1.0699
  309LIG     CB 4627   1.913   0.116   4.498  0.0292 -0.7852  0.0533
  309LIG    HB1 4628   1.946   0.203   4.438  0.3656  0.5206  2.0494
  309LIG    HB2 4629   1.805   0.135   4.521  0.0496 -0.3295 -0.2190
  309LIG     CG 4630   1.920  -0.012   4.425  0.2216 -0.8059  0.2412
  309LIG    OD1 4631   1.936  -0.011   4.303  0.0281 -0.1430 -0.2504
  309LIG    OD2 4632   1.876  -0.115   4.483 -0.3876 -0.0504 -0.5094
  309LIG      C 4633   2.148   0.078   4.589  0.5489  0.5148  0.6458
  309LIG    OT1 4634   2.235   0.162   4.619 -0.3874 -0.9578 -0.6042
  309LIG    OT2 4635   2.196  -0.024   4.529  0.1284  0.0151  0.0308
  310LIG      N 4636   2.769   5.461   9.542 -0.1824 -0.5070 -0.5426
  310LIG     H1 4637   2.758   5.551   9.491 -1.7345  0.5975  1.6114
  310LIG     H2 4638   2.794   5.390   9.470  0.7890  0.8420 -1.5799
  310LIG     H3 4639   2.676   5.445   9.585  0.5400  0.8768  1.6851
  310LIG     CA 4640   2.882   5.476   9.635 -0.3856 -0.4426 -1.0749
  310LIG     HA 4641   2.896   5.384   9.690  0.6222  1.4736  2.1327
  310LIG     CB 4642   3.009   5.514   9.554  0.1213  0.0935  0.0077
  310LIG    HB1 4643   3.001   5.619   9.519 -0.3921 -0.2464 -0.9303
  310LIG    HB2 4644   3.026   5.440   9.473 -0.6987 -4.9218  3.9300
  310LIG     CG 4645   3.133   5.507   9.637 -0.0924  0.0808  0.2404
  310LIG    OD1 4646   3.214   5.603   9.643 -0.1509  0.1938  0.2292
  310LIG    OD2 4647   3.156   5.406   9.710  0.2046 -0.2186  0.8365
  310LIG      C 4648   2.843   5.592   9.732  0.5661  0.0532  0.4273
  310LIG    OT1 4649   2.744   5.672   9.718 -0.9694 -0.2090 -0.3324
  310LIG    OT2 4650   2.914   5.610   9.839 -0.2394  0.2379 -0.1113
  311LIG      N 4651   1.780   8.158   0.225 -0.3663 -0.1121 -1.0391
  311LIG     H1 4652   1.786   8.261   0.241 -0.9375 -0.2523  0.2097
  311LIG     H2 4653   1.807   8.148   0.125  0.7994  2.6376 -1.0974
  311LIG     H3 4654   1.679   8.137   0.221 -0.7323  1.3288 -0.3382
  311LIG     CA 4655   1.856   8.067   0.327 -0.0324 -0.3075  1.2658
  311LIG     HA 4656   1.810   7.970   0.322  0.3279 -0.5538  2.4194
  311LIG     CB 4657   2.001   8.052   0.276 -0.6575 -0.0282  0.0142
  311LIG    HB1 4658   2.064   8.140   0.299  0.1825 -0.2429 -1.3287
  311LIG    HB2 4659   2.015   8.039   0.167  1.1490 -0.4645  0.2653
  311LIG     CG 4660   2.063   7.929   0.343 -0.0407 -0.0138 -0.1412
  311LIG    OD1 4661   2.174   7.944   0.396  0.1839 -0.7038  0.1625
  311LIG    OD2 4662   2.006   7.821   0.349  0.5245  0.6353  0.3404
  311LIG      C 4663   1.852   8.121   0.471 -0.3755  0.0304 -0.5080
  311LIG    OT1 4664   1.794   8.233   0.488 -0.2128 -0.0632 -0.1618
  311LIG    OT2 4665   1.906   8.064   0.567  0.0010 -0.5764 -0.3791
  312LIG      N 4666   9.801   9.447   2.830  0.0434  0.0154  0.0643
  312LIG     H1 4667   9.874   9.469   2.760 -0.3954  3.4756  0.5051
  312LIG     H2 4668   9.765   9.353   2.805  2.8993 -0.7238 -1.7320
  312LIG     H3 4669   9.726   9.519   2.826  2.4892  2.7455 -0.4492
  312LIG     CA 4670   9.857   9.461   2.966  0.4905 -0.1581 -0.4404
  312LIG     HA 4671   9.780   9.441   3.039  0.0726  0.0629 -0.8119
  312LIG     CB 4672   9.970   9.355   2.978  0.2370  0.7069 -0.4715
  312LIG    HB1 4673  10.054   9.379   2.909  0.3256 -2.4737 -1.6505
  312LIG    HB2 4674   9.931   9.253   2.955  1.5839  0.0674 -0.0131
  312LIG     CG 4675  10.035   9.341   3.113 -0.0566 -0.2887  1.1143
  312LIG    OD1 4676  10.162   9.319   3.118  1.0534 -0.5156  0.5349
  312LIG    OD2 4677   9.961   9.341   3.215  0.2100 -0.3485  0.2902
  312LIG      C 4678   9.914   9.607   2.982 -0.2737 -0.3729  0.1292
  312LIG    OT1 4679   9.899   9.686   2.886 -0.4205  0.1383 -0.0066
  312LIG    OT2 4680   9.975   9.638   3.086  0.1215  0.0985 -0.1852
  313LIG      N 4681   6.790   0.008   8.522 -0.0169 -0.2428 -0.2204
  313LIG     H1 4682   6.817  -0.066   8.456 -0.9635 -0.6904 -0.1237
  313LIG     H2 4683   6.871   0.025   8.585 -1.5420 -1.1975  2.1514
  313LIG     H3 4684   6.715  -0.025   8.586  1.1148 -3.2088 -0.2927
  313LIG     CA 4685   6.749   0.123   8.441 -1.0259 -0.0869 -0.8979
  313LIG     HA 4686   6.651   0.102   8.402 -0.4474 -0.8776 -1.9918
  313LIG     CB 4687   6.726   0.238   8.552 -0.2292  0.0533  0.1984
  313LIG    HB1 4688   6.827   0.267   8.586 -0.5614  0.9052  0.4881
  313LIG    HB2 4689   6.674   0.207   8.646  1.1434 -0.6086  0.7541
  313LIG     CG 4690   6.653   0.370   8.501  0.3016  1.2210 -0.4172
  313LIG    OD1 4691   6.708   0.477   8.525  0.5689 -0.4807 -0.6579
  313LIG    OD2 4692   6.531   0.348   8.464 -0.4634  0.8431  0.2121
  313LIG      C 4693   6.847   0.165   8.327  0.1656  0.4598 -0.2030
  313LIG    OT1 4694   6.967   0.123   8.333 -0.1671  0.1410  0.0599
  313LIG    OT2 4695   6.812   0.256   8.247 -0.5248 -0.0971  0.4096
  314LIG      N 4696   0.193   8.754   1.028  0.7639 -0.1768 -0.1663
  314LIG     H1 4697   0.274   8.819   1.021 -1.0156  2.0984 -1.1237
  314LIG     H2 4698   0.195   8.697   1.115  0.3218 -1.1955 -0.8109
  314LIG     H3 4699   0.187   8.702   0.938  1.0863  0.0638 -0.3270
  314LIG     CA 4700   0.070   8.844   1.017 -0.0051  0.2986 -0.5572
  314LIG     HA 4701   0.024   8.826   1.113  0.6335  1.3632 -0.0423
  314LIG     CB 4702   0.114   8.995   1.003 -0.1498  0.1328  0.5460
  314LIG    HB1 4703   0.169   9.008   0.907 -0.0406 -3.0596  0.0379
  314LIG    HB2 4704   0.183   9.026   1.084  0.4184 -2.0358  0.9816
  314LIG     CG 4705  -0.014   9.083   0.993  0.0269  0.3815  0.6491
  314LIG    OD1 4706  -0.019   9.184   0.915  0.4653  0.7130 -0.6052
  314LIG    OD2 4707  -0.092   9.067   1.092  0.7497 -0.3410  0.3969
  314LIG      C 4708  -0.026   8.782   0.914  0.8213 -0.4766  0.4296
  314LIG    OT1 4709   0.014   8.694   0.839  0.7323  0.2097 -0.2910
  314LIG    OT2 4710  -0.144   8.824   0.905  0.2442  0.5804  0.0847
  315LIG      N 4711   5.005   9.212   6.013  0.3894 -0.6107 -0.1705
  315LIG     H1 4712   5.095   9.245   5.972 -1.3118  0.9676 -2.9282
  315LIG     H2 4713   5.005   9.235   6.115 -2.0744 -0.1652 -0.2180
  315LIG     H3 4714   4.997   9.110   5.997  1.1367 -0.8158  0.6877
  315LIG     CA 4715   4.897   9.286   5.943 -0.3832  0.3823 -0.4541
  315LIG     HA 4716   4.926   9.389   5.955 -0.1304  0.4570 -1.5818
  315LIG     CB 4717   4.905   9.257   5.796  1.0876 -0.0298 -0.0122
  315LIG    HB1 4718   4.866   9.154   5.778  0.3533  0.5860 -2.2977
  315LIG    HB2 4719   5.003   9.256   5.743  1.2428  3.1038  0.0666
  315LIG     CG 4720   4.817   9.348   5.714 -0.3080  0.3070 -0.5628
  315LIG    OD1 4721   4.724   9.295   5.641 -0.1792 -0.1180 -0.0977
  315LIG    OD2 4722   4.835   9.473   5.716  0.0122  0.0449  0.7380
  315LIG      C 4723   4.755   9.274   6.008  0.5837  0.4242  0.2868
  315LIG    OT1 4724   4.738   9.201   6.107 -0.4409 -0.8675  0.4235
  315LIG    OT2 4725   4.659   9.322   5.947  0.1193  0.2698  0.2863
  316LIG      N 4726   9.065   2.248   2.371  0.0889  0.0492 -0.4866
  316LIG     H1 4727   9.006   2.281   2.450 -0.3071  0.2213 -0.8512
  316LIG     H2 4728   9.164   2.248   2.403  1.1838  2.1426 -3.4180
  316LIG     H3 4729   9.066   2.323   2.299  1.0098 -1.4829 -2.1464
  316LIG     CA 4730   9.013   2.126   2.315 -0.9932 -0.1365  0.5146
  316LIG     HA 4731   9.022   2.045   2.386 -2.0584 -1.7272 -1.0480
  316LIG     CB 4732   8.870   2.155   2.268  0.7061  0.2882  0.2200
  316LIG    HB1 4733   8.880   2.225   2.182  2.4087  1.0074  0.9579
  316LIG    HB2 4734   8.821   2.206   2.353  1.1215 -1.5813  1.6476
  316LIG     CG 4735   8.788   2.030   2.228  0.1338  0.2666 -0.2535
  316LIG    OD1 4736   8.709   2.047   2.134  0.3754  0.0320 -0.3667
  316LIG    OD2 4737   8.794   1.926   2.300 -0.6736  0.1679 -0.2688
  316LIG      C 4738   9.097   2.084   2.186  0.0307 -0.2138  0.0276
  316LIG    OT1 4739   9.174   2.165   2.137 -1.2229 -1.0858  1.3532
  316LIG    OT2 4740   9.083   1.970   2.138  0.2783 -0.3795  0.5780
  317LIG      N 4741   0.336   7.534   1.827 -0.0664  0.2348 -0.3310
  317LIG     H1 4742   0.306   7.634   1.829  4.1037  1.6969 -1.1246
  317LIG     H2 4743   0.439   7.532   1.833 -0.0679  0.0628 -0.3716
  317LIG     H3 4744   0.296   7.481   1.746 -1.4560  0.0978  0.4096
  317LIG     CA 4745   0.279   7.448   1.933  0.1852 -0.3958 -0.1659
  317LIG     HA 4746   0.311   7.491   2.028  0.8011 -0.3104 -0.4040
  317LIG     CB 4747   0.127   7.458   1.919 -0.8854 -0.0901 -0.4805
  317LIG    HB1 4748   0.077   7.430   1.823 -1.9276  1.0311 -0.2891
  317LIG    HB2 4749   0.102   7.565   1.933 -2.4174  0.2094 -4.1566
  317LIG     CG 4750   0.058   7.386   2.033  0.1666  0.1958  0.0748
  317LIG    OD1 4751  -0.030   7.304   2.001  0.1649 -0.0935 -0.3778
  317LIG    OD2 4752   0.085   7.419   2.156 -0.2607 -0.3054 -0.0521
  317LIG      C 4753   0.331   7.304   1.935 -0.1354  0.4744  0.4683
  317LIG    OT1 4754   0.404   7.272   1.832  0.2754  0.2594 -0.8634
  317LIG    OT2 4755   0.303   7.226   2.028  0.1626  0.2600 -0.0763
  318LIG      N 4756   7.474   6.605   0.784  0.0844  0.4398 -0.0981
  318LIG     H1 4757   7.411   6.529   0.818  1.9227 -1.2141 -0.1875
  318LIG     H2 4758   7.548   6.628   0.854  0.8428  1.1305 -1.1129
  318LIG     H3 4759   7.422   6.687   0.749  0.5286  1.3048  1.1886
  318LIG     CA 4760   7.555   6.537   0.675  0.0731  0.2657  0.7543
  318LIG     HA 4761   7.638   6.604   0.654  0.2043 -0.1934 -0.2507
  318LIG     CB 4762   7.606   6.396   0.718  0.4927 -0.1566  0.6539
  318LIG    HB1 4763   7.515   6.333   0.716 -1.8616  2.9441  1.3995
  318LIG    HB2 4764   7.624   6.384   0.827 -2.6135 -3.1292  0.9849
  318LIG     CG 4765   7.732   6.358   0.646  1.2312  0.4400  0.1103
  318LIG    OD1 4766   7.738   6.252   0.584  0.2610  0.1168  0.2207
  318LIG    OD2 4767   7.825   6.439   0.643 -0.1746 -0.2021 -0.1439
  318LIG      C 4768   7.479   6.520   0.541 -0.6661 -0.0606 -0.2216
  318LIG    OT1 4769   7.363   6.563   0.525  0.1611  0.1371  0.3842
  318LIG    OT2 4770   7.527   6.454   0.442 -0.1635  0.1275  0.2421
  319LIG      N 4771   0.564   9.231   4.773 -0.3396  0.2084  0.4022
  319LIG     H1 4772   0.624   9.197   4.695 -0.7874 -0.6962  0.4413
  319LIG     H2 4773   0.503   9.299   4.724  0.2668  0.9952  0.7280
  319LIG     H3 4774   0.618   9.273   4.852  1.6751 -1.2621 -0.0856
  319LIG     CA 4775   0.495   9.111   4.844 -0.5424 -0.1119 -0.3677
  319LIG     HA 4776   0.567   9.057   4.904 -2.1267 -2.0704 -0.1314
  319LIG     CB 4777   0.379   9.168   4.928  0.3366 -0.0732 -0.4407
  319LIG    HB1 4778   0.293   9.170   4.857  0.3725  1.5787 -0.4700
  319LIG    HB2 4779   0.398   9.270   4.967  1.9176 -0.9330  1.1601
  319LIG     CG 4780   0.322   9.076   5.035  1.2715  0.0656  0.4658
  319LIG    OD1 4781   0.196   9.082   5.059 -0.1194  0.4644  0.3268
  319LIG    OD2 4782   0.399   9.008   5.105  0.0507  0.1256 -0.6331
  319LIG      C 4783   0.449   9.012   4.739 -0.4767 -0.1448 -0.7503
  319LIG    OT1 4784   0.456   9.036   4.615  0.5946  0.5093 -0.0190
  319LIG    OT2 4785   0.402   8.900   4.774 -1.1971 -0.2596  0.0234
  320LIG      N 4786   2.189   2.627   0.795  0.6460 -0.3616 -0.1389
  320LIG     H1 4787   2.249   2.544   0.818  1.3112  0.5665  1.6470
  320LIG     H2 4788   2.246   2.709   0.822  0.2518  0.0825 -0.6503
  320LIG     H3 4789   2.097   2.635   0.841  0.7091  2.5473 -0.3688
  320LIG     CA 4790   2.188   2.626   0.649  0.3353 -0.2222 -0.1842
  320LIG     HA 4791   2.281   2.596   0.602 -0.9619 -0.7277 -2.5755
  320LIG     CB 4792   2.081   2.529   0.601  0.2907  0.5734 -0.0174
  320LIG    HB1 4793   1.978   2.564   0.621  0.7643  1.5312  0.8855
  320LIG    HB2 4794   2.098   2.435   0.658  1.0300  1.0953  0.6531
  320LIG     CG 4795   2.100   2.495   0.458 -0.0857  0.2360  0.6086
  320LIG    OD1 4796   2.005   2.470   0.379 -0.0479  0.4592  0.2465
  320LIG    OD2 4797   2.219   2.471   0.415  0.5723  0.0087  0.1146
  320LIG      C 4798   2.159   2.768   0.597 -0.8668 -0.1717  0.4571
  320LIG    OT1 4799   2.149   2.866   0.676 -0.2012  0.0520  0.4294
  320LIG    OT2 4800   2.156   2.793   0.475 -0.3750  0.3784 -0.2093
  321LIG      N 4801   5.054   0.823   5.023 -0.6795  0.0075 -0.2003
  321LIG     H1 4802   5.091   0.818   4.926  0.9529 -0.7676  0.4333
  321LIG     H2 4803   4.967   0.881   5.018 -0.7028 -0.0984 -1.5569
  321LIG     H3 4804   5.119   0.881   5.080 -0.5791  0.6559 -0.9500
  321LIG     CA 4805   5.023   0.690   5.085  0.2939  0.2152 -0.0902
  321LIG     HA 4806   5.102   0.620   5.064 -0.9583 -1.2210 -0.1626
  321LIG     CB 4807   5.006   0.712   5.244  0.4863 -0.0393 -0.1013
  321LIG    HB1 4808   4.903   0.752   5.261  0.3885 -0.8432  1.3640
  321LIG    HB2 4809   5.087   0.777   5.283  1.5762 -0.6772 -1.2496
  321LIG     CG 4810   5.022   0.576   5.317  0.1240  0.5343  0.3272
  321LIG    OD1 4811   4.946   0.555   5.410 -0.6970 -0.2240 -0.0044
  321LIG    OD2 4812   5.112   0.505   5.276 -0.5647 -0.0168  0.1923
  321LIG      C 4813   4.896   0.623   5.021 -0.3806 -0.4653  0.3469
  321LIG    OT1 4814   4.819   0.684   4.941 -0.2630 -0.6024 -0.1200
  321LIG    OT2 4815   4.876   0.506   5.051 -0.1901 -0.1898  0.5615
  322LIG      N 4816   0.579   4.364   9.635  0.2142  0.1373 -0.5536
  322LIG     H1 4817   0.646   4.443   9.628  0.0474  0.3198 -0.1485
  322LIG     H2 4818   0.488   4.413   9.628  0.3900  0.7212  0.8836
  322LIG     H3 4819   0.590   4.315   9.727 -1.3210 -0.8172 -0.8330
  322LIG     CA 4820   0.610   4.271   9.529  0.3134  0.3214  0.2076
  322LIG     HA 4821   0.691   4.209   9.564  1.9363  1.7778 -0.8114
  322LIG     CB 4822   0.482   4.189   9.499 -0.4188 -1.1722  0.1623
  322LIG    HB1 4823   0.411   4.255   9.444  0.2848  1.5726  2.3542
  322LIG    HB2 4824   0.422   4.151   9.584 -1.9311  0.7288  0.0021
  322LIG     CG 4825   0.522   4.058   9.424 -0.2474 -0.9392 -0.2590
  322LIG    OD1 4826   0.459   4.022   9.322  0.0261  0.4883 -0.3085
  322LIG    OD2 4827   0.607   3.980   9.481  0.0153  0.1315 -0.0941
  322LIG      C 4828   0.664   4.340   9.402  0.6696 -0.0679 -0.5548
  322LIG    OT1 4829   0.662   4.467   9.395  0.0245 -0.5033 -0.0266
  322LIG    OT2 4830   0.697   4.273   9.298 -0.0427  0.3567  0.6173
  323LIG      N 4831   0.129   0.446   6.541  0.3186  0.2314 -1.0059
  323LIG     H1 4832   0.056   0.457   6.614  2.6310 -0.7701  1.6690
  323LIG     H2 4833   0.134   0.345   6.514  2.7796 -0.1178  0.4805
  323LIG     H3 4834   0.219   0.472   6.587 -0.0793  2.2508 -1.2933
  323LIG     CA 4835   0.127   0.528   6.421 -0.2752  0.2458 -0.1443
  323LIG     HA 4836   0.032   0.504   6.375  0.2409 -0.3107 -0.9305
  323LIG     CB 4837   0.122   0.679   6.468  0.2262  0.1036 -0.4721
  323LIG    HB1 4838   0.224   0.714   6.490  0.9631 -1.5726 -1.0238
  323LIG    HB2 4839   0.054   0.677   6.555 -0.2207 -0.4527 -0.8245
  323LIG     CG 4840   0.045   0.760   6.371 -0.3672  0.6567 -0.1331
  323LIG    OD1 4841   0.086   0.876   6.347 -0.0644  0.1157 -0.6646
  323LIG    OD2 4842  -0.063   0.717   6.331  0.0236  0.0350  0.5530
  323LIG      C 4843   0.242   0.489   6.333  0.1631  0.4178 -0.0589
  323LIG    OT1 4844   0.342   0.422   6.379 -0.5966  0.3006 -0.1632
  323LIG    OT2 4845   0.239   0.509   6.211 -0.0335  0.0600  0.1693
  324LIG      N 4846   3.961   0.638   9.592  0.1681 -0.9596 -0.4552
  324LIG     H1 4847   3.882   0.662   9.528  0.6249 -1.2609 -1.1443
  324LIG     H2 4848   4.044   0.619   9.532  1.7825  2.0967  0.5988
  324LIG     H3 4849   3.930   0.557   9.648  1.3889 -0.5545  0.8612
  324LIG     CA 4850   3.989   0.738   9.689  0.0027 -0.4355  0.4283
  324LIG     HA 4851   3.899   0.792   9.715 -0.5066  0.5271 -2.7705
  324LIG     CB 4852   4.064   0.668   9.800  0.1326  0.3704  0.1371
  324LIG    HB1 4853   4.161   0.637   9.754  2.0642  0.5647  3.7369
  324LIG    HB2 4854   4.015   0.572   9.827  0.0736 -0.3505 -2.2872
  324LIG     CG 4855   4.084   0.758   9.919 -0.0502 -0.3446  0.0651
  324LIG    OD1 4856   4.195   0.740   9.981  0.4223 -0.3376 -0.0234
  324LIG    OD2 4857   3.992   0.831   9.962 -0.4178 -0.4778 -0.6662
  324LIG      C 4858   4.073   0.842   9.608  0.3614 -0.3034  0.0709
  324LIG    OT1 4859   4.130   0.808   9.498 -0.0303 -0.3983  0.1768
  324LIG    OT2 4860   4.088   0.955   9.662 -0.1767  0.1328 -0.6454
  325LIG      N 4861   8.665   1.470   2.139 -0.2179 -0.2171 -0.0212
  325LIG     H1 4862   8.682   1.493   2.239 -0.7234 -0.0766  0.0365
  325LIG     H2 4863   8.747   1.417   2.105 -0.7742  0.6978 -3.2307
  325LIG     H3 4864   8.648   1.564   2.095 -1.9559 -0.8969 -0.9269
  325LIG     CA 4865   8.546   1.375   2.116 -0.2296  0.0938  0.4525
  325LIG     HA 4866   8.456   1.434   2.106  1.0064  1.7017 -2.8202
  325LIG     CB 4867   8.569   1.294   1.989 -0.1872 -0.7188  0.5964
  325LIG    HB1 4868   8.635   1.207   2.008 -0.9543 -1.2905  0.6823
  325LIG    HB2 4869   8.622   1.348   1.908  1.7334 -3.8429 -0.4021
  325LIG     CG 4870   8.433   1.236   1.938 -0.4059  0.2748 -0.4650
  325LIG    OD1 4871   8.432   1.135   1.869 -0.1451 -0.2980  0.0649
  325LIG    OD2 4872   8.329   1.315   1.944 -0.5038  0.2403  0.2501
  325LIG      C 4873   8.531   1.274   2.232 -0.3212 -0.4257  0.5324
  325LIG    OT1 4874   8.617   1.269   2.328  0.1139  0.4311  0.8141
  325LIG    OT2 4875   8.430   1.205   2.240 -0.2968 -0.1426  0.2731
  326LIG      N 4876   0.463   6.319   9.844  0.3045 -0.3052 -0.5039
  326LIG     H1 4877   0.512   6.293   9.756 -1.7311  1.3182 -2.2148
  326LIG     H2 4878   0.364   6.342   9.824  0.6028  0.4869 -1.1267
  326LIG     H3 4879   0.521   6.401   9.873  0.8411 -0.8320 -0.0480
  326LIG     CA 4880   0.487   6.222   9.946 -0.3994 -0.2006 -0.1176
  326LIG     HA 4881   0.586   6.248   9.981 -1.7318  3.9530  1.2087
  326LIG     CB 4882   0.390   6.252  10.058  1.0155  0.4089  0.5765
  326LIG    HB1 4883   0.285   6.215  10.050  0.8074  0.8380  1.2486
  326LIG    HB2 4884   0.378   6.362  10.066  0.2779  0.5926 -2.0540
  326LIG     CG 4885   0.448   6.217  10.190  0.0353  0.1892 -0.2571
  326LIG    OD1 4886   0.372   6.174  10.278  0.3802 -0.4133 -0.1064
  326LIG    OD2 4887   0.564   6.255  10.211 -0.2608 -0.3764 -0.0576
  326LIG      C 4888   0.486   6.073   9.903 -0.3793  0.2293 -0.4361
  326LIG    OT1 4889   0.460   6.047   9.780 -0.3394 -0.3168 -0.4050
  326LIG    OT2 4890   0.506   5.981   9.985 -0.3297 -0.0557  0.6612
  327LIG      N 4891   9.223   0.226   3.194  0.2416 -0.2621  0.7593
  327LIG     H1 4892   9.220   0.321   3.150  1.8563 -1.3123 -1.8314
  327LIG     H2 4893   9.323   0.199   3.202  0.1975 -0.6575 -0.0013
  327LIG     H3 4894   9.164   0.163   3.137 -0.2848  1.5911 -0.8510
  327LIG     CA 4895   9.156   0.246   3.321 -0.4058  0.4025 -0.3909
  327LIG     HA 4896   9.153   0.151   3.373 -0.1664  0.0493 -1.0133
  327LIG     CB 4897   9.253   0.342   3.401 -0.1293  0.1448  0.1685
  327LIG    HB1 4898   9.245   0.440   3.351  1.5426  0.7784  1.0809
  327LIG    HB2 4899   9.361   0.317   3.390  0.2298  1.0603  1.4242
  327LIG     CG 4900   9.216   0.342   3.545  0.3027 -0.2637 -0.7760
  327LIG    OD1 4901   9.194   0.457   3.599  0.4906 -0.3393 -0.0397
  327LIG    OD2 4902   9.218   0.236   3.612  0.7293  0.1554  0.1988
  327LIG      C 4903   9.019   0.308   3.314  0.5001 -0.2786  0.2743
  327LIG    OT1 4904   8.983   0.372   3.213 -0.3355  0.1536  0.3931
  327LIG    OT2 4905   8.948   0.302   3.420 -0.4145 -0.2908 -0.4367
  328LIG      N 4906   4.258   8.232   8.579  0.2302  0.3158  0.1082
  328LIG     H1 4907   4.334   8.273   8.520 -1.9656  1.0119 -2.4458
  328LIG     H2 4908   4.226   8.304   8.647 -1.0004  1.1304 -1.2596
  328LIG     H3 4909   4.298   8.154   8.634  1.2400 -0.8018 -2.0840
  328LIG     CA 4910   4.159   8.199   8.478  0.6418 -0.1112 -0.7790
  328LIG     HA 4911   4.095   8.124   8.523 -0.2781 -0.3035 -2.3403
  328LIG     CB 4912   4.089   8.327   8.421  0.1503 -0.4746  0.0386
  328LIG    HB1 4913   4.151   8.388   8.352  0.8282  0.0558  1.0812
  328LIG    HB2 4914   4.080   8.403   8.502  0.6603  0.9885 -1.2366
  328LIG     CG 4915   3.951   8.309   8.361 -0.5046  0.0728 -0.0785
  328LIG    OD1 4916   3.929   8.360   8.249 -0.0367 -0.2000  0.0597
  328LIG    OD2 4917   3.860   8.240   8.416 -0.0811  0.8024 -0.6245
  328LIG      C 4918   4.222   8.144   8.342  0.4902 -0.2139  0.4979
  328LIG    OT1 4919   4.346   8.155   8.323 -0.3256  0.4553 -0.2787
  328LIG    OT2 4920   4.148   8.089   8.254 -0.0811  0.0866 -0.2269
  329LIG      N 4921   1.667   7.885   5.281  0.1856 -0.1449  0.0459
  329LIG     H1 4922   1.621   7.911   5.192 -1.3592 -1.0112  0.5485
  329LIG     H2 4923   1.645   7.784   5.290 -0.0502 -0.0532  0.5610
  329LIG     H3 4924   1.620   7.933   5.361  2.4237  2.1451  0.0998
  329LIG     CA 4925   1.811   7.923   5.289 -0.7926 -0.0141  0.6961
  329LIG     HA 4926   1.865   7.870   5.212  0.8108  2.9654 -0.4098
  329LIG     CB 4927   1.816   8.070   5.261 -0.1232  0.1063  0.9732
  329LIG    HB1 4928   1.779   8.134   5.344  0.8322 -0.8613  2.1787
  329LIG    HB2 4929   1.752   8.096   5.173  0.2653 -0.5583  0.4879
  329LIG     CG 4930   1.950   8.117   5.196  0.2463  0.0150  0.3194
  329LIG    OD1 4931   1.979   8.239   5.218  0.3119 -0.2855 -0.0524
  329LIG    OD2 4932   2.015   8.038   5.120  0.3656 -0.0133 -0.2164
  329LIG      C 4933   1.874   7.904   5.426 -0.1004  0.2864  0.3249
  329LIG    OT1 4934   1.804   7.857   5.524  0.2444  0.0806  0.3765
  329LIG    OT2 4935   1.996   7.933   5.444 -0.9671  0.3512  0.3396
  330LIG      N 4936   2.038   9.253   8.191 -0.3547 -0.3384 -0.7686
  330LIG     H1 4937   1.998   9.338   8.145 -1.3379  0.7577  1.9378
  330LIG     H2 4938   2.073   9.283   8.284 -0.3544  0.2405 -0.9498
  330LIG     H3 4939   2.113   9.210   8.134  0.2067 -1.2223  0.5999
  330LIG     CA 4940   1.932   9.157   8.209  0.1267 -0.5622 -0.3286
  330LIG     HA 4941   1.877   9.161   8.116 -0.6359 -0.6845  0.1012
  330LIG     CB 4942   2.005   9.022   8.251  0.4140  0.1278 -0.8988
  330LIG    HB1 4943   2.013   9.027   8.362 -1.5968 -1.7898 -0.5995
  330LIG    HB2 4944   2.108   9.012   8.209  1.1013 -0.4262  0.8342
  330LIG     CG 4945   1.923   8.897   8.219  0.6464  0.4645 -0.0376
  330LIG    OD1 4946   1.945   8.788   8.282  0.1049  0.2594 -0.5165
  330LIG    OD2 4947   1.848   8.898   8.124  0.1786 -0.5910 -0.0853
  330LIG      C 4948   1.824   9.210   8.314  0.7229  0.5778 -0.2787
  330LIG    OT1 4949   1.850   9.316   8.377  0.1097  0.4944 -0.4633
  330LIG    OT2 4950   1.716   9.142   8.328 -0.2448  0.3778 -0.3053
  331LIG      N 4951   0.113   4.990   3.621  0.1304 -0.4453 -0.2861
  331LIG     H1 4952   0.115   4.898   3.670  1.5171  0.2098  0.9546
  331LIG     H2 4953   0.087   5.059   3.694  0.0626 -0.3585 -0.3919
  331LIG     H3 4954   0.036   4.974   3.552  0.8838  0.6418 -1.4280
  331LIG     CA 4955   0.238   5.022   3.550 -0.1684 -0.6480 -0.0262
  331LIG     HA 4956   0.322   4.994   3.611  1.5221  1.2291 -1.3749
  331LIG     CB 4957   0.227   4.958   3.403  0.4688  0.6187 -0.0616
  331LIG    HB1 4958   0.144   5.009   3.349 -0.0278 -1.2363 -1.1472
  331LIG    HB2 4959   0.193   4.853   3.417 -1.0164  1.2253  1.3270
  331LIG     CG 4960   0.351   4.968   3.321  0.1277 -0.6562  0.2827
  331LIG    OD1 4961   0.345   5.030   3.211  0.3188 -0.6835 -0.0859
  331LIG    OD2 4962   0.453   4.897   3.362 -0.0133 -0.1904 -0.0594
  331LIG      C 4963   0.251   5.182   3.534  0.4654  0.2582  0.9300
  331LIG    OT1 4964   0.165   5.265   3.567  0.4964 -0.2786 -0.4221
  331LIG    OT2 4965   0.359   5.221   3.486 -0.0028  0.1694 -1.1403
  332LIG      N 4966   8.630   6.249   7.278 -0.4552 -0.5175 -0.2408
  332LIG     H1 4967   8.649   6.151   7.250 -2.0735 -1.3012  1.2442
  332LIG     H2 4968   8.720   6.288   7.312 -1.4689  2.2090 -0.4456
  332LIG     H3 4969   8.555   6.242   7.349 -2.4441 -1.3379 -2.3028
  332LIG     CA 4970   8.569   6.330   7.167  0.6612 -0.1565 -0.1100
  332LIG     HA 4971   8.637   6.312   7.085  0.2957  0.9481 -0.6771
  332LIG     CB 4972   8.419   6.284   7.146  0.1568  0.7625  0.4595
  332LIG    HB1 4973   8.351   6.331   7.220 -2.5576 -1.3037 -0.5524
  332LIG    HB2 4974   8.403   6.174   7.151 -0.6471  0.7746 -1.1471
  332LIG     CG 4975   8.374   6.323   6.999 -0.6085  0.1328  0.1923
  332LIG    OD1 4976   8.258   6.373   6.986  0.4735 -0.2459 -0.5123
  332LIG    OD2 4977   8.448   6.284   6.906  0.0340  0.5072  0.0816
  332LIG      C 4978   8.567   6.485   7.198 -0.2903  0.8932  0.0725
  332LIG    OT1 4979   8.593   6.524   7.315 -0.2942 -0.9826  0.4453
  332LIG    OT2 4980   8.529   6.568   7.102 -0.4991 -0.5219 -0.2826
  333LIG      N 4981   0.119   2.466   3.317 -0.8190  1.2114  0.8708
  333LIG     H1 4982   0.183   2.465   3.234 -4.2142 -2.3797 -2.1331
  333LIG     H2 4983   0.030   2.505   3.279 -3.0941 -2.9727  1.2829
  333LIG     H3 4984   0.151   2.523   3.398  2.1700  1.3011 -0.2525
  333LIG     CA 4985   0.109   2.329   3.349 -0.4516  0.3738 -0.4607
  333LIG     HA 4986   0.016   2.311   3.402 -0.6661  3.3623  0.3302
  333LIG     CB 4987   0.106   2.242   3.212 -0.6533 -0.0183 -0.1081
  333LIG    HB1 4988   0.213   2.230   3.185 -0.0211  2.6195  0.8522
  333LIG    HB2 4989   0.045   2.302   3.141 -0.5625  0.1662 -0.0307
  333LIG     CG 4990   0.033   2.110   3.220 -0.4233 -0.8434 -0.4487
  333LIG    OD1 4991   0.055   2.029   3.129  0.4881  0.3863  0.0413
  333LIG    OD2 4992  -0.048   2.091   3.314 -0.1417 -0.3583  0.1922
  333LIG      C 4993   0.237   2.288   3.437  0.7833 -0.2439  0.5406
  333LIG    OT1 4994   0.319   2.370   3.473 -0.4750 -0.1916  0.3544
  333LIG    OT2 4995   0.239   2.166   3.471  0.6119 -0.4009 -0.2909
  334LIG      N 4996   9.402   1.606   0.393 -0.4163  0.3846 -0.7392
  334LIG     H1 4997   9.426   1.634   0.490  0.6909 -0.7129 -0.6678
  334LIG     H2 4998   9.393   1.693   0.336  1.8705  1.9758  1.1016
  334LIG     H3 4999   9.319   1.545   0.394  1.4508 -2.3321 -0.2051
  334LIG     CA 5000   9.516   1.530   0.332  0.4897 -0.3144  0.2671
  334LIG     HA 5001   9.506   1.425   0.356 -0.4514  0.0372  1.5394
  334LIG     CB 5002   9.519   1.545   0.176 -0.3317  0.3029  0.4964
  334LIG    HB1 5003   9.574   1.637   0.146  2.3446 -1.5267 -0.5873
  334LIG    HB2 5004   9.414   1.551   0.141 -0.0008 -0.3129 -0.6522
  334LIG     CG 5005   9.577   1.426   0.110 -0.4335 -0.5673 -0.5202
  334LIG    OD1 5006   9.671   1.440   0.029  0.4969 -0.2260 -0.6627
  334LIG    OD2 5007   9.522   1.315   0.137  0.6216 -0.6452 -0.1196
  334LIG      C 5008   9.650   1.575   0.388  0.1657 -0.4646  0.0338
  334LIG    OT1 5009   9.658   1.680   0.459 -0.6553  0.2408 -0.0890
  334LIG    OT2 5010   9.752   1.508   0.357 -0.4710 -0.7337  0.6451
  335LIG      N 5011   8.691   2.181   8.642  0.1632 -0.4949 -0.5086
  335LIG     H1 5012   8.751   2.154   8.722 -0.8142  1.9467  1.1979
  335LIG     H2 5013   8.745   2.185   8.553  1.0354  1.3023  0.0500
  335LIG     H3 5014   8.663   2.281   8.652  4.1448  0.9216 -1.3708
  335LIG     CA 5015   8.567   2.088   8.631 -0.3724  0.0866  0.4904
  335LIG     HA 5016   8.498   2.136   8.563 -0.9745 -1.1941  0.1646
  335LIG     CB 5017   8.628   1.948   8.586 -0.3292 -0.1001 -0.1410
  335LIG    HB1 5018   8.667   1.888   8.670 -1.6058 -1.2028 -0.3044
  335LIG    HB2 5019   8.704   1.962   8.505 -0.5545  2.7302  0.0211
  335LIG     CG 5020   8.518   1.879   8.506 -0.7016  0.5674 -0.2011
  335LIG    OD1 5021   8.493   1.758   8.534 -0.1439  0.0998  0.2796
  335LIG    OD2 5022   8.461   1.938   8.414 -0.6393  0.1809  0.1471
  335LIG      C 5023   8.481   2.074   8.754  0.1445  0.6634 -0.2299
  335LIG    OT1 5024   8.527   2.123   8.862  0.0813 -0.6023 -0.5533
  335LIG    OT2 5025   8.372   2.023   8.747 -0.3036 -0.0002 -0.0706
  336LIG      N 5026   1.996   5.131   3.912 -0.4039 -0.0471 -0.1429
  336LIG     H1 5027   1.913   5.152   3.853  1.0283  0.0585 -2.2484
  336LIG     H2 5028   1.970   5.048   3.969 -3.8875 -0.5596 -2.2258
  336LIG     H3 5029   2.031   5.210   3.970 -0.3792  0.6919 -1.1512
  336LIG     CA 5030   2.108   5.095   3.818  1.0595 -0.0330 -0.1400
  336LIG     HA 5031   2.198   5.109   3.877  1.1765  1.2362 -0.5831
  336LIG     CB 5032   2.078   4.950   3.779  0.2946 -0.5571  0.1701
  336LIG    HB1 5033   2.006   4.946   3.694 -1.9531  1.0228  1.8850
  336LIG    HB2 5034   2.045   4.892   3.867  0.4143  0.1921  0.7175
  336LIG     CG 5035   2.211   4.880   3.758  0.3003 -0.0196 -0.2234
  336LIG    OD1 5036   2.230   4.805   3.661  0.0913  0.1302  0.0981
  336LIG    OD2 5037   2.305   4.900   3.841 -0.1550  0.6297 -0.7368
  336LIG      C 5038   2.120   5.181   3.687 -0.0833  0.6005 -0.7649
  336LIG    OT1 5039   2.036   5.275   3.666 -0.6085 -0.0428  0.3235
  336LIG    OT2 5040   2.209   5.143   3.605  0.3831  0.0573  0.6886
  337LIG      N 5041   6.771   8.298   1.099 -0.0882  0.0398  0.3847
  337LIG     H1 5042   6.805   8.274   1.004  2.0157 -1.1393  1.3623
  337LIG     H2 5043   6.824   8.378   1.138 -1.6590  0.6509  1.3609
  337LIG     H3 5044   6.776   8.207   1.150 -0.1632  0.0708  0.4468
  337LIG     CA 5045   6.623   8.335   1.090  0.8359  0.0494  0.3651
  337LIG     HA 5046   6.586   8.342   1.191  0.7668 -0.0260  0.3447
  337LIG     CB 5047   6.607   8.467   1.008 -0.3094  0.4215  0.1480
  337LIG    HB1 5048   6.617   8.444   0.899  1.5771  0.9093  0.1777
  337LIG    HB2 5049   6.687   8.539   1.034 -0.1418  0.3208 -0.0851
  337LIG     CG 5050   6.473   8.539   1.027 -0.9331 -0.0060 -0.3493
  337LIG    OD1 5051   6.406   8.580   0.929 -0.5475  0.5908  0.5695
  337LIG    OD2 5052   6.424   8.558   1.139 -0.3746  0.1679 -0.1358
  337LIG      C 5053   6.536   8.229   1.015 -0.2394  0.7115  0.2871
  337LIG    OT1 5054   6.593   8.128   0.960 -0.1097  0.3489 -0.0451
  337LIG    OT2 5055   6.412   8.241   1.010 -0.1020  0.1028  0.1011
  338LIG      N 5056   7.577   0.706   7.062 -0.0512  0.1472 -0.4654
  338LIG     H1 5057   7.579   0.689   7.164  3.1370 -1.1035 -0.6135
  338LIG     H2 5058   7.627   0.795   7.042 -1.0746  1.1689  1.2954
  338LIG     H3 5059   7.482   0.733   7.029  0.1154  3.7594  1.4602
  338LIG     CA 5060   7.644   0.594   6.984 -0.1828 -0.4926 -0.1683
  338LIG     HA 5061   7.636   0.499   7.035 -0.3940 -0.5195 -0.2488
  338LIG     CB 5062   7.579   0.593   6.838 -0.4686 -0.4149  0.3841
  338LIG    HB1 5063   7.608   0.683   6.780  0.7178 -2.4708 -2.4634
  338LIG    HB2 5064   7.472   0.606   6.862  0.0027  0.7020  2.0389
  338LIG     CG 5065   7.595   0.467   6.755  0.5592 -0.2819 -0.0001
  338LIG    OD1 5066   7.613   0.498   6.638 -0.4356 -0.0012  0.4698
  338LIG    OD2 5067   7.588   0.351   6.802 -0.2307  0.1838  0.4068
  338LIG      C 5068   7.800   0.616   6.970  0.3899 -0.2949  0.6300
  338LIG    OT1 5069   7.851   0.723   7.012 -0.2478 -0.0174 -0.1923
  338LIG    OT2 5070   7.868   0.521   6.927  0.1683  0.5156  0.7227
  339LIG      N 5071   4.543   1.529   8.570 -0.5955  0.2966 -0.0856
  339LIG     H1 5072   4.621   1.466   8.541 -2.1009 -1.2680 -0.9151
  339LIG     H2 5073   4.501   1.497   8.660  1.7336 -2.1539  0.2751
  339LIG     H3 5074   4.475   1.537   8.493 -1.3310  1.3893  0.6533
  339LIG     CA 5075   4.602   1.658   8.606  0.1374 -0.7627 -0.0288
  339LIG     HA 5076   4.520   1.727   8.616  1.3671  1.2566 -2.5893
  339LIG     CB 5077   4.669   1.641   8.751  0.2867 -0.4607  0.6983
  339LIG    HB1 5078   4.770   1.599   8.730 -0.7153 -3.2938  1.1148
  339LIG    HB2 5079   4.610   1.576   8.819  0.2074  1.5609  2.6666
  339LIG     CG 5080   4.663   1.778   8.818  0.0429 -0.5925 -0.3931
  339LIG    OD1 5081   4.759   1.808   8.892  0.1385  0.4361  0.1309
  339LIG    OD2 5082   4.555   1.848   8.822  0.3189 -0.4461  0.1598
  339LIG      C 5083   4.693   1.703   8.481  0.4719  0.4441 -1.1821
  339LIG    OT1 5084   4.705   1.622   8.381  0.3470  0.3904 -0.3184
  339LIG    OT2 5085   4.737   1.821   8.479  0.0175 -0.2331 -0.6107
  340LIG      N 5086   2.915   9.438   0.243 -0.4816  0.5808 -0.4651
  340LIG     H1 5087   3.016   9.453   0.221 -0.3373 -0.3835 -0.5043
  340LIG     H2 5088   2.859   9.518   0.210 -2.0920 -0.3514 -0.0818
  340LIG     H3 5089   2.901   9.429   0.345 -0.6419 -0.0471 -0.5383
  340LIG     CA 5090   2.866   9.317   0.168  0.7260  0.7168 -0.5419
  340LIG     HA 5091   2.761   9.328   0.189  0.9383  2.0111 -0.0617
  340LIG     CB 5092   2.894   9.321   0.014  0.2562 -0.0401  0.6105
  340LIG    HB1 5093   2.997   9.291  -0.015  0.8646  1.7343  0.7926
  340LIG    HB2 5094   2.887   9.428  -0.017 -1.1402 -0.3453 -0.2184
  340LIG     CG 5095   2.788   9.251  -0.070  0.3273 -0.1915  0.4983
  340LIG    OD1 5096   2.802   9.223  -0.190  0.2761  0.1727  0.7886
  340LIG    OD2 5097   2.674   9.248  -0.014 -0.1352  0.6495  0.0252
  340LIG      C 5098   2.915   9.176   0.224 -0.3341 -0.1997 -0.6125
  340LIG    OT1 5099   3.011   9.180   0.304 -0.4457  0.5609 -0.1124
  340LIG    OT2 5100   2.858   9.071   0.201 -0.0081  0.0232 -0.5599
  341LIG      N 5101   6.566   7.867   8.998  0.4183  0.5549 -0.3479
  341LIG     H1 5102   6.501   7.787   8.989 -0.8754  1.5883 -0.5707
  341LIG     H2 5103   6.508   7.950   8.974  0.1260  0.5846  0.4310
  341LIG     H3 5104   6.649   7.858   8.936 -0.5514 -1.9290 -1.3979
  341LIG     CA 5105   6.604   7.870   9.142  0.9730 -0.1766  0.8569
  341LIG     HA 5106   6.641   7.772   9.167 -1.0647 -2.0646 -2.7537
  341LIG     CB 5107   6.713   7.976   9.169  0.2594  0.0105  0.4849
  341LIG    HB1 5108   6.664   8.076   9.173 -0.1824 -0.1274 -0.8799
  341LIG    HB2 5109   6.781   7.981   9.081 -1.9956 -0.1972 -1.3908
  341LIG     CG 5110   6.795   7.967   9.292 -0.4420  0.6468 -0.0139
  341LIG    OD1 5111   6.827   8.074   9.350 -0.0750 -0.0159  0.1000
  341LIG    OD2 5112   6.840   7.857   9.332 -0.1403 -0.1467 -0.2956
  341LIG      C 5113   6.480   7.889   9.234  0.3249 -1.0744  0.4651
  341LIG    OT1 5114   6.366   7.928   9.190  0.0170  0.0787 -0.3866
  341LIG    OT2 5115   6.499   7.872   9.352  0.3309  0.3074  0.4252
  342LIG      N 5116   7.823   1.999   3.860  0.1703  0.4569 -0.0576
  342LIG     H1 5117   7.839   1.909   3.910 -1.4293  0.0686 -0.1888
  342LIG     H2 5118   7.720   2.013   3.864  0.3096  1.6685 -0.3903
  342LIG     H3 5119   7.852   1.989   3.761 -2.4720 -0.1698 -0.8388
  342LIG     CA 5120   7.885   2.121   3.919  0.0036 -0.0417 -0.0438
  342LIG     HA 5121   7.810   2.198   3.906  0.3768 -0.0686 -3.1530
  342LIG     CB 5122   7.914   2.093   4.070 -0.2067 -0.9646 -0.1861
  342LIG    HB1 5123   8.009   2.036   4.079 -2.9482 -5.9537  1.0739
  342LIG    HB2 5124   7.836   2.025   4.111 -1.5784  0.6577  0.0054
  342LIG     CG 5125   7.916   2.223   4.146  0.3440 -0.4688  0.5373
  342LIG    OD1 5126   8.003   2.252   4.232 -0.2056  0.1239 -0.5239
  342LIG    OD2 5127   7.807   2.286   4.142  0.1988  0.2208  0.0982
  342LIG      C 5128   8.011   2.163   3.846 -0.2374  0.3167  0.3816
  342LIG    OT1 5129   8.046   2.106   3.741 -0.2953 -0.1647  0.0682
  342LIG    OT2 5130   8.075   2.265   3.889 -0.5094 -0.3647 -0.4219
  343LIG      N 5131   9.528   9.710   3.908  0.0147 -0.0645 -0.6238
  343LIG     H1 5132   9.528   9.808   3.874 -1.4776  0.4048  0.5750
  343LIG     H2 5133   9.576   9.694   3.999 -2.2587 -3.8536  0.1332
  343LIG     H3 5134   9.584   9.661   3.836 -1.3405 -1.8800 -0.4962
  343LIG     CA 5135   9.385   9.675   3.912  0.5492 -0.3923 -0.5237
  343LIG     HA 5136   9.326   9.762   3.889  1.0869  0.2127  0.3042
  343LIG     CB 5137   9.368   9.557   3.805  1.0261 -0.0413  0.5006
  343LIG    HB1 5138   9.378   9.466   3.867 -1.5870  0.6198  2.0882
  343LIG    HB2 5139   9.440   9.567   3.721  0.6539  0.9563  0.2894
  343LIG     CG 5140   9.225   9.564   3.754  0.2147  0.3102  0.2361
  343LIG    OD1 5141   9.176   9.465   3.689 -0.2865 -0.3071 -0.5928
  343LIG    OD2 5142   9.153   9.664   3.773  0.8256 -0.0115  0.0206
  343LIG      C 5143   9.348   9.633   4.061 -0.5927 -0.2614 -0.3404
  343LIG    OT1 5144   9.419   9.660   4.162 -0.2137 -0.0735 -0.6223
  343LIG    OT2 5145   9.244   9.563   4.079  0.2432 -0.5729  0.7517
  344LIG      N 5146   0.599   8.029   3.911 -0.4198  0.3658  0.0425
  344LIG     H1 5147   0.521   7.961   3.924 -0.3749  0.5403  1.3949
  344LIG     H2 5148   0.642   8.035   4.005  1.2356  0.0950 -0.6701
  344LIG     H3 5149   0.555   8.119   3.881 -1.0280 -0.2656 -1.0148
  344LIG     CA 5150   0.703   7.997   3.808 -0.5986 -0.8638 -0.4144
  344LIG     HA 5151   0.643   7.995   3.719 -0.4796 -1.2777 -0.4894
  344LIG     CB 5152   0.811   8.107   3.819 -0.7324 -0.4028  0.0692
  344LIG    HB1 5153   0.903   8.079   3.874 -0.6958  0.7034  0.6120
  344LIG    HB2 5154   0.779   8.208   3.853  1.1725  0.8486 -1.6373
  344LIG     CG 5155   0.873   8.145   3.684 -0.5778 -0.6697  0.9494
  344LIG    OD1 5156   0.996   8.172   3.674  0.7753  1.3164  0.1634
  344LIG    OD2 5157   0.794   8.152   3.587 -0.5637  0.2739  1.0481
  344LIG      C 5158   0.761   7.858   3.807 -1.0918  0.5593  0.3468
  344LIG    OT1 5159   0.716   7.767   3.890 -0.2546  0.5729  0.3334
  344LIG    OT2 5160   0.856   7.823   3.728 -0.3973 -0.4750 -0.2176
  345LIG      N 5161   5.554   7.343   9.263  0.4963 -0.6376 -0.1529
  345LIG     H1 5162   5.519   7.247   9.286  3.7702 -1.6320  1.3012
  345LIG     H2 5163   5.486   7.417   9.291 -0.4510 -1.9154  1.1324
  345LIG     H3 5164   5.586   7.368   9.168  0.1833  0.6973  0.0789
  345LIG     CA 5165   5.682   7.364   9.352  0.3121 -0.3153 -0.6225
  345LIG     HA 5166   5.654   7.339   9.453  1.9637 -6.0896 -1.1766
  345LIG     CB 5167   5.793   7.259   9.314  0.0426  0.3165  0.2039
  345LIG    HB1 5168   5.878   7.308   9.262 -0.5735 -0.3657 -1.4988
  345LIG    HB2 5169   5.753   7.187   9.240 -2.0769  2.1291 -0.5072
  345LIG     CG 5170   5.854   7.184   9.434  0.1556  0.8964 -1.1714
  345LIG    OD1 5171   5.977   7.160   9.425  0.0341  0.0280  0.2894
  345LIG    OD2 5172   5.781   7.136   9.528 -0.0995  0.1675 -0.2088
  345LIG      C 5173   5.730   7.508   9.349  0.2625  0.1782  0.4333
  345LIG    OT1 5174   5.679   7.587   9.272  0.0337  0.0846  0.2514
  345LIG    OT2 5175   5.817   7.537   9.438  0.1582  0.2425  0.1841
  346LIG      N 5176   4.803   8.243   6.461 -0.0156  0.0283 -0.2023
  346LIG     H1 5177   4.872   8.190   6.403 -0.8321 -0.9381 -0.3147
  346LIG     H2 5178   4.712   8.214   6.420  1.0116 -0.7991 -2.0098
  346LIG     H3 5179   4.819   8.345   6.446  0.1274  0.0334 -0.0203
  346LIG     CA 5180   4.811   8.198   6.606  0.2599  0.2793  0.2137
  346LIG     HA 5181   4.910   8.229   6.634 -0.6380  2.3384  1.3223
  346LIG     CB 5182   4.703   8.264   6.681  0.0959  0.0527 -0.4451
  346LIG    HB1 5183   4.601   8.225   6.665  0.5163 -0.5530 -1.8040
  346LIG    HB2 5184   4.706   8.373   6.658  1.4130  0.3973  1.1222
  346LIG     CG 5185   4.733   8.272   6.826 -0.5659  0.3608  0.8662
  346LIG    OD1 5186   4.654   8.229   6.911  1.2351  0.6125  0.1401
  346LIG    OD2 5187   4.828   8.350   6.862  0.0829 -0.3529  0.3338
  346LIG      C 5188   4.800   8.041   6.614  0.5598 -0.1445  0.7382
  346LIG    OT1 5189   4.781   7.975   6.508 -0.1213  0.1598  0.0961
  346LIG    OT2 5190   4.820   7.997   6.726  0.1749  0.0336 -0.0255
  347LIG      N 5191   7.953   3.857   2.822  0.5690 -0.3910  0.1161
  347LIG     H1 5192   7.944   3.916   2.737 -0.0257  0.8761  1.0152
  347LIG     H2 5193   8.000   3.769   2.795  1.7476  1.0495 -3.0737
  347LIG     H3 5194   7.853   3.841   2.846  1.0133  0.0404  2.5367
  347LIG     CA 5195   8.020   3.925   2.935 -0.5914 -0.0342  0.6782
  347LIG     HA 5196   7.996   4.031   2.935  1.4174  0.4642 -0.1054
  347LIG     CB 5197   7.997   3.838   3.065 -0.3460 -0.4088 -0.3972
  347LIG    HB1 5198   8.062   3.749   3.068 -2.2392 -1.8419  0.3161
  347LIG    HB2 5199   7.892   3.803   3.079  0.0058 -0.4104  3.0939
  347LIG     CG 5200   8.018   3.922   3.183 -0.3173 -0.1126  0.0153
  347LIG    OD1 5201   8.122   3.907   3.257 -1.0909 -0.4053  0.3059
  347LIG    OD2 5202   7.946   4.021   3.202  0.2170 -0.0499 -0.5535
  347LIG      C 5203   8.173   3.936   2.909  0.4536  0.7718 -0.4499
  347LIG    OT1 5204   8.214   3.870   2.815 -0.3325 -0.1883 -0.6250
  347LIG    OT2 5205   8.249   3.993   2.986  0.1164 -0.3686 -0.3154
  348LIG      N 5206   4.546   1.534   6.837  0.3180 -0.4891 -0.5339
  348LIG     H1 5207   4.591   1.584   6.916  1.8907  1.5418 -2.5757
  348LIG     H2 5208   4.488   1.604   6.786 -0.3742 -0.0901  0.7428
  348LIG     H3 5209   4.475   1.464   6.867 -0.6659  1.0107  0.7861
  348LIG     CA 5210   4.644   1.459   6.750 -0.7670 -0.2518 -0.2822
  348LIG     HA 5211   4.701   1.527   6.689 -0.5558 -1.5397 -1.5822
  348LIG     CB 5212   4.732   1.377   6.853  0.7742  0.4505 -0.0897
  348LIG    HB1 5213   4.682   1.286   6.892 -0.9421  0.4886 -2.0314
  348LIG    HB2 5214   4.758   1.445   6.936 -1.0896  0.7022  0.3317
  348LIG     CG 5215   4.854   1.334   6.775 -0.0404  0.4280  0.4826
  348LIG    OD1 5216   4.894   1.217   6.783 -0.7229 -0.7329 -0.4245
  348LIG    OD2 5217   4.921   1.427   6.718  0.6256 -0.2055  0.5601
  348LIG      C 5218   4.574   1.369   6.642  0.3565  0.4067 -0.9815
  348LIG    OT1 5219   4.451   1.385   6.635 -0.5408  0.0915  0.3257
  348LIG    OT2 5220   4.638   1.297   6.564 -0.8089 -0.1401 -0.0421
  349LIG      N 5221   1.821   0.276   7.482 -0.2805 -0.5552 -0.1469
  349LIG     H1 5222   1.827   0.368   7.531 -1.0819 -0.9097  0.6553
  349LIG     H2 5223   1.723   0.271   7.446 -0.9579 -0.6517  1.6041
  349LIG     H3 5224   1.843   0.197   7.546 -0.9177 -0.8845 -0.3158
  349LIG     CA 5225   1.926   0.281   7.382 -0.6412  0.0523  0.1066
  349LIG     HA 5226   2.012   0.289   7.447 -0.9767  1.0171  0.4363
  349LIG     CB 5227   1.930   0.151   7.292  0.3818 -0.4012 -0.0510
  349LIG    HB1 5228   1.858   0.154   7.207  0.6902 -2.7843 -0.4779
  349LIG    HB2 5229   1.924   0.057   7.350  0.6278 -0.5311 -0.2334
  349LIG     CG 5230   2.069   0.143   7.234 -0.4431  0.2847  0.9949
  349LIG    OD1 5231   2.072   0.133   7.106  0.0362  0.1974 -0.5466
  349LIG    OD2 5232   2.172   0.138   7.304 -0.5062  0.0088 -0.1660
  349LIG      C 5233   1.918   0.412   7.295  0.0848 -0.3237 -0.3325
  349LIG    OT1 5234   1.827   0.496   7.318  0.2386  0.7237 -0.3281
  349LIG    OT2 5235   2.011   0.440   7.217 -0.3888 -0.3516 -0.0544
  350LIG      N 5236   1.907   0.389   6.547 -0.7335 -0.0437 -0.4632
  350LIG     H1 5237   1.842   0.309   6.561  0.6979 -1.4061 -1.3662
  350LIG     H2 5238   1.949   0.368   6.455 -0.2649  1.1682 -0.5438
  350LIG     H3 5239   1.969   0.391   6.630 -0.2241 -1.5738 -0.7775
  350LIG     CA 5240   1.852   0.518   6.532  0.1524  0.2885  0.1015
  350LIG     HA 5241   1.782   0.523   6.450  0.5185  3.5744 -0.1247
  350LIG     CB 5242   1.784   0.550   6.672 -0.3792 -0.0194  0.7439
  350LIG    HB1 5243   1.864   0.579   6.743  0.5949  1.2208 -0.7813
  350LIG    HB2 5244   1.729   0.465   6.718  2.5662 -1.4905  1.7698
  350LIG     CG 5245   1.685   0.673   6.656  0.0035  0.6018 -0.2174
  350LIG    OD1 5246   1.706   0.770   6.731 -0.4146  0.5527  0.6678
  350LIG    OD2 5247   1.599   0.671   6.564 -0.1083 -0.0360  0.4618
  350LIG      C 5248   1.953   0.637   6.497  0.5494  0.2284  0.4125
  350LIG    OT1 5249   2.074   0.616   6.476 -0.1129  0.0681 -0.4707
  350LIG    OT2 5250   1.900   0.748   6.476 -0.1598 -0.0726 -0.3970
  351LIG      N 5251   9.756   0.311   4.093 -0.0043 -0.0792  0.7317
  351LIG     H1 5252   9.762   0.411   4.067 -1.9527 -0.0307  0.3544
  351LIG     H2 5253   9.771   0.307   4.196  0.6466  2.4455  0.7913
  351LIG     H3 5254   9.837   0.258   4.055  0.2559 -0.0401  1.2205
  351LIG     CA 5255   9.634   0.256   4.030  0.7249 -0.3507 -0.0544
  351LIG     HA 5256   9.564   0.333   4.002 -0.2351 -0.9434  0.6569
  351LIG     CB 5257   9.698   0.181   3.914 -0.4202 -0.2524  0.5386
  351LIG    HB1 5258   9.731   0.079   3.944  0.0062 -0.2781 -0.0068
  351LIG    HB2 5259   9.775   0.243   3.863 -3.6431  1.1181 -3.2113
  351LIG     CG 5260   9.597   0.152   3.802 -0.1370 -0.1952 -0.3966
  351LIG    OD1 5261   9.604   0.046   3.738  0.1490  0.4273  0.2993
  351LIG    OD2 5262   9.509   0.236   3.787  0.3665 -1.4224 -0.2942
  351LIG      C 5263   9.559   0.164   4.126 -0.3673  0.2429  0.5347
  351LIG    OT1 5264   9.599   0.140   4.247 -0.1357 -0.5168 -0.1226
  351LIG    OT2 5265   9.455   0.109   4.083 -0.0319 -0.3289  0.5266
  352LIG      N 5266   2.053   2.123   8.964 -0.0085  0.4424  1.0515
  352LIG     H1 5267   2.041   2.119   8.861  1.1909 -0.4351  0.9362
  352LIG     H2 5268   2.147   2.097   9.000 -0.5986  0.0767  2.4068
  352LIG     H3 5269   1.981   2.060   9.005  0.5951  0.5880  2.3915
  352LIG     CA 5270   2.043   2.270   9.004 -0.0257  0.1843 -0.2878
  352LIG     HA 5271   1.953   2.316   8.966  0.5982  0.7965 -1.0423
  352LIG     CB 5272   2.048   2.275   9.157  0.2783  0.6332 -0.1642
  352LIG    HB1 5273   2.148   2.270   9.205 -0.9148  1.7341  2.6286
  352LIG    HB2 5274   1.993   2.186   9.195 -0.1743  0.7127 -0.6168
  352LIG     CG 5275   1.982   2.399   9.211  0.1160  0.2412 -0.0335
  352LIG    OD1 5276   2.055   2.466   9.291  0.4005 -0.1592 -0.6290
  352LIG    OD2 5277   1.864   2.419   9.181  0.2877 -0.0652  0.0971
  352LIG      C 5278   2.157   2.356   8.936 -0.4070 -0.6544  0.0576
  352LIG    OT1 5279   2.238   2.298   8.865  0.5387 -0.0543 -0.4585
  352LIG    OT2 5280   2.159   2.481   8.953  0.0695 -0.5304  0.3260
  353LIG      N 5281   8.185   8.238   6.531  0.5621 -0.2660  0.3174
  353LIG     H1 5282   8.149   8.335   6.540  1.3358  0.2195 -1.4064
  353LIG     H2 5283   8.278   8.246   6.485  0.3783  0.0702  0.0028
  353LIG     H3 5284   8.120   8.176   6.479 -2.6689  1.9060  1.4847
  353LIG     CA 5285   8.218   8.191   6.671  0.0930 -0.0183  1.0730
  353LIG     HA 5286   8.118   8.170   6.706 -0.4060 -0.2950 -0.4122
  353LIG     CB 5287   8.311   8.062   6.659 -0.2684 -0.3049  0.1337
  353LIG    HB1 5288   8.417   8.091   6.640 -0.3154 -1.6115 -2.5724
  353LIG    HB2 5289   8.285   7.997   6.572  0.9642  1.2103 -1.4355
  353LIG     CG 5290   8.298   7.982   6.782 -0.3282  0.1505  0.3767
  353LIG    OD1 5291   8.387   7.992   6.869  0.5432 -0.2595  0.2790
  353LIG    OD2 5292   8.196   7.915   6.796 -0.3822 -0.7230 -0.1028
  353LIG      C 5293   8.296   8.292   6.763 -0.4335 -0.0641 -0.0447
  353LIG    OT1 5294   8.337   8.398   6.718 -0.5947 -0.5085  0.5842
  353LIG    OT2 5295   8.287   8.268   6.887  0.0173 -0.3651  0.1593
  354LIG      N 5296   1.788   3.662   0.530 -0.0408  0.5324 -0.3268
  354LIG     H1 5297   1.694   3.685   0.491 -0.6914  0.2994  1.0692
  354LIG     H2 5298   1.806   3.736   0.601 -2.1835  1.0148 -0.2132
  354LIG     H3 5299   1.859   3.666   0.454 -0.3981 -2.5313 -0.9542
  354LIG     CA 5300   1.794   3.522   0.588  0.5892  0.0726 -0.5713
  354LIG     HA 5301   1.895   3.502   0.621  1.3251  0.6610 -2.3179
  354LIG     CB 5302   1.697   3.531   0.713  0.1113 -0.0850  0.1799
  354LIG    HB1 5303   1.598   3.549   0.666  0.6108  1.6061 -0.2865
  354LIG    HB2 5304   1.733   3.610   0.783  1.0691 -0.6003  0.2822
  354LIG     CG 5305   1.692   3.405   0.786 -0.2826  1.1511 -0.4619
  354LIG    OD1 5306   1.579   3.350   0.800 -0.0825 -0.4857  0.0723
  354LIG    OD2 5307   1.794   3.351   0.827 -0.6214  0.0287 -0.0658
  354LIG      C 5308   1.752   3.412   0.481 -0.3417  0.3368  0.3090
  354LIG    OT1 5309   1.714   3.460   0.371  0.4766  0.5465 -0.9923
  354LIG    OT2 5310   1.758   3.285   0.500 -0.1925 -0.6181 -0.0938
  355LIG      N 5311   8.869   3.608   9.734  0.0248 -1.2688 -1.0262
  355LIG     H1 5312   8.947   3.661   9.778 -0.1322 -1.0482 -1.0166
  355LIG     H2 5313   8.826   3.667   9.660 -1.6060 -1.2049 -0.0763
  355LIG     H3 5314   8.793   3.581   9.800 -0.0917  1.3279  0.0222
  355LIG     CA 5315   8.931   3.472   9.699 -0.3473 -0.4623  0.0487
  355LIG     HA 5316   9.013   3.490   9.631 -1.0741 -0.7145 -0.9099
  355LIG     CB 5317   8.959   3.413   9.829  0.2402 -0.1445 -0.4493
  355LIG    HB1 5318   8.862   3.381   9.872 -0.6549  0.9257 -1.5998
  355LIG    HB2 5319   8.998   3.486   9.903 -0.7297  0.3154 -0.3792
  355LIG     CG 5320   9.053   3.296   9.834  1.2010  0.1153  0.4437
  355LIG    OD1 5321   9.017   3.198   9.897 -0.1248  0.1877  0.4157
  355LIG    OD2 5322   9.164   3.304   9.779  0.0249  0.6628 -0.4954
  355LIG      C 5323   8.847   3.376   9.609  0.0358 -0.2117  0.9310
  355LIG    OT1 5324   8.737   3.421   9.559  0.0653 -0.6253 -0.0542
  355LIG    OT2 5325   8.892   3.266   9.575  0.3516 -0.1274  0.2671
  356LIG      N 5326   9.795   4.155   5.804 -0.0602  0.0754 -0.1988
  356LIG     H1 5327   9.823   4.252   5.779 -1.2931 -0.0538 -2.3440
  356LIG     H2 5328   9.886   4.113   5.834  0.0298  0.3773 -0.0512
  356LIG     H3 5329   9.772   4.094   5.722  2.5819 -2.2846  0.6304
  356LIG     CA 5330   9.693   4.150   5.916  0.5105  0.7069  0.0747
  356LIG     HA 5331   9.658   4.049   5.932 -0.1809  0.8511 -0.4737
  356LIG     CB 5332   9.770   4.204   6.046 -0.0661  0.0907 -0.3822
  356LIG    HB1 5333   9.769   4.315   6.041  0.4870  0.0565 -1.4707
  356LIG    HB2 5334   9.875   4.168   6.051  0.0768  0.2188 -1.9848
  356LIG     CG 5335   9.708   4.144   6.172  0.2739 -0.2856 -0.4236
  356LIG    OD1 5336   9.734   4.195   6.280 -1.0210  0.1538  0.0225
  356LIG    OD2 5337   9.631   4.042   6.168 -0.5669 -0.2795 -0.3529
  356LIG      C 5338   9.572   4.241   5.883 -0.1091 -0.1886  0.1443
  356LIG    OT1 5339   9.560   4.307   5.776 -0.2499  0.3095 -0.1237
  356LIG    OT2 5340   9.479   4.256   5.965 -0.4677  0.1956 -0.8703
  357LIG      N 5341   8.047   0.149   8.732  0.6413  0.7474 -0.6333
  357LIG     H1 5342   7.970   0.111   8.790  1.0008 -2.3097 -1.9499
  357LIG     H2 5343   8.077   0.064   8.681 -0.8098 -0.3763  0.3186
  357LIG     H3 5344   8.136   0.179   8.778  0.8927  0.3100 -0.8363
  357LIG     CA 5345   7.983   0.260   8.655 -0.2969 -0.2675  0.6448
  357LIG     HA 5346   7.958   0.345   8.717  1.0823  0.1562  0.6540
  357LIG     CB 5347   8.093   0.296   8.551 -0.0542 -0.3392  0.8801
  357LIG    HB1 5348   8.088   0.225   8.466 -0.3276 -0.7679  1.2499
  357LIG    HB2 5349   8.195   0.294   8.595 -0.1946 -1.8565  1.2079
  357LIG     CG 5350   8.074   0.439   8.497  0.5256  0.0630 -1.2879
  357LIG    OD1 5351   8.092   0.472   8.379  0.3541 -0.2770  0.5608
  357LIG    OD2 5352   8.044   0.526   8.587  0.4490  0.0898  0.5555
  357LIG      C 5353   7.855   0.218   8.588 -0.2412 -1.1108  0.3065
  357LIG    OT1 5354   7.818   0.104   8.593 -0.3549 -0.1028 -0.2816
  357LIG    OT2 5355   7.782   0.313   8.535  0.4997  0.2644  0.1589
  358LIG      N 5356   0.995   7.206   5.354 -0.6506  0.0246  0.1431
  358LIG     H1 5357   1.028   7.183   5.258 -0.3191  1.1294 -0.0204
  358LIG     H2 5358   1.076   7.243   5.408 -0.1310 -0.9803  0.0852
  358LIG     H3 5359   0.961   7.121   5.403 -1.2850 -0.1894 -0.6690
  358LIG     CA 5360   0.895   7.320   5.334 -0.5585  0.1979  0.2218
  358LIG     HA 5361   0.820   7.269   5.275  1.1496 -0.8779 -1.1001
  358LIG     CB 5362   0.851   7.358   5.473 -0.5985 -0.5326  0.0076
  358LIG    HB1 5363   0.915   7.440   5.512 -0.9642 -0.8411  1.3206
  358LIG    HB2 5364   0.837   7.268   5.537 -0.1735  0.3419  1.3834
  358LIG     CG 5365   0.707   7.408   5.466 -0.0383  0.1180 -0.2062
  358LIG    OD1 5366   0.672   7.490   5.552  0.1863  0.2111  0.2047
  358LIG    OD2 5367   0.628   7.347   5.386  0.0580 -0.5684 -0.0679
  358LIG      C 5368   0.957   7.439   5.261  0.7392 -0.8573 -0.1632
  358LIG    OT1 5369   1.075   7.439   5.229  0.4455 -0.3643 -0.4095
  358LIG    OT2 5370   0.873   7.529   5.231  0.1425  0.5463 -0.3126
  359LIG      N 5371   6.405   5.089   0.408  0.3695  0.1201 -0.5940
  359LIG     H1 5372   6.504   5.071   0.382  0.7072 -0.5144  1.0154
  359LIG     H2 5373   6.381   5.071   0.508  1.8847 -0.5845 -0.3329
  359LIG     H3 5374   6.341   5.022   0.362 -0.2371  0.4390 -0.2226
  359LIG     CA 5375   6.365   5.226   0.375 -0.7769 -0.5838  0.2658
  359LIG     HA 5376   6.264   5.237   0.413  0.1449  0.5805  2.5910
  359LIG     CB 5377   6.456   5.323   0.450  0.4736 -0.6809 -0.0661
  359LIG    HB1 5378   6.558   5.348   0.414  2.3689 -2.9678  3.2137
  359LIG    HB2 5379   6.458   5.287   0.555  0.7601 -1.5157 -0.3487
  359LIG     CG 5380   6.384   5.465   0.442  0.4168  0.2665 -0.2376
  359LIG    OD1 5381   6.445   5.570   0.414 -0.1666  0.5633 -0.2270
  359LIG    OD2 5382   6.265   5.468   0.480  0.3087 -0.0583  0.0208
  359LIG      C 5383   6.373   5.244   0.221  0.6005  0.1836 -0.7979
  359LIG    OT1 5384   6.436   5.167   0.147 -0.1693 -0.5290  0.3370
  359LIG    OT2 5385   6.311   5.339   0.174  0.3183 -0.5028 -0.3533
  360LIG      N 5386   2.451   9.159   8.445 -0.0620 -0.2103  0.1680
  360LIG     H1 5387   2.363   9.154   8.501 -0.8965  2.6481 -0.7625
  360LIG     H2 5388   2.503   9.246   8.468 -2.1760  1.5567 -1.3473
  360LIG     H3 5389   2.427   9.154   8.344  2.4920  0.6082 -0.5345
  360LIG     CA 5390   2.533   9.048   8.488 -0.0863  0.4978  0.5273
  360LIG     HA 5391   2.632   9.067   8.447  0.8190 -2.5586  1.0439
  360LIG     CB 5392   2.532   9.051   8.647 -0.4507 -0.1654  1.0476
  360LIG    HB1 5393   2.442   8.997   8.683 -0.3930 -1.1601 -0.2287
  360LIG    HB2 5394   2.547   9.152   8.691  1.7050  0.3261 -0.6290
  360LIG     CG 5395   2.646   8.965   8.703 -0.7549  0.1962 -0.0985
  360LIG    OD1 5396   2.616   8.860   8.772  0.4331 -0.0895  0.3592
  360LIG    OD2 5397   2.765   9.004   8.678  0.6602  0.0149 -0.0552
  360LIG      C 5398   2.497   8.908   8.424  0.3705 -0.1732 -0.3428
  360LIG    OT1 5399   2.391   8.892   8.354 -0.1182 -1.0014 -0.4957
  360LIG    OT2 5400   2.580   8.815   8.434  0.4659  0.0355  0.7385
  361LIG      N 5401   4.109   6.985   9.667 -0.0891  0.1623  0.3111
  361LIG     H1 5402   4.101   7.082   9.704  3.0968  0.6203  0.0318
  361LIG     H2 5403   4.166   6.935   9.738  1.5785  1.0116 -0.3936
  361LIG     H3 5404   4.156   7.002   9.576 -1.7296  2.4554 -0.1937
  361LIG     CA 5405   3.980   6.922   9.668 -0.1930 -0.0088 -0.1212
  361LIG     HA 5406   4.002   6.828   9.620 -0.5933 -0.8459  1.2642
  361LIG     CB 5407   3.933   6.910   9.822 -0.8218 -0.4167  0.3020
  361LIG    HB1 5408   3.886   7.005   9.855 -1.6557 -0.7681  0.1608
  361LIG    HB2 5409   4.018   6.887   9.890  0.2649  0.8167 -0.6015
  361LIG     CG 5410   3.851   6.788   9.843  0.1772  0.0526  0.3422
  361LIG    OD1 5411   3.753   6.786   9.923  0.0101 -0.2530 -0.2907
  361LIG    OD2 5412   3.884   6.688   9.785 -0.3567  0.4317 -0.1501
  361LIG      C 5413   3.864   6.984   9.580  0.8172 -0.0719 -0.5292
  361LIG    OT1 5414   3.875   7.110   9.553 -0.3237  0.4361  0.8112
  361LIG    OT2 5415   3.768   6.912   9.547 -0.0504  0.0135  0.3559
  362LIG      N 5416   4.899   7.860   3.328 -0.5339  0.0277 -0.2175
  362LIG     H1 5417   4.870   7.871   3.427 -3.3280  0.4002 -1.0071
  362LIG     H2 5418   4.815   7.847   3.268 -0.9891  1.2339  0.1428
  362LIG     H3 5419   4.968   7.783   3.315  0.8918  1.2530 -0.2011
  362LIG     CA 5420   4.965   7.985   3.278  0.4316  0.3878  0.0262
  362LIG     HA 5421   5.067   7.987   3.314  0.8798 -0.3975 -1.1500
  362LIG     CB 5422   4.977   7.973   3.122 -0.0059  0.1317 -1.2874
  362LIG    HB1 5423   4.881   8.008   3.077 -0.2583 -0.1164 -0.9537
  362LIG    HB2 5424   4.991   7.872   3.078 -1.2344  0.0885 -1.6282
  362LIG     CG 5425   5.099   8.051   3.069 -0.0102  0.8066 -0.2770
  362LIG    OD1 5426   5.084   8.126   2.965  0.2473 -0.0177  0.2180
  362LIG    OD2 5427   5.210   8.030   3.117 -0.3539 -0.0103  0.0165
  362LIG      C 5428   4.894   8.119   3.307 -0.0764  0.1392  0.1517
  362LIG    OT1 5429   4.774   8.125   3.354 -0.0477  0.1379 -0.2805
  362LIG    OT2 5430   4.958   8.227   3.285  0.5988  0.1486 -0.4087
  363LIG      N 5431   1.875   0.807   0.539  0.6721 -0.2193  0.4245
  363LIG     H1 5432   1.931   0.822   0.626 -0.6681  1.0736  1.1140
  363LIG     H2 5433   1.931   0.839   0.458 -0.9321 -0.6584 -0.9089
  363LIG     H3 5434   1.786   0.860   0.539  1.6380  1.4772  0.6163
  363LIG     CA 5435   1.836   0.662   0.535 -0.1995  0.5588 -0.0139
  363LIG     HA 5436   1.811   0.638   0.433  1.6638  2.5748 -1.0262
  363LIG     CB 5437   1.967   0.581   0.580  0.4661  0.1133 -0.1601
  363LIG    HB1 5438   1.978   0.582   0.691 -1.4117  1.3353  0.0612
  363LIG    HB2 5439   2.060   0.627   0.541  1.9653 -1.5722  1.2319
  363LIG     CG 5440   1.956   0.439   0.524 -0.0899  0.3924  0.9407
  363LIG    OD1 5441   1.914   0.351   0.609  0.1093  0.1595  0.1693
  363LIG    OD2 5442   1.979   0.422   0.402 -0.0985 -0.3193 -0.1849
  363LIG      C 5443   1.710   0.632   0.617  0.8405  1.4079 -0.6920
  363LIG    OT1 5444   1.652   0.724   0.687  1.1138 -0.9906  0.6722
  363LIG    OT2 5445   1.654   0.521   0.600  0.2181  0.0035 -0.0148
  364LIG      N 5446   7.094   1.206   8.468  0.3901 -0.7143 -0.3655
  364LIG     H1 5447   7.076   1.150   8.553  1.6426 -1.2883 -0.4611
  364LIG     H2 5448   6.996   1.215   8.435  0.5981  1.1048 -0.5947
  364LIG     H3 5449   7.150   1.160   8.394 -2.6195 -1.8508 -2.1252
  364LIG     CA 5450   7.153   1.345   8.497  0.5207 -0.4855 -0.1877
  364LIG     HA 5451   7.260   1.344   8.483  0.4533 -0.6733 -0.7225
  364LIG     CB 5452   7.089   1.448   8.400 -0.4887  0.3034  0.1053
  364LIG    HB1 5453   6.991   1.480   8.440 -1.5343  0.4524 -2.3772
  364LIG    HB2 5454   7.076   1.415   8.295 -0.8099  1.7842 -0.3433
  364LIG     CG 5455   7.175   1.576   8.388  0.1609  0.1915  0.2172
  364LIG    OD1 5456   7.126   1.681   8.436  0.0785  0.5566 -0.3619
  364LIG    OD2 5457   7.288   1.569   8.338 -0.5109 -0.0837  0.7834
  364LIG      C 5458   7.133   1.386   8.649  0.8473  1.0453  0.4311
  364LIG    OT1 5459   7.062   1.317   8.730 -0.4610  0.0611 -0.2386
  364LIG    OT2 5460   7.183   1.490   8.688  0.3961  0.2483 -0.0000
  365LIG      N 5461   1.724   4.450   5.357  0.9325 -0.4745  0.3793
  365LIG     H1 5462   1.720   4.523   5.431 -0.9702  1.9554 -1.9357
  365LIG     H2 5463   1.625   4.433   5.332  0.5307  2.8835 -0.8777
  365LIG     H3 5464   1.775   4.368   5.395  1.6283 -1.5672 -2.6240
  365LIG     CA 5465   1.786   4.518   5.235  0.1985  0.2731 -0.3256
  365LIG     HA 5466   1.774   4.447   5.154 -1.4187 -1.1465  1.0877
  365LIG     CB 5467   1.700   4.645   5.205 -0.7048  0.3876  0.2728
  365LIG    HB1 5468   1.729   4.731   5.270 -1.7502 -0.4878  1.9639
  365LIG    HB2 5469   1.592   4.626   5.221 -1.1269  1.0769 -1.4917
  365LIG     CG 5470   1.727   4.690   5.065  0.3556  0.2920  0.0998
  365LIG    OD1 5471   1.732   4.812   5.043  0.6157 -1.0434 -0.2634
  365LIG    OD2 5472   1.752   4.605   4.977  0.0564  0.3230 -0.1158
  365LIG      C 5473   1.942   4.557   5.261  0.1404  0.3874 -0.0082
  365LIG    OT1 5474   1.990   4.525   5.369  0.1186  0.0234 -0.4459
  365LIG    OT2 5475   2.003   4.605   5.165  0.2832 -0.1831  0.5192
  366LIG      N 5476   5.866   9.727   5.011  0.3448 -0.0344  0.1896
  366LIG     H1 5477   5.954   9.733   4.955  0.0915  0.9794 -0.1162
  366LIG     H2 5478   5.793   9.797   4.985  0.3182 -0.0106  0.3256
  366LIG     H3 5479   5.887   9.731   5.112 -0.9234 -0.0398  0.4704
  366LIG     CA 5480   5.806   9.593   4.977 -0.2078 -0.7794 -0.3793
  366LIG     HA 5481   5.712   9.588   5.031 -0.8761  0.9907 -1.2937
  366LIG     CB 5482   5.791   9.601   4.822  0.4036 -0.6932  0.1520
  366LIG    HB1 5483   5.890   9.590   4.771  0.4973  0.3361  0.1043
  366LIG    HB2 5484   5.751   9.694   4.777  3.2001  0.0116 -1.0823
  366LIG     CG 5485   5.714   9.481   4.777 -0.3998  0.8649  0.6125
  366LIG    OD1 5486   5.771   9.407   4.689 -0.1418 -0.3768  0.1637
  366LIG    OD2 5487   5.604   9.457   4.823 -0.1257  0.2932  0.4420
  366LIG      C 5488   5.894   9.474   5.022  0.5532 -0.3799  0.5205
  366LIG    OT1 5489   5.983   9.495   5.104  0.3195 -0.0751  0.1633
  366LIG    OT2 5490   5.866   9.355   4.990  0.2650  0.1820  0.2185
  367LIG      N 5491   9.783   3.023   5.560 -0.1759  0.4125 -0.0256
  367LIG     H1 5492   9.730   2.980   5.638  0.0379  1.8925  0.9765
  367LIG     H2 5493   9.879   3.044   5.594  1.0792 -0.2222 -2.8795
  367LIG     H3 5494   9.747   3.118   5.538  0.0520 -0.1239 -3.3350
  367LIG     CA 5495   9.780   2.938   5.434 -0.0435 -0.1863 -0.5563
  367LIG     HA 5496   9.689   2.965   5.381 -1.8218 -2.2797  1.2077
  367LIG     CB 5497   9.905   2.978   5.353  0.1095 -0.0573 -0.0302
  367LIG    HB1 5498   9.997   2.943   5.406 -0.8783 -0.7344  1.2808
  367LIG    HB2 5499   9.903   3.088   5.340  0.3065  0.3030  2.3708
  367LIG     CG 5500   9.913   2.913   5.220  0.1811  0.3827  0.5629
  367LIG    OD1 5501  10.025   2.860   5.174  0.0440 -0.0592 -0.3784
  367LIG    OD2 5502   9.810   2.918   5.146  0.0397  0.3556  0.1911
  367LIG      C 5503   9.758   2.789   5.474 -0.4607  0.1696 -0.1016
  367LIG    OT1 5504   9.725   2.769   5.594  0.1065  0.6346  0.3193
  367LIG    OT2 5505   9.762   2.698   5.392  0.0918 -0.5225  0.0468
  368LIG      N 5506   2.405   9.341   0.092 -0.3502  0.2711 -0.0062
  368LIG     H1 5507   2.337   9.306   0.021  1.4635  1.2967 -2.3913
  368LIG     H2 5508   2.496   9.354   0.043  0.0470  0.6701  0.8400
  368LIG     H3 5509   2.424   9.269   0.165 -1.7590  0.9581  1.0890
  368LIG     CA 5510   2.355   9.465   0.139  0.1769 -0.3264 -1.3659
  368LIG     HA 5511   2.258   9.486   0.095 -0.5284  0.1136  0.3094
  368LIG     CB 5512   2.330   9.444   0.290 -0.0090  0.4725 -0.1505
  368LIG    HB1 5513   2.417   9.455   0.358  0.1046  0.2183 -0.2534
  368LIG    HB2 5514   2.291   9.342   0.308 -2.0678  0.5075 -3.5333
  368LIG     CG 5515   2.215   9.524   0.344 -0.4338 -0.5665  0.9873
  368LIG    OD1 5516   2.226   9.579   0.458  0.1299 -0.2593  0.8802
  368LIG    OD2 5517   2.112   9.522   0.278 -0.1399 -0.0735 -0.0110
  368LIG      C 5518   2.446   9.591   0.124 -0.2290  0.2221  0.8364
  368LIG    OT1 5519   2.548   9.575   0.049  0.3102  0.0498 -0.1654
  368LIG    OT2 5520   2.422   9.709   0.167  0.7890 -0.4940  0.0072
  369LIG      N 5521   4.172   1.195   0.639  0.7587  0.1772 -0.4149
  369LIG     H1 5522   4.166   1.184   0.743 -1.2586  1.3578 -0.3421
  369LIG     H2 5523   4.121   1.282   0.614 -1.4502 -1.2054 -0.9760
  369LIG     H3 5524   4.125   1.111   0.602  1.9682 -0.6649 -0.0938
  369LIG     CA 5525   4.316   1.196   0.594  0.0038  0.3345 -0.7622
  369LIG     HA 5526   4.364   1.101   0.615  0.3162  0.7499  0.4970
  369LIG     CB 5527   4.312   1.205   0.443 -0.5502  0.2944  0.6137
  369LIG    HB1 5528   4.279   1.305   0.409  0.0422 -0.7900 -3.7312
  369LIG    HB2 5529   4.245   1.127   0.401  1.2025 -1.4366  0.8827
  369LIG     CG 5530   4.444   1.167   0.369 -0.1705  0.1239 -0.0383
  369LIG    OD1 5531   4.483   1.232   0.273  0.4563 -0.2393  0.0504
  369LIG    OD2 5532   4.509   1.062   0.408  0.1021 -0.4100 -0.2515
  369LIG      C 5533   4.396   1.314   0.657 -0.2081  0.0249 -0.0320
  369LIG    OT1 5534   4.336   1.404   0.720  0.4711 -0.1095 -0.0214
  369LIG    OT2 5535   4.519   1.327   0.632  0.7594  0.0202 -0.2761
  370LIG      N 5536   7.999   6.917   6.788  0.3168 -0.5951  0.3163
  370LIG     H1 5537   8.042   7.002   6.746 -0.3430 -0.0709  0.6913
  370LIG     H2 5538   8.008   6.838   6.720 -2.5310 -0.7867  0.0358
  370LIG     H3 5539   7.899   6.941   6.800 -0.0937 -2.2138  0.4668
  370LIG     CA 5540   8.062   6.887   6.920  0.1256 -0.2942  0.5091
  370LIG     HA 5541   8.166   6.885   6.892  0.1362  0.0842  0.5215
  370LIG     CB 5542   8.021   6.996   7.019  0.2244  0.3455 -0.1084
  370LIG    HB1 5543   7.915   7.007   7.051  0.5065  0.9905  0.6305
  370LIG    HB2 5544   8.050   7.094   6.975  0.7134  1.1193  1.8274
  370LIG     CG 5545   8.109   6.996   7.148 -0.9969  0.0237  0.3979
  370LIG    OD1 5546   8.056   7.019   7.255 -0.3722  0.2846  0.3154
  370LIG    OD2 5547   8.234   6.977   7.126  0.0964 -0.0438 -0.4089
  370LIG      C 5548   8.015   6.746   6.974  0.2502  0.0878  0.3023
  370LIG    OT1 5549   7.909   6.696   6.934 -0.3780  0.3551  0.1528
  370LIG    OT2 5550   8.079   6.693   7.066 -0.4867  0.0613  0.5352
  371LIG      N 5551   8.743   2.027   6.100  0.4908  0.5649  0.2159
  371LIG     H1 5552   8.781   1.930   6.093 -1.5881 -0.3413  0.6771
  371LIG     H2 5553   8.804   2.101   6.060 -2.9610  3.0630 -0.9122
  371LIG     H3 5554   8.733   2.059   6.198 -0.5489 -1.0773  0.6839
  371LIG     CA 5555   8.600   2.039   6.039  0.0894 -0.1572  0.0396
  371LIG     HA 5556   8.558   2.132   6.073 -0.8723  0.7768 -3.3727
  371LIG     CB 5557   8.602   2.023   5.885 -0.5645 -0.1486  0.4319
  371LIG    HB1 5558   8.639   1.923   5.854  1.2657  0.8525 -0.7649
  371LIG    HB2 5559   8.680   2.083   5.834  1.3686 -3.3387 -0.6721
  371LIG     CG 5560   8.478   2.065   5.826  0.3131  0.3057 -0.6862
  371LIG    OD1 5561   8.415   1.988   5.749 -0.0998  0.2258 -0.3486
  371LIG    OD2 5562   8.427   2.181   5.841 -0.2916 -0.3456 -0.4068
  371LIG      C 5563   8.500   1.942   6.095 -0.6813  0.7886 -0.4115
  371LIG    OT1 5564   8.539   1.834   6.149  0.3158  0.3191  0.1407
  371LIG    OT2 5565   8.377   1.971   6.082  0.5343  0.6441  0.1287
  372LIG      N 5566   1.217   3.378   9.297 -0.1399  0.2264 -0.2599
  372LIG     H1 5567   1.236   3.478   9.274 -1.1057  0.2955 -0.7929
  372LIG     H2 5568   1.135   3.348   9.241  1.6309 -1.7762 -1.9265
  372LIG     H3 5569   1.208   3.366   9.400  3.5381  1.3678  0.3189
  372LIG     CA 5570   1.330   3.294   9.245 -0.1951  0.2915 -0.0502
  372LIG     HA 5571   1.346   3.328   9.144 -0.7005  3.0813  0.7466
  372LIG     CB 5572   1.444   3.319   9.343 -0.0773 -0.4944  0.9293
  372LIG    HB1 5573   1.455   3.237   9.418 -0.2118 -1.0064  0.3924
  372LIG    HB2 5574   1.433   3.417   9.394  0.4464  0.9043 -1.4996
  372LIG     CG 5575   1.582   3.318   9.280 -0.7535 -0.2544 -0.6823
  372LIG    OD1 5576   1.685   3.299   9.350  0.3129 -0.2446 -0.8947
  372LIG    OD2 5577   1.598   3.344   9.158  0.8728  0.4467 -0.0374
  372LIG      C 5578   1.305   3.141   9.232  0.3035  0.2345 -0.8400
  372LIG    OT1 5579   1.211   3.076   9.290  0.1657 -0.3225  0.1355
  372LIG    OT2 5580   1.398   3.083   9.167 -0.6184 -0.0610  0.4332
  373LIG      N 5581   0.142   7.177   2.247  0.2749 -0.3738  0.3001
  373LIG     H1 5582   0.143   7.103   2.174  1.0675  0.3233 -0.4186
  373LIG     H2 5583   0.087   7.260   2.217 -1.1084 -0.6472  1.9093
  373LIG     H3 5584   0.243   7.200   2.254 -0.1264  1.5581  0.2246
  373LIG     CA 5585   0.088   7.120   2.378 -0.6515 -0.1209  0.2419
  373LIG     HA 5586  -0.015   7.094   2.355 -0.0238 -1.8276 -0.8099
  373LIG     CB 5587   0.169   6.986   2.402 -0.4701  0.6065  0.0478
  373LIG    HB1 5588   0.270   6.988   2.448  0.5999 -2.0160 -1.9322
  373LIG    HB2 5589   0.186   6.937   2.303  2.0347 -1.6572  1.4660
  373LIG     CG 5590   0.080   6.886   2.474  0.3391 -0.1495  0.4235
  373LIG    OD1 5591   0.147   6.795   2.537  0.1541  0.0348 -0.3743
  373LIG    OD2 5592  -0.049   6.888   2.467 -0.8460 -0.6952  0.7142
  373LIG      C 5593   0.115   7.209   2.501  0.0070 -0.2106 -0.2498
  373LIG    OT1 5594   0.173   7.318   2.483  0.0615 -0.4916 -0.5329
  373LIG    OT2 5595   0.058   7.181   2.608 -0.3705 -0.0011  0.0420
  374LIG      N 5596   2.174   8.454   2.511 -0.0593  0.0940  0.1332
  374LIG     H1 5597   2.187   8.389   2.591 -0.4248  0.5279  0.5496
  374LIG     H2 5598   2.103   8.528   2.528 -0.1353  0.4423 -1.5415
  374LIG     H3 5599   2.143   8.409   2.422 -1.6218 -0.2451  0.8151
  374LIG     CA 5600   2.301   8.525   2.489  0.3928 -0.6097 -0.1281
  374LIG     HA 5601   2.375   8.452   2.458 -1.3885 -3.0696  1.1331
  374LIG     CB 5602   2.274   8.624   2.376 -0.6227 -0.2083 -0.1106
  374LIG    HB1 5603   2.231   8.720   2.414 -0.3787 -1.0786  2.5231
  374LIG    HB2 5604   2.196   8.582   2.309  0.8558 -1.2263 -1.2451
  374LIG     CG 5605   2.392   8.652   2.289 -0.2478  0.1251 -0.1166
  374LIG    OD1 5606   2.396   8.758   2.221 -0.7012 -0.3384  0.0990
  374LIG    OD2 5607   2.487   8.568   2.277 -0.1819 -0.5460 -0.0825
  374LIG      C 5608   2.343   8.606   2.614  0.1455  0.0341 -0.1184
  374LIG    OT1 5609   2.273   8.621   2.714  0.2452  0.9703 -0.9696
  374LIG    OT2 5610   2.454   8.658   2.607 -0.1232 -0.3808  0.1097
  375LIG      N 5611   2.874   6.633   9.573 -0.0817 -0.0848 -0.3661
  375LIG     H1 5612   2.894   6.640   9.472 -1.5948 -1.7508 -0.8381
  375LIG     H2 5613   2.798   6.563   9.584  2.1617 -2.3786  2.2456
  375LIG     H3 5614   2.841   6.729   9.596  0.0424  0.0627 -0.8077
  375LIG     CA 5615   2.992   6.588   9.651  0.7701  0.0529  0.8847
  375LIG     HA 5616   2.969   6.591   9.756 -3.7859 -1.2737  0.1687
  375LIG     CB 5617   3.019   6.433   9.628  1.2025 -0.4665  0.4796
  375LIG    HB1 5618   3.035   6.406   9.521 -1.3254  0.2952 -0.1747
  375LIG    HB2 5619   2.919   6.393   9.655 -1.2527  4.0621 -0.8650
  375LIG     CG 5620   3.114   6.361   9.723 -0.4514  0.0192 -0.2707
  375LIG    OD1 5621   3.181   6.259   9.680  0.1371 -0.4357 -1.0912
  375LIG    OD2 5622   3.112   6.393   9.844  0.4863  0.3616 -0.1447
  375LIG      C 5623   3.121   6.673   9.619  0.2701 -0.1514 -0.4751
  375LIG    OT1 5624   3.131   6.769   9.544 -0.2755 -0.2038  0.0728
  375LIG    OT2 5625   3.222   6.642   9.690 -0.2159  0.3207  0.5272
  376LIG      N 5626   7.267   9.613   1.010 -0.8773  0.3569 -0.4536
  376LIG     H1 5627   7.235   9.703   1.051  2.1512  1.0276  0.7426
  376LIG     H2 5628   7.271   9.603   0.906  2.6054 -1.0809 -0.3321
  376LIG     H3 5629   7.194   9.543   1.036 -1.3635  0.7198 -0.8196
  376LIG     CA 5630   7.397   9.559   1.061  0.3065  0.7263 -0.2199
  376LIG     HA 5631   7.471   9.597   0.993 -0.3226  1.8027 -0.3308
  376LIG     CB 5632   7.413   9.615   1.204  0.1667 -0.0662  0.2171
  376LIG    HB1 5633   7.361   9.552   1.279 -3.3258  1.8428 -0.4067
  376LIG    HB2 5634   7.372   9.718   1.211  1.1840  0.5818 -2.3226
  376LIG     CG 5635   7.558   9.640   1.233  0.3162 -0.2214 -0.0100
  376LIG    OD1 5636   7.596   9.645   1.354 -0.1227  0.3518 -0.0006
  376LIG    OD2 5637   7.644   9.663   1.143  0.0914  0.0950 -0.6338
  376LIG      C 5638   7.405   9.403   1.068 -0.8766 -0.4063 -0.2851
  376LIG    OT1 5639   7.307   9.331   1.036 -0.4728  0.2219  0.2167
  376LIG    OT2 5640   7.509   9.352   1.111  0.5401 -0.5118  0.0375
  377LIG      N 5641   7.992   9.786   0.072  0.2217 -0.2378  0.1955
  377LIG     H1 5642   7.984   9.824   0.168 -3.0808  2.4837 -0.9147
  377LIG     H2 5643   7.950   9.860   0.011 -0.0923  1.2833  2.1405
  377LIG     H3 5644   7.943   9.694   0.071  0.0323 -0.2446  3.0508
  377LIG     CA 5645   8.133   9.773   0.032 -0.1643 -0.2817 -0.3075
  377LIG     HA 5646   8.187   9.693   0.080  0.5216  0.5045  0.2554
  377LIG     CB 5647   8.134   9.759  -0.123 -0.9968  0.3750 -0.5493
  377LIG    HB1 5648   8.096   9.848  -0.178 -3.3346 -0.2090  0.0455
  377LIG    HB2 5649   8.068   9.674  -0.153 -0.3227 -0.3403 -0.0547
  377LIG     CG 5650   8.278   9.744  -0.181  0.5263  0.0225 -0.5383
  377LIG    OD1 5651   8.313   9.817  -0.275 -0.2042 -0.3528 -0.1584
  377LIG    OD2 5652   8.350   9.651  -0.139  0.7101  0.1372 -0.1916
  377LIG      C 5653   8.198   9.903   0.079 -0.7107 -0.4990 -0.3644
  377LIG    OT1 5654   8.143  10.001   0.133  0.0420 -0.2093  0.5153
  377LIG    OT2 5655   8.326   9.911   0.067  1.1721 -0.2186 -0.2191
  378LIG      N 5656   2.325   4.081   6.298  0.5053  0.3688 -0.0072
  378LIG     H1 5657   2.225   4.112   6.297  0.0292 -0.9791  1.4570
  378LIG     H2 5658   2.355   4.083   6.198  0.4261  1.3023 -0.0173
  378LIG     H3 5659   2.329   3.984   6.336  1.5107 -0.7587 -2.7489
  378LIG     CA 5660   2.404   4.161   6.391  0.2241 -0.7868 -0.0028
  378LIG     HA 5661   2.408   4.258   6.344  0.6137 -1.8106 -2.2318
  378LIG     CB 5662   2.330   4.153   6.527  0.1979 -0.3801  0.0371
  378LIG    HB1 5663   2.359   4.063   6.586 -0.4925 -0.3752  0.4044
  378LIG    HB2 5664   2.219   4.142   6.525  0.1597 -0.2533  1.0416
  378LIG     CG 5665   2.354   4.273   6.610  0.0380  0.3469 -0.4151
  378LIG    OD1 5666   2.382   4.261   6.732 -0.5671  0.1867  0.6930
  378LIG    OD2 5667   2.333   4.381   6.554  0.3261 -0.0347  0.6204
  378LIG      C 5668   2.548   4.101   6.416  0.1339  0.9386 -0.1599
  378LIG    OT1 5669   2.574   3.987   6.372 -0.1731  0.0463  0.0922
  378LIG    OT2 5670   2.619   4.167   6.492  0.9384 -0.1523 -0.0332
  379LIG      N 5671   0.748   5.051   2.460  0.0140 -0.2785  0.2113
  379LIG     H1 5672   0.709   5.097   2.544  0.0699  0.5080 -0.1802
  379LIG     H2 5673   0.851   5.062   2.452 -0.3483  2.6539 -2.9516
  379LIG     H3 5674   0.706   5.118   2.392  1.0676  0.3567  0.1668
  379LIG     CA 5675   0.708   4.911   2.454 -0.2124 -0.1792  0.0270
  379LIG     HA 5676   0.752   4.863   2.368 -1.3562 -3.4407  1.1149
  379LIG     CB 5677   0.770   4.844   2.581 -0.6609  0.4504 -0.9357
  379LIG    HB1 5678   0.701   4.864   2.666  0.4695  0.0514  0.0979
  379LIG    HB2 5679   0.868   4.887   2.610  0.4231 -1.8120 -1.0463
  379LIG     CG 5680   0.780   4.694   2.573 -0.6178  0.0618 -0.3159
  379LIG    OD1 5681   0.678   4.625   2.579 -0.3778  0.4899 -0.3600
  379LIG    OD2 5682   0.898   4.644   2.583  0.4461 -0.5414 -0.0377
  379LIG      C 5683   0.555   4.893   2.430 -0.6173 -0.4233  0.8229
  379LIG    OT1 5684   0.477   4.995   2.438 -0.4531  0.1125 -0.0808
  379LIG    OT2 5685   0.512   4.773   2.413  0.2117  0.2334 -0.0453
  380LIG      N 5686   6.801   9.668   9.259  0.1682  0.4620  0.7169
  380LIG     H1 5687   6.875   9.596   9.274 -1.0328 -1.9358 -3.3664
  380LIG     H2 5688   6.834   9.748   9.317 -1.4272  0.9599  0.9908
  380LIG     H3 5689   6.722   9.620   9.306  0.6547 -2.6242 -1.3554
  380LIG     CA 5690   6.796   9.711   9.121 -0.5492  0.1456 -0.0066
  380LIG     HA 5691   6.778   9.619   9.069  0.9761 -0.3478  0.2716
  380LIG     CB 5692   6.691   9.826   9.116  0.4096  0.5741  0.4925
  380LIG    HB1 5693   6.731   9.907   9.180  1.1342  0.5031  0.1460
  380LIG    HB2 5694   6.597   9.796   9.166 -0.6508  1.5178 -0.8801
  380LIG     CG 5695   6.649   9.872   8.979 -0.7419 -0.2394 -0.4597
  380LIG    OD1 5696   6.650   9.996   8.958  0.4901 -0.1519  0.2346
  380LIG    OD2 5697   6.607   9.792   8.895 -0.2531 -0.0419  0.9841
  380LIG      C 5698   6.926   9.767   9.061 -0.9783  0.6206 -0.1521
  380LIG    OT1 5699   7.027   9.808   9.131  0.2912  0.1121 -0.7219
  380LIG    OT2 5700   6.918   9.775   8.938 -1.4365  0.2215 -0.3367
  381LIG      N 5701   4.808   1.377   5.936 -0.6152 -0.1428  0.2051
  381LIG     H1 5702   4.746   1.437   5.994  2.1570  2.1362  1.0235
  381LIG     H2 5703   4.770   1.281   5.922  0.8025 -0.3070 -3.4910
  381LIG     H3 5704   4.903   1.380   5.978 -0.6327  0.8699  0.1811
  381LIG     CA 5705   4.809   1.438   5.802 -0.6801 -0.3243  0.6650
  381LIG     HA 5706   4.850   1.537   5.805  0.1115 -0.5013 -1.8050
  381LIG     CB 5707   4.908   1.350   5.712  0.0574 -0.1020 -0.2648
  381LIG    HB1 5708   4.876   1.244   5.716  0.4635 -0.2043  2.2359
  381LIG    HB2 5709   5.006   1.367   5.762  0.1239 -1.2541  0.0214
  381LIG     CG 5710   4.923   1.407   5.578 -0.6751 -0.7693 -0.1149
  381LIG    OD1 5711   4.911   1.336   5.475  0.0347  0.3520 -0.6810
  381LIG    OD2 5712   4.958   1.529   5.567 -0.5932 -0.4510 -0.3056
  381LIG      C 5713   4.658   1.444   5.754 -0.0312  0.6890  0.0027
  381LIG    OT1 5714   4.571   1.376   5.817 -0.4487 -0.4053  0.4930
  381LIG    OT2 5715   4.618   1.513   5.659  0.1126  0.4544  0.7747
  382LIG      N 5716   0.302   6.696   0.303  0.5149 -0.1402 -0.0864
  382LIG     H1 5717   0.293   6.797   0.279  0.1721 -0.0911  0.2429
  382LIG     H2 5718   0.394   6.660   0.271  0.2884 -3.5738  2.5853
  382LIG     H3 5719   0.224   6.651   0.252 -0.1206  0.7116  0.1038
  382LIG     CA 5720   0.284   6.693   0.452  0.2877  0.1811 -0.1484
  382LIG     HA 5721   0.216   6.773   0.478 -0.3035  0.1616 -1.5575
  382LIG     CB 5722   0.218   6.555   0.483  0.4270  0.0126 -0.3276
  382LIG    HB1 5723   0.286   6.468   0.496 -1.0512 -0.7714  3.2255
  382LIG    HB2 5724   0.154   6.524   0.398  0.4931  1.4895 -0.9579
  382LIG     CG 5725   0.133   6.571   0.608  0.2657  0.6864 -0.2229
  382LIG    OD1 5726   0.149   6.487   0.702  0.5635 -0.1551 -0.7537
  382LIG    OD2 5727   0.060   6.675   0.619 -0.0660  0.3470 -0.2795
  382LIG      C 5728   0.406   6.716   0.547 -0.6504  0.3313 -0.1743
  382LIG    OT1 5729   0.518   6.721   0.492  0.8263 -0.3063 -0.3638
  382LIG    OT2 5730   0.393   6.735   0.668  0.7600  0.2541 -0.8912
  383LIG      N 5731   9.723   5.492   7.518  0.4342 -0.1519  0.4811
  383LIG     H1 5732   9.751   5.557   7.442 -2.9460  0.2162 -0.6273
  383LIG     H2 5733   9.751   5.537   7.607  1.3606  1.5199 -0.5946
  383LIG     H3 5734   9.781   5.408   7.499 -0.0953  0.0966 -2.8909
  383LIG     CA 5735   9.589   5.466   7.498  0.8291  0.0212 -0.1342
  383LIG     HA 5736   9.542   5.555   7.539  0.0667 -1.1899  1.7646
  383LIG     CB 5737   9.555   5.432   7.357  0.6147  0.6836  0.2592
  383LIG    HB1 5738   9.524   5.326   7.348  2.5421 -0.0009  1.2050
  383LIG    HB2 5739   9.646   5.445   7.296  1.5687  2.7698  1.9733
  383LIG     CG 5740   9.443   5.519   7.312  0.4588 -0.5810  0.1365
  383LIG    OD1 5741   9.355   5.474   7.231 -0.4900 -0.3138 -0.1972
  383LIG    OD2 5742   9.456   5.641   7.345 -0.0674 -0.1865 -0.0562
  383LIG      C 5743   9.540   5.362   7.611  0.5912  0.7148  0.4764
  383LIG    OT1 5744   9.628   5.305   7.678 -0.2338 -0.1565  0.4069
  383LIG    OT2 5745   9.417   5.341   7.629 -0.1502 -0.1231  0.0751
  384LIG      N 5746   0.004   6.759   8.650  0.2861  0.1297  0.4409
  384LIG     H1 5747   0.038   6.784   8.745  2.1228 -0.7863  0.0852
  384LIG     H2 5748   0.047   6.820   8.577  1.1800 -1.2384 -0.2217
  384LIG     H3 5749  -0.095   6.791   8.647  0.1236 -0.3411  0.7217
  384LIG     CA 5750   0.025   6.619   8.618  0.2671  0.5909 -0.0860
  384LIG     HA 5751   0.131   6.608   8.605  0.3550  0.5322  0.6791
  384LIG     CB 5752  -0.028   6.531   8.735 -0.0721  0.3275  0.2527
  384LIG    HB1 5753  -0.138   6.526   8.747 -0.0776  0.0113  0.0819
  384LIG    HB2 5754   0.011   6.576   8.829  1.4079  0.1783 -0.2601
  384LIG     CG 5755   0.034   6.392   8.733  0.1164 -0.5677  0.3387
  384LIG    OD1 5756  -0.043   6.301   8.780 -0.6278 -0.1682  0.1303
  384LIG    OD2 5757   0.150   6.365   8.708 -0.1184  0.1854 -1.2288
  384LIG      C 5758  -0.039   6.577   8.484 -0.0129 -0.0466  1.0206
  384LIG    OT1 5759  -0.098   6.666   8.417 -0.5311 -0.1343 -0.0299
  384LIG    OT2 5760  -0.037   6.457   8.447 -0.3580 -0.0107  0.3374
  385LIG      N 5761   0.566   2.735   6.898  0.2447  0.6817 -0.0779
  385LIG     H1 5762   0.568   2.639   6.858  0.7780  0.9843 -0.7950
  385LIG     H2 5763   0.661   2.777   6.892  0.1987  0.6546 -1.2243
  385LIG     H3 5764   0.560   2.712   6.999  0.3918 -1.2559 -0.4764
  385LIG     CA 5765   0.438   2.813   6.870 -0.7490 -0.5388 -0.2778
  385LIG     HA 5766   0.460   2.918   6.880 -0.2747 -0.6478 -0.1443
  385LIG     CB 5767   0.382   2.778   6.725 -0.3788  0.3581  0.1856
  385LIG    HB1 5768   0.299   2.704   6.731 -0.3775  0.4134  1.1565
  385LIG    HB2 5769   0.463   2.738   6.660  1.9880  0.5758  2.7825
  385LIG     CG 5770   0.315   2.900   6.673 -0.2673  0.0591  0.8232
  385LIG    OD1 5771   0.203   2.886   6.610 -0.5300 -0.1957 -0.3170
  385LIG    OD2 5772   0.372   3.011   6.688  0.4090  0.0444 -0.1336
  385LIG      C 5773   0.329   2.778   6.974 -0.6278  0.2742 -1.1212
  385LIG    OT1 5774   0.352   2.681   7.051 -0.4618 -0.0624 -0.0551
  385LIG    OT2 5775   0.224   2.836   6.975  0.1095 -0.2581  0.2300
  386LIG      N 5776   6.914   3.411   9.852 -0.0532 -0.5026 -0.1354
  386LIG     H1 5777   6.865   3.480   9.792 -0.6795 -0.1383  0.7631
  386LIG     H2 5778   6.869   3.394   9.944 -0.9308 -0.7944 -0.6146
  386LIG     H3 5779   7.013   3.439   9.867 -0.0765 -0.6000  0.2111
  386LIG     CA 5780   6.919   3.277   9.785  0.5090 -0.2304 -0.8186
  386LIG     HA 5781   7.002   3.227   9.831  0.3850  0.0205 -0.3097
  386LIG     CB 5782   6.784   3.206   9.829 -0.2184 -0.4716 -0.1116
  386LIG    HB1 5783   6.699   3.251   9.774  0.9313  4.3063  1.4843
  386LIG    HB2 5784   6.763   3.233   9.934  1.0852  3.3367 -0.6641
  386LIG     CG 5785   6.791   3.057   9.811 -0.3091 -1.0159 -0.2480
  386LIG    OD1 5786   6.694   3.000   9.752  0.6363  0.0196  0.3825
  386LIG    OD2 5787   6.886   2.994   9.858  0.3593  0.5711 -0.1568
  386LIG      C 5788   6.924   3.298   9.634  0.0042  0.1366  0.0440
  386LIG    OT1 5789   6.945   3.406   9.577 -0.0033  0.0691  0.7679
  386LIG    OT2 5790   6.913   3.194   9.562 -0.0296  0.0355 -0.2834
  387LIG      N 5791   4.765   1.299   9.403 -0.2382  0.2533  0.2005
  387LIG     H1 5792   4.851   1.306   9.461 -1.5356 -1.9565  2.6330
  387LIG     H2 5793   4.783   1.244   9.317  2.8783  0.9887  0.2692
  387LIG     H3 5794   4.735   1.395   9.376  1.1114  0.0206 -2.3567
  387LIG     CA 5795   4.668   1.236   9.490 -0.0404  0.0096  0.1938
  387LIG     HA 5796   4.629   1.314   9.555 -1.7158  0.1586 -0.9358
  387LIG     CB 5797   4.559   1.165   9.405 -0.0281  0.2111  0.4326
  387LIG    HB1 5798   4.591   1.063   9.374  4.0830  1.3795  0.2906
  387LIG    HB2 5799   4.524   1.224   9.317  0.8941 -0.0149 -0.0895
  387LIG     CG 5800   4.436   1.146   9.493 -0.0206 -0.2906  0.9852
  387LIG    OD1 5801   4.390   1.028   9.506 -0.2719  0.2232  0.4316
  387LIG    OD2 5802   4.373   1.245   9.537 -0.2200 -0.0095  0.6033
  387LIG      C 5803   4.737   1.132   9.593 -0.9980  0.0995  0.4137
  387LIG    OT1 5804   4.861   1.121   9.593 -0.4982 -0.1958  0.4450
  387LIG    OT2 5805   4.663   1.093   9.683  0.4992 -0.4498 -0.4867
  388LIG      N 5806   1.928   5.460   4.240 -0.4521 -0.0835  0.3838
  388LIG     H1 5807   1.875   5.482   4.327 -1.4999 -0.9119 -0.0254
  388LIG     H2 5808   1.981   5.545   4.212 -0.9982  0.0042 -0.4170
  388LIG     H3 5809   1.854   5.446   4.169  1.0439 -0.5563 -1.1528
  388LIG     CA 5810   2.007   5.331   4.255 -0.1640  0.4087  0.7326
  388LIG     HA 5811   2.080   5.351   4.332  1.1376  1.2740 -0.6729
  388LIG     CB 5812   1.911   5.222   4.304  0.0351 -0.3468 -0.7701
  388LIG    HB1 5813   1.839   5.180   4.230  1.7104 -2.4127 -1.3110
  388LIG    HB2 5814   1.853   5.270   4.386  1.9364  0.0789  0.3897
  388LIG     CG 5815   1.976   5.105   4.370 -0.5345  1.0637 -0.0616
  388LIG    OD1 5816   1.923   4.991   4.340  0.0592  0.4003 -0.2256
  388LIG    OD2 5817   2.068   5.111   4.458  0.5734  0.5244 -0.0523
  388LIG      C 5818   2.094   5.288   4.139  0.2983  0.6749 -0.6448
  388LIG    OT1 5819   2.082   5.349   4.028  0.2338 -0.3887  0.7382
  388LIG    OT2 5820   2.173   5.185   4.161 -0.1327 -0.4064  0.3480
  389LIG      N 5821   5.274   1.311   9.486  0.0782 -0.4741  0.5149
  389LIG     H1 5822   5.174   1.336   9.469  0.0900 -0.6117  0.2316
  389LIG     H2 5823   5.293   1.270   9.580  0.0403  0.2799  0.8584
  389LIG     H3 5824   5.333   1.396   9.483 -1.1267  0.4108  1.1408
  389LIG     CA 5825   5.314   1.204   9.394 -0.1582 -0.3575 -0.6199
  389LIG     HA 5826   5.255   1.116   9.416  1.4218 -1.3439 -0.1637
  389LIG     CB 5827   5.309   1.271   9.252  0.3358  0.7721 -0.2686
  389LIG    HB1 5828   5.392   1.339   9.222  0.8023 -0.8473 -2.9251
  389LIG    HB2 5829   5.213   1.325   9.246  1.5745  2.9597 -1.6261
  389LIG     CG 5830   5.307   1.157   9.149  0.6335  0.4972  0.0312
  389LIG    OD1 5831   5.393   1.143   9.065 -0.5153  0.5947 -0.4070
  389LIG    OD2 5832   5.203   1.083   9.157 -0.3725 -0.2644  0.2761
  389LIG      C 5833   5.464   1.148   9.428 -0.0221 -0.4229  0.7076
  389LIG    OT1 5834   5.532   1.182   9.524 -0.3756 -0.0280 -0.1722
  389LIG    OT2 5835   5.508   1.067   9.346  0.0852 -0.0143 -0.2606
  390LIG      N 5836   6.873   3.454   0.703  0.1544  1.5360 -0.1126
  390LIG     H1 5837   6.807   3.499   0.769  0.6672  0.7601  0.9540
  390LIG     H2 5838   6.898   3.359   0.738  1.0522  1.1827 -1.6129
  390LIG     H3 5839   6.956   3.516   0.691 -0.1266  1.7390 -1.0571
  390LIG     CA 5840   6.800   3.448   0.572  0.4399 -0.0995 -0.3873
  390LIG     HA 5841   6.859   3.397   0.498  0.5128 -1.0159  0.2919
  390LIG     CB 5842   6.669   3.362   0.597 -0.1776  0.0654 -0.4526
  390LIG    HB1 5843   6.591   3.415   0.655 -0.4641 -0.1705 -0.6254
  390LIG    HB2 5844   6.703   3.269   0.648  0.0383 -0.1001 -0.8893
  390LIG     CG 5845   6.602   3.316   0.471 -0.5557 -0.3031  0.5518
  390LIG    OD1 5846   6.477   3.320   0.457 -0.2944  0.4564 -0.3217
  390LIG    OD2 5847   6.675   3.265   0.385 -0.1715  0.1214  0.4016
  390LIG      C 5848   6.768   3.598   0.521 -0.1253 -0.3217 -0.0811
  390LIG    OT1 5849   6.813   3.700   0.583  0.6326  0.1436 -0.0793
  390LIG    OT2 5850   6.704   3.606   0.412 -0.3942 -0.1171 -0.2509
  391LIG      N 5851   3.324   1.772   5.946  0.1783  0.1857  0.0746
  391LIG     H1 5852   3.335   1.697   6.017 -1.2622 -1.6394 -1.5342
  391LIG     H2 5853   3.261   1.731   5.875 -0.3114  1.4156 -0.2227
  391LIG     H3 5854   3.414   1.792   5.897  0.0627 -1.6946 -0.9632
  391LIG     CA 5855   3.268   1.893   6.010 -0.3120  0.6849  0.1489
  391LIG     HA 5856   3.243   1.952   5.923 -0.3156 -1.4053 -1.3425
  391LIG     CB 5857   3.138   1.861   6.091  0.1385 -0.2311  0.3764
  391LIG    HB1 5858   3.170   1.829   6.192  0.3036  0.1463  0.4435
  391LIG    HB2 5859   3.082   1.775   6.048  0.2541  0.3250 -0.9277
  391LIG     CG 5860   3.048   1.980   6.089 -0.6159 -0.5430  0.3885
  391LIG    OD1 5861   2.948   1.974   6.167  0.6351 -0.0875 -0.0982
  391LIG    OD2 5862   3.065   2.080   6.021 -0.1880  0.3679 -0.2537
  391LIG      C 5863   3.373   1.954   6.111  0.9515  0.4582  0.4561
  391LIG    OT1 5864   3.488   1.909   6.123 -0.0764 -0.1795 -0.7364
  391LIG    OT2 5865   3.332   2.042   6.188  0.6476 -0.1471 -0.1945
  392LIG      N 5866   0.508   4.381   5.230  0.3796 -0.4231  1.2030
  392LIG     H1 5867   0.524   4.292   5.180  1.4457  0.7240 -0.6092
  392LIG     H2 5868   0.592   4.439   5.212 -0.6215  0.1643 -2.4383
  392LIG     H3 5869   0.495   4.365   5.332  1.4700 -0.6088  1.3177
  392LIG     CA 5870   0.390   4.467   5.178 -0.0082  0.4052 -0.6375
  392LIG     HA 5871   0.419   4.570   5.197 -0.9721  1.1957 -3.0393
  392LIG     CB 5872   0.386   4.441   5.030 -0.3130  0.6034 -0.5045
  392LIG    HB1 5873   0.345   4.339   5.013  1.5404 -0.0531 -1.4088
  392LIG    HB2 5874   0.482   4.462   4.978 -0.7815 -0.1541 -1.7278
  392LIG     CG 5875   0.301   4.543   4.959  0.3527  0.4364  0.2018
  392LIG    OD1 5876   0.210   4.505   4.878  0.7244  0.4592  0.4087
  392LIG    OD2 5877   0.321   4.666   4.980 -0.7650  0.5315  0.7379
  392LIG      C 5878   0.257   4.433   5.260  0.2477 -0.1988 -0.3703
  392LIG    OT1 5879   0.253   4.341   5.341  0.0373  0.2250 -0.1109
  392LIG    OT2 5880   0.148   4.485   5.221 -0.5104 -0.0307 -0.1278
  393LIG      N 5881   7.851   4.803   3.567  0.1050  0.5149 -0.6520
  393LIG     H1 5882   7.784   4.853   3.505 -3.6796 -0.2740  2.4307
  393LIG     H2 5883   7.862   4.701   3.551  0.1253  0.2972  0.6158
  393LIG     H3 5884   7.812   4.814   3.663 -1.4470  1.2337 -1.3349
  393LIG     CA 5885   7.982   4.875   3.568 -0.2843  0.1676 -0.2707
  393LIG     HA 5886   7.962   4.981   3.568  2.6751  0.8164  0.0179
  393LIG     CB 5887   8.055   4.833   3.704  0.7066  0.6310 -0.3460
  393LIG    HB1 5888   8.097   4.730   3.704  1.4692  0.8145  2.7921
  393LIG    HB2 5889   7.978   4.828   3.784 -0.2541 -0.8411 -1.3156
  393LIG     CG 5890   8.171   4.923   3.733 -0.3756 -0.4062  0.5724
  393LIG    OD1 5891   8.283   4.870   3.765 -0.0059  0.1233  0.3009
  393LIG    OD2 5892   8.162   5.051   3.732 -0.4558 -0.1798 -0.2219
  393LIG      C 5893   8.067   4.829   3.447  0.2646  0.1518  0.1941
  393LIG    OT1 5894   8.025   4.745   3.358  0.3124 -0.1699 -0.2286
  393LIG    OT2 5895   8.179   4.888   3.429  0.4218  0.4420 -0.3443
  394LIG      N 5896   9.486   6.379   6.258 -0.1872  0.4344 -0.4856
  394LIG     H1 5897   9.478   6.376   6.155 -1.3192 -1.5914 -0.3817
  394LIG     H2 5898   9.541   6.462   6.290 -1.6147  1.4735 -0.6618
  394LIG     H3 5899   9.534   6.291   6.286  0.0904  0.9981  0.9171
  394LIG     CA 5900   9.356   6.378   6.339  0.3365 -1.0839 -0.1681
  394LIG     HA 5901   9.288   6.320   6.279 -0.9724 -0.6264  0.8199
  394LIG     CB 5902   9.386   6.315   6.479 -0.3445 -0.4470  0.4672
  394LIG    HB1 5903   9.439   6.379   6.553 -0.1025 -1.7538  1.4668
  394LIG    HB2 5904   9.455   6.229   6.460  1.5045  1.4630 -2.2511
  394LIG     CG 5905   9.262   6.250   6.516  0.3512  0.1431 -1.0489
  394LIG    OD1 5906   9.223   6.270   6.636  0.2399 -0.0419 -0.2133
  394LIG    OD2 5907   9.204   6.169   6.437 -0.1383  0.0532 -0.3756
  394LIG      C 5908   9.295   6.512   6.361  0.0188 -0.0704 -0.2177
  394LIG    OT1 5909   9.332   6.608   6.284  0.4974  0.1019 -0.2397
  394LIG    OT2 5910   9.202   6.529   6.442  0.5168  0.5586  0.3655
  395LIG      N 5911   2.396   9.721   6.794 -0.0449  0.1911  0.1752
  395LIG     H1 5912   2.428   9.779   6.874 -1.7978  2.4868 -0.6670
  395LIG     H2 5913   2.301   9.757   6.769 -0.7258  0.1431  2.4642
  395LIG     H3 5914   2.396   9.622   6.823  0.3989  0.7485  2.1994
  395LIG     CA 5915   2.496   9.737   6.683 -0.2342 -0.1722  0.4488
  395LIG     HA 5916   2.589   9.688   6.709  0.4839  0.4133 -0.9557
  395LIG     CB 5917   2.419   9.669   6.567 -0.3445 -0.3022 -0.4099
  395LIG    HB1 5918   2.344   9.742   6.527 -0.9604 -0.3295  0.6534
  395LIG    HB2 5919   2.364   9.575   6.588  2.1881 -1.4014  1.8545
  395LIG     CG 5920   2.515   9.625   6.457 -0.7762  0.0445 -0.9812
  395LIG    OD1 5921   2.492   9.666   6.340 -0.0621 -1.1619 -0.0939
  395LIG    OD2 5922   2.617   9.564   6.493  0.2458 -0.6020  0.1452
  395LIG      C 5923   2.531   9.889   6.664  0.0524 -0.4204  0.0541
  395LIG    OT1 5924   2.474   9.972   6.741  0.3515 -0.1328  0.4716
  395LIG    OT2 5925   2.604   9.929   6.571 -0.5138 -0.7033 -0.3979
  396LIG      N 5926   1.451   4.117   3.084 -0.3141  0.5205 -0.4123
  396LIG     H1 5927   1.430   4.052   3.162 -3.1205  1.8070  0.0282
  396LIG     H2 5928   1.398   4.090   2.999 -0.1181 -1.0022 -0.0694
  396LIG     H3 5929   1.548   4.105   3.049 -0.6255  1.5046 -1.6902
  396LIG     CA 5930   1.435   4.259   3.123  0.2540  0.6932 -0.3813
  396LIG     HA 5931   1.338   4.289   3.087 -0.9652 -0.2015  2.0006
  396LIG     CB 5932   1.449   4.266   3.276 -0.4935 -0.0944 -0.7636
  396LIG    HB1 5933   1.556   4.246   3.300 -0.7245  1.9645  2.5152
  396LIG    HB2 5934   1.383   4.197   3.332 -2.3504  4.1553  2.8447
  396LIG     CG 5935   1.419   4.397   3.338 -0.1964 -1.0915  0.2006
  396LIG    OD1 5936   1.506   4.479   3.379  0.0179  0.6058 -0.4005
  396LIG    OD2 5937   1.295   4.421   3.362 -0.4827  0.5882  0.4645
  396LIG      C 5938   1.526   4.366   3.052  0.3196 -0.3218  0.6382
  396LIG    OT1 5939   1.614   4.337   2.973 -0.6988  0.3327 -0.3183
  396LIG    OT2 5940   1.495   4.486   3.068 -0.6450 -0.0931 -0.1713
  397LIG      N 5941   1.694   4.384   5.802  0.1999 -0.8435 -0.0653
  397LIG     H1 5942   1.646   4.476   5.806 -1.0178 -1.3975 -1.2192
  397LIG     H2 5943   1.767   4.360   5.872  0.3986 -3.2891 -1.0143
  397LIG     H3 5944   1.750   4.376   5.714 -0.4884  0.5140 -0.6651
  397LIG     CA 5945   1.600   4.267   5.813 -0.7312  0.1914  0.0278
  397LIG     HA 5946   1.658   4.176   5.815 -1.1205 -0.1287 -1.6806
  397LIG     CB 5947   1.525   4.311   5.944 -0.0425 -0.5015 -0.2570
  397LIG    HB1 5948   1.442   4.381   5.920 -0.8451 -0.9518  1.0957
  397LIG    HB2 5949   1.590   4.352   6.024  0.0664  2.2747 -1.6435
  397LIG     CG 5950   1.455   4.192   6.005  0.4639  0.2618  0.6728
  397LIG    OD1 5951   1.337   4.199   6.050 -0.4137 -0.3060 -0.1590
  397LIG    OD2 5952   1.519   4.084   6.022  0.8244  0.9735 -0.1573
  397LIG      C 5953   1.496   4.264   5.702  0.0390 -0.9502  0.2320
  397LIG    OT1 5954   1.496   4.354   5.613  0.1813  0.3288  0.3943
  397LIG    OT2 5955   1.425   4.160   5.692 -0.6442  0.3643 -0.1173
  398LIG      N 5956   0.952   9.079   1.947 -0.4477 -0.4562 -0.2480
  398LIG     H1 5957   1.047   9.040   1.959  0.2187  1.4069  0.9693
  398LIG     H2 5958   0.896   9.017   2.008 -0.1596  0.8838  1.4409
  398LIG     H3 5959   0.929   9.068   1.846 -2.3657  0.3811  0.0499
  398LIG     CA 5960   0.940   9.224   1.992 -0.1193 -0.2787  0.5693
  398LIG     HA 5961   1.024   9.280   1.954 -0.0647 -0.3239  0.6226
  398LIG     CB 5962   0.808   9.278   1.919 -0.2354  0.3326 -0.3489
  398LIG    HB1 5963   0.715   9.253   1.975 -1.0146  0.1081 -1.7123
  398LIG    HB2 5964   0.792   9.245   1.814 -0.3461 -1.4116  0.1815
  398LIG     CG 5965   0.820   9.426   1.922 -0.2787 -0.7539  0.5835
  398LIG    OD1 5966   0.716   9.483   1.967 -0.7131  0.0727  0.2929
  398LIG    OD2 5967   0.919   9.494   1.882 -0.3047  0.0374  0.0285
  398LIG      C 5968   0.933   9.236   2.141 -0.1919  0.2643 -0.7322
  398LIG    OT1 5969   0.930   9.139   2.216  0.2432 -0.0578 -0.4371
  398LIG    OT2 5970   0.941   9.353   2.193 -0.2956  0.0239  0.3033
  399LIG      N 5971   9.235   7.686   3.006 -0.7239 -0.3262 -0.3125
  399LIG     H1 5972   9.132   7.698   3.021 -0.4814  0.1514  1.1246
  399LIG     H2 5973   9.234   7.637   2.915 -0.4294 -0.8067 -0.0571
  399LIG     H3 5974   9.281   7.637   3.085 -0.9178  2.2687  1.5607
  399LIG     CA 5975   9.305   7.816   2.995 -0.2207  0.1464  0.8920
  399LIG     HA 5976   9.411   7.796   3.007  0.4353  3.0171  0.7541
  399LIG     CB 5977   9.259   7.872   2.859 -0.0897  0.1561  0.0531
  399LIG    HB1 5978   9.148   7.879   2.847 -0.1767 -0.4900  0.4603
  399LIG    HB2 5979   9.300   7.804   2.782 -1.0229 -0.6110  0.2098
  399LIG     CG 5980   9.320   8.007   2.824 -0.2912  0.0141 -0.0463
  399LIG    OD1 5981   9.254   8.100   2.774 -0.2537 -0.1430  0.1908
  399LIG    OD2 5982   9.446   8.007   2.824  0.0335 -0.0720  0.0758
  399LIG      C 5983   9.262   7.918   3.111  0.1077 -0.2737  0.0462
  399LIG    OT1 5984   9.152   7.907   3.166  0.3610 -0.6157  0.3337
  399LIG    OT2 5985   9.343   8.015   3.130 -0.1782 -0.1950  0.0381
  400LIG      N 5986   2.382   0.137   6.051 -0.6336 -0.0957  0.0354
  400LIG     H1 5987   2.405   0.045   6.093 -0.5602 -1.0826 -2.0194
  400LIG     H2 5988   2.415   0.122   5.953  0.9279 -1.4353  0.7145
  400LIG     H3 5989   2.440   0.211   6.096  0.3525 -0.3787 -0.7336
  400LIG     CA 5990   2.241   0.167   6.064 -0.4065 -0.1448  0.0909
  400LIG     HA 5991   2.193   0.089   6.006  0.4426  0.2741 -1.2216
  400LIG     CB 5992   2.219   0.171   6.221  0.2241  0.1859  0.8702
  400LIG    HB1 5993   2.272   0.249   6.278  0.7998  0.5487 -0.1397
  400LIG    HB2 5994   2.236   0.072   6.268 -1.0093  1.1891  3.6206
  400LIG     CG 5995   2.073   0.184   6.248  0.1120  0.4948 -0.6902
  400LIG    OD1 5996   2.032   0.257   6.345  0.2062  0.1403  0.4854
  400LIG    OD2 5997   1.987   0.110   6.190  0.4325 -0.2013 -0.1025
  400LIG      C 5998   2.215   0.303   5.997  0.7410 -0.5204 -0.1339
  400LIG    OT1 5999   2.310   0.385   5.959 -0.0630  0.3059  0.7470
  400LIG    OT2 6000   2.097   0.337   5.977  0.6500  0.6500  0.5699
  401LIG      N 6001   4.382   0.070   2.305  0.2479 -0.0345  0.3930
  401LIG     H1 6002   4.448   0.007   2.255  0.4414  1.6662 -1.6259
  401LIG     H2 6003   4.308   0.008   2.345  1.3471 -3.0292 -1.8196
  401LIG     H3 6004   4.333   0.124   2.231  0.2606 -0.7433 -0.1491
  401LIG     CA 6005   4.473   0.157   2.383 -0.6354 -0.5653 -0.3321
  401LIG     HA 6006   4.563   0.105   2.412 -0.1895  0.1134 -0.4709
  401LIG     CB 6007   4.496   0.282   2.296  0.4827 -0.5616 -0.1579
  401LIG    HB1 6008   4.407   0.345   2.277  0.1777 -1.4056 -1.7243
  401LIG    HB2 6009   4.534   0.251   2.196  0.7943 -0.0446 -0.2028
  401LIG     CG 6010   4.612   0.365   2.352  0.0203 -0.0892  0.3219
  401LIG    OD1 6011   4.586   0.483   2.372  0.0224 -0.8519 -0.3350
  401LIG    OD2 6012   4.726   0.309   2.366 -0.1931 -0.1914 -0.3914
  401LIG      C 6013   4.408   0.195   2.521 -0.0114  0.1707  0.6449
  401LIG    OT1 6014   4.284   0.160   2.534 -0.2351 -0.5357 -0.5558
  401LIG    OT2 6015   4.467   0.258   2.612 -0.2825  0.3038 -0.2875
  402LIG      N 6016   0.131   1.613   4.202 -0.1555 -0.8764 -0.2109
  402LIG     H1 6017   0.221   1.628   4.252 -1.5255 -1.7913  2.7047
  402LIG     H2 6018   0.081   1.526   4.228 -3.6427  0.2776 -2.4235
  402LIG     H3 6019   0.152   1.614   4.100  0.3506  1.7644 -0.1691
  402LIG     CA 6020   0.070   1.734   4.271 -0.5659  0.1493 -0.1440
  402LIG     HA 6021   0.120   1.825   4.243 -0.8317  0.0808 -0.8778
  402LIG     CB 6022  -0.086   1.732   4.237  0.0201  0.2196  0.4020
  402LIG    HB1 6023  -0.152   1.668   4.301  0.0061 -1.3957 -1.1534
  402LIG    HB2 6024  -0.104   1.710   4.130  1.5642 -0.7610  0.3151
  402LIG     CG 6025  -0.125   1.876   4.260  0.6459  0.5449  0.8488
  402LIG    OD1 6026  -0.234   1.900   4.319 -0.4797 -0.2513 -0.2444
  402LIG    OD2 6027  -0.061   1.957   4.192  0.7244 -0.2706  0.2304
  402LIG      C 6028   0.092   1.715   4.424 -0.1578  0.5221  0.4069
  402LIG    OT1 6029   0.114   1.602   4.463 -1.1801  0.6231 -0.3896
  402LIG    OT2 6030   0.092   1.816   4.499 -0.2128  0.0204  0.2309
  403LIG      N 6031   8.558   7.029   5.817  0.6306  0.0132 -0.2155
  403LIG     H1 6032   8.545   6.931   5.850  0.3116 -0.0435 -0.5093
  403LIG     H2 6033   8.549   7.039   5.714  2.8386  1.4822 -0.3381
  403LIG     H3 6034   8.656   7.055   5.843  0.6755 -0.7571  0.4186
  403LIG     CA 6035   8.468   7.122   5.890  0.0963  0.3939 -0.2010
  403LIG     HA 6036   8.365   7.103   5.865 -0.3786  1.1884  1.0320
  403LIG     CB 6037   8.491   7.094   6.039 -0.2372  0.2538 -0.3656
  403LIG    HB1 6038   8.585   7.135   6.082  1.0506  0.4661 -3.1371
  403LIG    HB2 6039   8.508   6.985   6.051  2.1514  0.4663 -1.2125
  403LIG     CG 6040   8.365   7.122   6.124  0.2352  0.1666  0.2732
  403LIG    OD1 6041   8.379   7.172   6.234 -0.0554 -0.0233 -0.0230
  403LIG    OD2 6042   8.257   7.080   6.085  0.2061 -0.2473 -0.0269
  403LIG      C 6043   8.488   7.264   5.854 -0.7120 -0.1566  0.9773
  403LIG    OT1 6044   8.595   7.300   5.790 -0.6886  0.1409 -0.5231
  403LIG    OT2 6045   8.397   7.346   5.881 -0.0039 -0.1631  0.3497
  404LIG      N 6046   8.301   3.159   4.441  0.5117  0.0217 -0.2100
  404LIG     H1 6047   8.336   3.074   4.491  0.5907  1.0018  1.4892
  404LIG     H2 6048   8.317   3.236   4.509  1.1158  0.2452 -0.5931
  404LIG     H3 6049   8.199   3.152   4.426  0.3325 -0.8707  1.2305
  404LIG     CA 6050   8.378   3.182   4.319 -0.3759 -0.0964  0.0197
  404LIG     HA 6051   8.481   3.182   4.349 -0.1779 -0.1369 -0.6535
  404LIG     CB 6052   8.350   3.067   4.224  0.0438 -0.0402  0.4104
  404LIG    HB1 6053   8.251   3.093   4.182  0.1600  2.1305  1.3348
  404LIG    HB2 6054   8.349   2.974   4.285  1.9681  0.2437  0.9613
  404LIG     CG 6055   8.450   3.041   4.120 -0.3852 -0.0428  0.0639
  404LIG    OD1 6056   8.418   3.041   3.998 -0.1774  0.7467 -0.3221
  404LIG    OD2 6057   8.566   3.005   4.159  0.2346  0.4804  0.5569
  404LIG      C 6058   8.347   3.328   4.260 -0.4898  0.1117 -0.9183
  404LIG    OT1 6059   8.245   3.393   4.293 -0.1029 -0.5179  0.0333
  404LIG    OT2 6060   8.429   3.367   4.173 -0.1209 -0.1705 -0.0317
  405SOL     OW 6061   1.649   0.439   1.528 -0.1679  0.0963  0.0023
  405SOL    HW1 6062   1.611   0.494   1.460 -3.0752 -0.9107  0.6985
  405SOL    HW2 6063   1.643   0.491   1.608  1.3474  0.4745 -0.0938
  406SOL     OW 6064   0.970   1.349   1.546  0.0103 -0.0043 -0.2896
  406SOL    HW1 6065   1.066   1.350   1.539  0.0461  0.4212  0.2220
  406SOL    HW2 6066   0.940   1.317   1.461  0.6173 -0.3671 -0.3709
  407SOL     OW 6067   1.485   1.925   0.262  0.1195 -0.1477  0.2140
  407SOL    HW1 6068   1.410   1.874   0.231  2.0242 -2.1260 -1.3749
  407SOL    HW2 6069   1.499   1.895   0.352  1.0806 -2.3980 -0.6215
  408SOL     OW 6070   3.131   1.120   2.881  0.6802 -0.2418 -0.1326
  408SOL    HW1 6071   3.062   1.181   2.855  1.0751  1.5114  2.5473
  408SOL    HW2 6072   3.191   1.120   2.806 -0.2033  1.3558 -0.9055
  409SOL     OW 6073   3.009   9.794   9.412  0.1326  0.3527  0.2294
  409SOL    HW1 6074   3.022   9.799   9.317  0.0855 -1.5517  0.0824
  409SOL    HW2 6075   3.001   9.885   9.440  0.5196  0.9708 -1.5368
  410SOL     OW 6076   0.411   0.762   0.964  0.2157  0.1505 -0.3217
  410SOL    HW1 6077   0.345   0.695   0.942  0.0021  0.1406  0.3167
  410SOL    HW2 6078   0.466   0.720   1.029  0.5353  0.3472 -0.4632
  411SOL     OW 6079   1.010   0.841   0.250 -0.5013  0.2582 -0.7072
  411SOL    HW1 6080   0.948   0.912   0.265  2.2566  2.5821  0.5111
  411SOL    HW2 6081   1.015   0.795   0.334  1.5937  2.0480  0.2524
  412SOL     OW 6082   9.373   9.802   1.888  0.4227 -0.2933  0.0525
  412SOL    HW1 6083   9.377   9.895   1.867 -0.7125  0.0805  1.3356
  412SOL    HW2 6084   9.415   9.795   1.973 -0.6111 -0.7443  0.5358
  413SOL     OW 6085   2.115   2.311   2.810  0.4157  0.8214  0.2083
  413SOL    HW1 6086   2.171   2.359   2.748  0.5884  0.9120  0.4331
  413SOL    HW2 6087   2.161   2.230   2.827  0.0464  0.4966 -0.2938
  414SOL     OW 6088   0.411   2.699   1.213  0.1814  0.0319 -0.3657
  414SOL    HW1 6089   0.460   2.664   1.139  1.3109  0.8626 -0.0272
  414SOL    HW2 6090   0.427   2.637   1.284  0.0825 -0.1260 -0.4814
  415SOL     OW 6091   1.205   1.550   1.150 -0.8103  0.4888 -0.2369
  415SOL    HW1 6092   1.213   1.456   1.132 -0.1218  0.5876 -0.4717
  415SOL    HW2 6093   1.112   1.568   1.141 -0.7421  0.1634 -1.9115
  416SOL     OW 6094   2.302   0.851   0.646  0.0044 -0.3176  0.2147
  416SOL    HW1 6095   2.374   0.900   0.605 -1.0347 -0.3629 -1.7887
  416SOL    HW2 6096   2.320   0.759   0.623 -0.4621 -0.3739  0.0717
  417SOL     OW 6097   9.710   2.644   9.187  0.3159 -0.0688  0.3399
  417SOL    HW1 6098   9.803   2.665   9.181 -0.0678  1.3401 -1.3232
  417SOL    HW2 6099   9.666   2.729   9.189 -0.9667 -0.7042  1.1391
  418SOL     OW 6100   0.577   1.789   4.183 -0.2192 -0.1075  0.0586
  418SOL    HW1 6101   0.500   1.842   4.205  0.0391  1.4667 -2.3943
  418SOL    HW2 6102   0.569   1.773   4.089  1.1416 -2.2025  0.2254
  419SOL     OW 6103   2.622   0.053   0.798  0.0450 -0.0698  0.7321
  419SOL    HW1 6104   2.594   0.097   0.718  0.0855  0.0704  0.7943
  419SOL    HW2 6105   2.547   0.060   0.857  0.4631  0.9889  1.1783
  420SOL     OW 6106   0.811   0.693   0.047  0.2223 -0.4760 -0.0644
  420SOL    HW1 6107   0.906   0.704   0.050  0.2904 -1.1991  0.8907
  420SOL    HW2 6108   0.791   0.682  -0.046  0.9776  0.3578 -0.3469
  421SOL     OW 6109   0.378   0.897   1.872  1.0575  0.1345  0.2534
  421SOL    HW1 6110   0.335   0.820   1.908 -0.5744  0.2078 -1.3974
  421SOL    HW2 6111   0.436   0.864   1.804 -1.1702  0.4080 -1.8937
  422SOL     OW 6112   2.066   0.415   0.017  0.0797 -0.4542  0.3242
  422SOL    HW1 6113   2.145   0.361   0.019 -1.0845 -2.2598 -0.3710
  422SOL    HW2 6114   2.086   0.489   0.075  3.8502  1.4483 -2.9310
  423SOL     OW 6115   2.124   0.159   3.368 -0.4845  0.2706  0.2495
  423SOL    HW1 6116   2.038   0.201   3.370 -1.9178 -2.4114 -0.5313
  423SOL    HW2 6117   2.132   0.124   3.279  2.1545  1.7346 -0.2089
  424SOL     OW 6118   1.639   9.018   7.974 -0.0671 -0.2338  0.1833
  424SOL    HW1 6119   1.722   8.976   7.998  0.4706  0.2706 -0.7650
  424SOL    HW2 6120   1.648   9.107   8.007 -1.6820 -1.0600  3.2800
  425SOL     OW 6121   2.124   3.479   1.015  0.3932 -0.1380 -0.5209
  425SOL    HW1 6122   2.064   3.549   0.990  1.8177  1.7377  1.0193
  425SOL    HW2 6123   2.185   3.472   0.941 -1.9859 -2.5793 -2.4391
  426SOL     OW 6124   1.807   1.741   0.375  0.5422  0.5116 -0.2236
  426SOL    HW1 6125   1.823   1.807   0.443 -1.1602  0.9835 -0.2439
  426SOL    HW2 6126   1.734   1.689   0.409 -1.3051  1.6313 -2.2416
  427SOL     OW 6127   1.611   2.467   8.639  0.0016 -0.1187  0.2718
  427SOL    HW1 6128   1.626   2.496   8.549  2.1927  0.8960  0.8773
  427SOL    HW2 6129   1.527   2.505   8.663 -0.5564 -0.3145 -1.3040
  428SOL     OW 6130   8.877   4.203   1.191  0.2888 -0.0687  0.2094
  428SOL    HW1 6131   8.888   4.134   1.256 -0.1794  1.0400  1.5216
  428SOL    HW2 6132   8.965   4.238   1.178  0.6423 -1.3225 -0.9774
  429SOL     OW 6133   0.001   0.734   2.996  0.5215 -0.0974  0.3595
  429SOL    HW1 6134   0.022   0.641   3.008  1.2887 -0.0162 -0.2553
  429SOL    HW2 6135   0.085   0.778   3.006  0.1001  0.5724  1.0088
  430SOL     OW 6136   1.288   7.167   9.124 -0.0032  0.1791  0.4003
  430SOL    HW1 6137   1.277   7.261   9.135  1.7590  0.4149  0.4697
  430SOL    HW2 6138   1.202   7.130   9.143 -0.6322  1.7371  0.7212
  431SOL     OW 6139   2.403   0.671   3.377  0.7115  0.8480 -0.6690
  431SOL    HW1 6140   2.413   0.763   3.352 -0.3414  0.7217 -1.6328
  431SOL    HW2 6141   2.308   0.659   3.386  0.9365  0.3794  1.5473
  432SOL     OW 6142   1.237   0.901   0.124  0.5271  0.1547 -0.4837
  432SOL    HW1 6143   1.268   0.824   0.076  1.8397 -0.6929  1.5765
  432SOL    HW2 6144   1.155   0.872   0.165  0.4514  0.2282 -0.5811
  433SOL     OW 6145   9.454   0.001   2.143 -0.0838 -0.3193  0.3448
  433SOL    HW1 6146   9.515   0.069   2.117 -0.6792  0.2481  0.3896
  433SOL    HW2 6147   9.411   0.037   2.221 -0.5925 -0.6332  0.2136
  434SOL     OW 6148   2.088   2.949   9.814  0.2996 -0.0184 -0.3520
  434SOL    HW1 6149   2.012   2.898   9.786  0.1552 -0.1666  0.2976
  434SOL    HW2 6150   2.089   2.940   9.909  1.2534 -0.1895 -0.3731
  435SOL     OW 6151   2.917   3.236   3.143  0.0706 -0.2251 -0.1361
  435SOL    HW1 6152   2.891   3.241   3.235  0.8268  1.6162  0.0230
  435SOL    HW2 6153   2.991   3.175   3.142  0.8887  0.7078  0.7232
  436SOL     OW 6154   0.764   0.547   0.717 -0.2529 -0.3305 -0.2619
  436SOL    HW1 6155   0.711   0.517   0.791  0.0842 -0.8403 -0.2220
  436SOL    HW2 6156   0.700   0.567   0.648 -0.5483 -0.1363  0.0639
  437SOL     OW 6157   7.952   9.186   3.419  0.2440  0.0292  0.3855
  437SOL    HW1 6158   7.953   9.094   3.446  2.3231  0.1213  0.7750
  437SOL    HW2 6159   7.939   9.234   3.500 -2.4395  0.1171  0.0064
  438SOL     OW 6160   9.297   2.104   0.100 -0.4453  0.4893 -0.5556
  438SOL    HW1 6161   9.338   2.183   0.137 -0.7557 -0.5022  2.1709
  438SOL    HW2 6162   9.226   2.085   0.161  1.2432 -3.3628  0.4724
  439SOL     OW 6163   9.767   2.167   0.524 -0.1642  0.1558  0.2475
  439SOL    HW1 6164   9.771   2.118   0.606 -1.4784 -1.3430 -0.5214
  439SOL    HW2 6165   9.683   2.212   0.527 -1.0017 -1.2426 -0.9384
  440SOL     OW 6166   0.784   9.725   1.102  0.0586 -0.1825  0.0691
  440SOL    HW1 6167   0.777   9.821   1.101  2.5130  0.0739  0.1751
  440SOL    HW2 6168   0.714   9.696   1.161 -0.2227  1.6169  0.6834
  441SOL     OW 6169   0.348   0.027   0.421 -0.0516 -0.1082 -0.2232
  441SOL    HW1 6170   0.374   0.113   0.389 -0.2984  0.1576  0.2838
  441SOL    HW2 6171   0.266   0.042   0.467  0.8437 -0.2918  1.4919
  442SOL     OW 6172   0.571   9.336   1.396  0.1628  0.0803 -0.8086
  442SOL    HW1 6173   0.604   9.252   1.426  0.9433  0.9311  0.8394
  442SOL    HW2 6174   0.618   9.353   1.314  1.1716 -0.3406 -0.3189
  443SOL     OW 6175   2.448   0.726   0.946 -0.1921 -0.1172 -0.4985
  443SOL    HW1 6176   2.454   0.737   1.041 -1.1055  0.8062 -0.5343
  443SOL    HW2 6177   2.526   0.675   0.923  0.5064  0.4025  0.6372
  444SOL     OW 6178   1.467   0.661   1.026  0.2566 -0.0488 -0.0838
  444SOL    HW1 6179   1.537   0.597   1.016 -0.3169 -0.3768 -2.8371
  444SOL    HW2 6180   1.510   0.746   1.016  0.6173 -0.1068  0.8862
  445SOL     OW 6181   9.172   1.811   1.041  0.1851  0.0436  0.1072
  445SOL    HW1 6182   9.212   1.846   0.961 -3.2083  0.5110 -1.5778
  445SOL    HW2 6183   9.155   1.887   1.096  1.2071 -0.1155  0.6658
  446SOL     OW 6184   2.434   9.835   1.109  0.4570 -0.8914 -0.3028
  446SOL    HW1 6185   2.519   9.792   1.115  0.4085 -1.0226 -0.5348
  446SOL    HW2 6186   2.439   9.909   1.169  0.5924 -1.1402 -0.0113
  447SOL     OW 6187   3.357   1.038   2.718  0.2609 -0.2480  0.1174
  447SOL    HW1 6188   3.321   0.951   2.703  0.6397 -0.5286  0.7968
  447SOL    HW2 6189   3.411   1.055   2.641  0.0450 -0.5393 -0.1006
  448SOL     OW 6190   0.722   8.915   2.043 -0.0231  0.1212 -0.0487
  448SOL    HW1 6191   0.676   8.962   1.974  0.1037 -0.6255 -0.6447
  448SOL    HW2 6192   0.720   8.823   2.016 -0.4409 -0.2626  1.1922
  449SOL     OW 6193   7.871   2.012   9.434 -0.0896 -0.5861 -0.1414
  449SOL    HW1 6194   7.793   1.972   9.474 -0.0644 -1.1409 -0.6334
  449SOL    HW2 6195   7.839   2.093   9.396 -0.2379 -0.3529  0.4721
  450SOL     OW 6196   0.310   3.230   2.843  0.8714 -0.4051  0.3010
  450SOL    HW1 6197   0.342   3.307   2.890 -1.3238  0.5279  0.3720
  450SOL    HW2 6198   0.356   3.156   2.883  1.7721  0.7005  1.3675
  451SOL     OW 6199   1.200   3.507   1.353  0.0822 -0.1536  0.2982
  451SOL    HW1 6200   1.279   3.470   1.314  0.8097  0.2333  1.3480
  451SOL    HW2 6201   1.210   3.489   1.447 -0.4997  0.9411  0.5800
  452SOL     OW 6202   9.830   2.130   3.569 -0.4244 -0.3435  0.2186
  452SOL    HW1 6203   9.806   2.105   3.480 -1.5216  0.4461  0.2747
  452SOL    HW2 6204   9.922   2.155   3.564 -0.2659 -1.0562 -0.5251
  453SOL     OW 6205   0.801   1.723   0.578 -0.0493  0.1864  0.9493
  453SOL    HW1 6206   0.867   1.656   0.591  0.9517  0.8851 -0.2607
  453SOL    HW2 6207   0.759   1.733   0.663  1.4701 -0.2266  1.7781
  454SOL     OW 6208   0.075   0.174   2.222 -0.0399  0.2566 -0.3844
  454SOL    HW1 6209   0.138   0.245   2.238  1.7162 -1.1097 -0.8856
  454SOL    HW2 6210   0.094   0.110   2.291  0.1237 -0.8094 -1.3876
  455SOL     OW 6211   8.878   1.257   2.365  0.4435 -0.4652  0.2151
  455SOL    HW1 6212   8.783   1.252   2.353  0.1831 -1.0881  2.2034
  455SOL    HW2 6213   8.901   1.345   2.335 -0.8579 -0.0648  0.3097
  456SOL     OW 6214   2.244   9.535   9.096 -0.6289  0.4914  0.0781
  456SOL    HW1 6215   2.247   9.558   9.188  0.2796 -0.4557  0.3088
  456SOL    HW2 6216   2.335   9.517   9.072 -0.9485 -0.0951 -0.7766
  457SOL     OW 6217   9.745   2.395   0.764  0.3624 -0.4908  0.6365
  457SOL    HW1 6218   9.728   2.310   0.806 -0.3542 -0.8288 -0.2924
  457SOL    HW2 6219   9.755   2.456   0.836 -0.7134 -1.0747  1.3122
  458SOL     OW 6220   8.272   8.132   9.543 -0.1571 -0.0781  0.2526
  458SOL    HW1 6221   8.208   8.134   9.472  0.0678 -0.3036  0.0458
  458SOL    HW2 6222   8.235   8.070   9.606 -1.0000  1.0746  0.9455
  459SOL     OW 6223   2.720   1.185   0.425 -0.5267  0.1016  0.3953
  459SOL    HW1 6224   2.765   1.172   0.341 -0.6848 -0.8401  0.4468
  459SOL    HW2 6225   2.628   1.167   0.406 -0.4347 -1.0524  0.9696
  460SOL     OW 6226   9.622   0.287   0.773  0.3569 -0.8121  0.1013
  460SOL    HW1 6227   9.686   0.326   0.712 -0.0497  0.0952  0.2371
  460SOL    HW2 6228   9.668   0.286   0.857  0.0130  0.3561  0.3165
  461SOL     OW 6229   9.193   9.410   9.068  0.4898 -0.0342  0.2677
  461SOL    HW1 6230   9.274   9.360   9.077 -0.6271 -1.9648  0.0570
  461SOL    HW2 6231   9.123   9.345   9.072 -1.0303  1.4493 -0.5347
  462SOL     OW 6232   1.482   1.355   2.432 -0.1171  0.1845 -0.7594
  462SOL    HW1 6233   1.521   1.268   2.420  1.9140  1.0185 -0.5490
  462SOL    HW2 6234   1.554   1.416   2.422 -0.9188  1.7166  1.7733
  463SOL     OW 6235   0.756   1.446   0.333 -0.3484  0.1678 -0.6918
  463SOL    HW1 6236   0.720   1.413   0.416 -0.9552  1.2060 -0.5208
  463SOL    HW2 6237   0.729   1.538   0.330 -0.2063  0.1908 -1.9719
  464SOL     OW 6238   0.809   7.819   0.174  0.3160  0.1448  0.2239
  464SOL    HW1 6239   0.746   7.813   0.245  0.8357 -0.6788  0.6245
  464SOL    HW2 6240   0.769   7.881   0.112 -0.1944  0.7718  1.1556
  465SOL     OW 6241   0.887   0.399   2.223  0.1156 -0.4781 -0.2826
  465SOL    HW1 6242   0.866   0.484   2.262 -0.7567 -0.4537 -0.7763
  465SOL    HW2 6243   0.927   0.349   2.294  0.5795  0.3165  0.0302
  466SOL     OW 6244   9.131   0.970   2.026  0.6756  0.0683 -0.4583
  466SOL    HW1 6245   9.111   0.895   1.971 -0.8071  0.8569 -1.0723
  466SOL    HW2 6246   9.054   0.979   2.083  1.1831  0.6282  0.1556
  467SOL     OW 6247   0.822   9.735   1.770  0.5774  0.3035 -0.4569
  467SOL    HW1 6248   0.822   9.646   1.806 -1.2649  0.1056 -0.8353
  467SOL    HW2 6249   0.814   9.723   1.676 -1.5540  0.8320 -0.3928
  468SOL     OW 6250   0.928   1.629   1.572 -0.5052  0.5945 -0.0780
  468SOL    HW1 6251   1.002   1.690   1.571 -0.2273  0.2644 -0.8814
  468SOL    HW2 6252   0.968   1.543   1.584 -0.7296  0.3994 -0.6686
  469SOL     OW 6253   0.625   0.810   1.339  0.3258  0.4456 -0.1432
  469SOL    HW1 6254   0.574   0.891   1.341 -0.5835 -0.0077 -2.3361
  469SOL    HW2 6255   0.578   0.751   1.397 -0.2734  0.8025 -0.2555
  470SOL     OW 6256   2.870   9.339   1.687 -0.4051 -0.5229 -0.7076
  470SOL    HW1 6257   2.807   9.284   1.734 -0.2000 -0.7862 -0.7399
  470SOL    HW2 6258   2.867   9.423   1.734  0.2632 -0.9803  0.1885
  471SOL     OW 6259   8.967   0.933   9.267  0.0908  0.3930  0.0232
  471SOL    HW1 6260   8.938   0.897   9.183 -0.7237 -0.0964  0.4985
  471SOL    HW2 6261   8.979   1.026   9.250  2.7115 -0.0928 -1.3602
  472SOL     OW 6262   3.141   7.480   9.490  0.0251  0.0142 -0.3901
  472SOL    HW1 6263   3.132   7.385   9.492 -1.3588  0.1276  1.1209
  472SOL    HW2 6264   3.232   7.497   9.515 -0.0385 -0.8968  0.5232
  473SOL     OW 6265   9.206   8.349   2.048  0.5824 -0.1806 -0.0967
  473SOL    HW1 6266   9.244   8.307   2.126  0.4847 -0.4735 -0.2056
  473SOL    HW2 6267   9.112   8.338   2.058  0.5807 -0.4347 -0.3775
  474SOL     OW 6268   9.588   2.192   2.920 -0.2044 -0.4326  0.2544
  474SOL    HW1 6269   9.514   2.252   2.907  0.8170  0.5822 -1.0861
  474SOL    HW2 6270   9.554   2.126   2.981 -2.6328 -0.7137 -1.2622
  475SOL     OW 6271   0.813   1.384   1.155  0.2365  0.1469 -0.0679
  475SOL    HW1 6272   0.733   1.336   1.135  0.5244 -1.1574  1.6322
  475SOL    HW2 6273   0.874   1.317   1.185  0.9973  1.4250  1.4124
  476SOL     OW 6274   0.909   2.515   1.783 -0.1772 -0.5198  0.3035
  476SOL    HW1 6275   0.821   2.541   1.759 -0.8609 -1.6728  1.4047
  476SOL    HW2 6276   0.959   2.519   1.702 -1.1074  0.6169 -0.2332
  477SOL     OW 6277   0.441   7.302   1.558  0.9536 -0.2072  0.0058
  477SOL    HW1 6278   0.519   7.355   1.541  0.9547 -0.1020  0.3464
  477SOL    HW2 6279   0.432   7.299   1.653 -0.5332  1.3658 -0.0358
  478SOL     OW 6280   1.345   7.177   1.491 -0.3298 -0.4781  0.1725
  478SOL    HW1 6281   1.348   7.124   1.570  1.6705  1.4249  1.4749
  478SOL    HW2 6282   1.266   7.230   1.501 -0.3671 -0.6180  0.6457
  479SOL     OW 6283   9.788   3.142   0.068 -0.3852  0.1333  0.1216
  479SOL    HW1 6284   9.767   3.065   0.016 -1.3537  0.0747  0.5771
  479SOL    HW2 6285   9.874   3.124   0.105 -0.4666 -0.5840 -0.0382
  480SOL     OW 6286   1.804   8.048   9.806  0.0907 -0.5895  0.2863
  480SOL    HW1 6287   1.887   8.026   9.763 -0.1677  1.6964 -1.6228
  480SOL    HW2 6288   1.763   8.112   9.748 -2.9346 -1.4171  1.3040
  481SOL     OW 6289   3.071   8.753   1.507  0.1234  0.5382 -0.0498
  481SOL    HW1 6290   3.060   8.839   1.468  1.5260  0.2588 -1.1143
  481SOL    HW2 6291   3.063   8.692   1.433 -2.8908 -0.4660  0.9332
  482SOL     OW 6292   9.123   8.717   0.026 -0.3934 -0.1733 -0.3319
  482SOL    HW1 6293   9.158   8.749  -0.057 -1.4247 -0.4494 -0.8831
  482SOL    HW2 6294   9.080   8.793   0.065 -0.6351 -0.2513 -0.4459
  483SOL     OW 6295   0.849   8.360   2.511  0.1883 -0.0309  0.0104
  483SOL    HW1 6296   0.772   8.392   2.464 -0.0671 -0.3565  0.2028
  483SOL    HW2 6297   0.814   8.318   2.589  0.6358  0.7758  0.6536
  484SOL     OW 6298   8.031   8.776   9.131 -0.7320  0.0561 -0.2122
  484SOL    HW1 6299   8.124   8.793   9.114 -0.9822  0.7410 -0.9606
  484SOL    HW2 6300   8.031   8.702   9.192  0.3343  0.8813  0.8390
  485SOL     OW 6301   0.928   1.639   1.123  0.4130 -0.1975 -0.2969
  485SOL    HW1 6302   0.889   1.692   1.054 -2.7803  0.6359  1.8979
  485SOL    HW2 6303   0.874   1.560   1.126 -0.3007  0.3032  1.9168
  486SOL     OW 6304   1.523   0.819   8.930  0.1366  0.1447 -0.3767
  486SOL    HW1 6305   1.596   0.767   8.898  0.0431  1.1332 -2.3440
  486SOL    HW2 6306   1.553   0.853   9.015  0.8219 -1.6992  0.1511
  487SOL     OW 6307   8.663   1.738   2.047 -0.0055 -0.5066 -0.4783
  487SOL    HW1 6308   8.572   1.758   2.027 -0.0435  0.0925  0.2560
  487SOL    HW2 6309   8.700   1.821   2.075  1.4196 -0.1775 -3.0324
  488SOL     OW 6310   1.101   0.681   0.459 -0.1491  0.2152 -0.3457
  488SOL    HW1 6311   1.178   0.667   0.403 -0.7744  0.8522 -1.3879
  488SOL    HW2 6312   1.072   0.593   0.482  0.9359 -0.0377  0.1385
  489SOL     OW 6313   0.939   0.331   0.589  0.5265 -0.0845  0.1190
  489SOL    HW1 6314   0.861   0.309   0.538  0.6914 -1.1160  0.3024
  489SOL    HW2 6315   0.906   0.363   0.672  0.3002 -0.4820  0.1809
  490SOL     OW 6316   1.709   0.787   0.925  0.1214 -0.2916 -0.2658
  490SOL    HW1 6317   1.709   0.752   0.836 -0.2203  1.5327 -1.0260
  490SOL    HW2 6318   1.645   0.859   0.923  1.4152  0.9629  0.9483
  491SOL     OW 6319   1.567   1.642   1.585 -0.1594 -0.3278  0.7104
  491SOL    HW1 6320   1.491   1.589   1.608 -1.2438  0.6368 -0.4642
  491SOL    HW2 6321   1.594   1.683   1.667 -0.2868 -1.4583  1.3258
  492SOL     OW 6322   0.621   1.199   9.529  0.1918  0.8901  0.6985
  492SOL    HW1 6323   0.683   1.192   9.601  1.2139  0.0256 -0.2243
  492SOL    HW2 6324   0.617   1.110   9.493 -1.9652  0.7944  1.0205
  493SOL     OW 6325   0.970   1.980   3.843  0.0886  0.2484 -0.3296
  493SOL    HW1 6326   0.906   2.017   3.904 -0.2552  0.5265 -0.8543
  493SOL    HW2 6327   1.012   1.910   3.892 -1.2201 -0.5175 -0.2635
  494SOL     OW 6328   7.897   8.313   9.462  0.1511 -0.7612  0.4692
  494SOL    HW1 6329   7.913   8.400   9.426 -4.0053  0.5416  1.3153
  494SOL    HW2 6330   7.950   8.255   9.406  3.1888  2.1548 -0.0504
  495SOL     OW 6331   0.466   2.108   1.610  0.0749 -0.4108  0.0020
  495SOL    HW1 6332   0.543   2.085   1.559  1.8569 -2.3469  3.2180
  495SOL    HW2 6333   0.483   2.072   1.697 -3.3767  1.3005  1.6003
  496SOL     OW 6334   1.094   1.939   2.532  0.3411  0.2716  0.0098
  496SOL    HW1 6335   1.097   2.035   2.526  0.4656  0.2160 -4.4449
  496SOL    HW2 6336   1.158   1.917   2.599  0.4867  3.2504  1.0226
  497SOL     OW 6337   9.580   2.459   3.064  0.0976 -0.0007  0.3002
  497SOL    HW1 6338   9.513   2.429   3.126  0.7648 -0.7506  0.6773
  497SOL    HW2 6339   9.608   2.544   3.098 -0.7813  0.4054  0.0384
  498SOL     OW 6340   1.349   0.676   9.829  0.3585 -0.5063 -0.5615
  498SOL    HW1 6341   1.403   0.685   9.750  2.0106  0.6461  0.6348
  498SOL    HW2 6342   1.260   0.666   9.796  1.1448 -1.3186 -2.5898
  499SOL     OW 6343   9.852   0.829   1.011  0.1076 -0.2388  0.2915
  499SOL    HW1 6344   9.879   0.920   1.005 -1.8841  0.3580 -0.2928
  499SOL    HW2 6345   9.782   0.829   1.077 -2.9969 -0.4643 -2.7443
  500SOL     OW 6346   1.396   1.030   1.215 -0.0758  0.4165  0.6747
  500SOL    HW1 6347   1.453   0.956   1.237  1.6152  1.5095  0.1583
  500SOL    HW2 6348   1.308   0.998   1.233  0.4564 -2.2011 -0.7189
  501SOL     OW 6349   1.259   1.730   3.553 -0.1004  0.5489  0.0799
  501SOL    HW1 6350   1.200   1.791   3.508  2.4560  1.4508 -2.2786
  501SOL    HW2 6351   1.283   1.776   3.633 -0.1870  1.5373 -0.4445
  502SOL     OW 6352   2.274   0.062   8.269  0.2477  0.5340 -0.5105
  502SOL    HW1 6353   2.271   0.118   8.192 -1.0045  0.9501 -0.1845
  502SOL    HW2 6354   2.199   0.004   8.259  0.9276 -0.3974 -0.3201
  503SOL     OW 6355   0.600   1.330   0.979 -0.0272 -0.2454  0.0027
  503SOL    HW1 6356   0.595   1.423   0.954  0.3224 -0.3257 -0.3784
  503SOL    HW2 6357   0.509   1.301   0.982 -0.1273  0.0555 -0.0978
  504SOL     OW 6358   0.778   8.757   0.472  0.2047 -0.1943 -0.1376
  504SOL    HW1 6359   0.837   8.824   0.438  0.4942 -0.4269 -0.0957
  504SOL    HW2 6360   0.827   8.714   0.541  0.4460 -1.1758 -0.8876
  505SOL     OW 6361   0.063   0.431   1.978  0.2316  0.0776 -0.3417
  505SOL    HW1 6362   0.040   0.473   1.895 -1.4475  1.4651  0.7413
  505SOL    HW2 6363  -0.020   0.393   2.009  0.8288 -0.4185  0.6955
  506SOL     OW 6364   9.490   0.382   3.104  0.4218  0.2522 -0.3616
  506SOL    HW1 6365   9.563   0.394   3.166  0.8640  0.0922 -0.8492
  506SOL    HW2 6366   9.513   0.304   3.054 -0.6087 -0.4272  0.1990
  507SOL     OW 6367   2.417   2.038   1.076 -0.2809 -0.3553 -0.2068
  507SOL    HW1 6368   2.484   1.999   1.132  0.5869  0.3445 -0.7266
  507SOL    HW2 6369   2.383   1.965   1.026  0.3669 -0.6683 -0.2055
  508SOL     OW 6370   2.372   9.823   9.031  0.1194  0.0568 -0.4469
  508SOL    HW1 6371   2.317   9.817   9.109  0.1602  2.6513 -0.1334
  508SOL    HW2 6372   2.319   9.786   8.961 -1.0113  0.1593  0.3364
  509SOL     OW 6373   9.708   1.892   0.627  0.7075  0.4653  0.1122
  509SOL    HW1 6374   9.719   1.835   0.704 -0.0191  1.3546  0.9135
  509SOL    HW2 6375   9.718   1.833   0.552 -2.7339 -1.3836  0.8598
  510SOL     OW 6376   1.714   9.152   1.724  0.5265  0.1810 -0.2910
  510SOL    HW1 6377   1.745   9.176   1.637 -0.9253 -0.8512 -1.1332
  510SOL    HW2 6378   1.675   9.232   1.759 -0.9722  0.0267 -1.5583
  511SOL     OW 6379   8.845   1.471   0.692 -0.0728  0.2965 -0.0468
  511SOL    HW1 6380   8.831   1.559   0.728 -0.5258 -0.2605  1.1844
  511SOL    HW2 6381   8.780   1.462   0.623 -1.9882 -0.0915  1.7090
  512SOL     OW 6382   0.244   7.666   0.608 -0.1421  0.3173 -0.2761
  512SOL    HW1 6383   0.255   7.751   0.567 -0.3611  1.2126  1.4354
  512SOL    HW2 6384   0.333   7.635   0.625  0.0079  1.8056  2.1443
  513SOL     OW 6385   0.402   1.497   0.638 -0.1658 -0.0971 -0.5330
  513SOL    HW1 6386   0.396   1.418   0.584 -0.4386 -0.0582 -0.5592
  513SOL    HW2 6387   0.329   1.552   0.609  1.1469  1.0186 -1.8833
  514SOL     OW 6388   0.970   0.869   1.623 -0.1050  0.4074  0.6889
  514SOL    HW1 6389   0.876   0.889   1.619 -0.0531  0.5915  0.4152
  514SOL    HW2 6390   1.012   0.952   1.647  0.1366  0.7227 -0.7405
  515SOL     OW 6391   2.224   1.055   1.387  0.1065 -0.4249  0.2332
  515SOL    HW1 6392   2.179   0.998   1.449 -0.4262 -0.2273  0.0359
  515SOL    HW2 6393   2.307   1.009   1.368 -0.3993 -1.2333 -0.0761
  516SOL     OW 6394   1.296   9.423   1.194 -0.0494  0.5607 -0.0705
  516SOL    HW1 6395   1.344   9.416   1.276  0.3218  1.4542 -0.2036
  516SOL    HW2 6396   1.217   9.472   1.216  0.4014  1.4470 -0.3791
  517SOL     OW 6397   2.320   8.989   8.951 -0.2897  0.2876  0.0627
  517SOL    HW1 6398   2.259   9.047   8.906  0.1927  1.5402  0.9622
  517SOL    HW2 6399   2.311   8.905   8.907 -2.7811  0.3869  0.2633
  518SOL     OW 6400   9.457   1.245   9.745 -0.6502  0.0435 -0.1011
  518SOL    HW1 6401   9.496   1.157   9.744 -0.1881  0.1900  1.5605
  518SOL    HW2 6402   9.481   1.280   9.831 -3.9511  0.3930  0.7908
  519SOL     OW 6403   0.939   2.258   0.882 -0.0279 -0.0310  0.4887
  519SOL    HW1 6404   0.918   2.186   0.941 -2.6065  1.0803  1.0425
  519SOL    HW2 6405   0.888   2.332   0.915  0.8163  1.4617 -1.3643
  520SOL     OW 6406   0.761   2.554   1.522  0.1856  0.4887 -0.4076
  520SOL    HW1 6407   0.831   2.492   1.502 -1.3946 -1.9108  1.1301
  520SOL    HW2 6408   0.727   2.580   1.436 -0.1159 -2.0291 -1.1099
  521SOL     OW 6409   2.341   1.548   2.336 -0.3206 -0.2247  0.2650
  521SOL    HW1 6410   2.379   1.536   2.249 -0.6865 -1.7435  0.2881
  521SOL    HW2 6411   2.417   1.557   2.394 -0.0709  0.3457 -0.1387
  522SOL     OW 6412   2.259   7.305   1.446 -0.1709 -0.0096  0.5065
  522SOL    HW1 6413   2.191   7.372   1.439 -0.0934  0.2402  1.8125
  522SOL    HW2 6414   2.328   7.335   1.387 -0.2432  0.9579  0.8830
  523SOL     OW 6415   9.262   1.361   0.068  0.2683 -0.4863 -0.1675
  523SOL    HW1 6416   9.355   1.357   0.089  0.9137  0.0893 -2.6097
  523SOL    HW2 6417   9.241   1.275   0.031  0.5157  0.1895 -1.9783
  524SOL     OW 6418   1.931   2.040   9.405 -0.1810 -0.1511 -0.4108
  524SOL    HW1 6419   1.862   2.104   9.421  0.5968  0.6608 -0.2329
  524SOL    HW2 6420   1.912   2.007   9.317 -1.2353 -0.5251 -0.0672
  525SOL     OW 6421   1.159   0.399   0.291 -0.2667 -0.1408 -0.0518
  525SOL    HW1 6422   1.104   0.373   0.217  0.5264 -1.5543 -0.1762
  525SOL    HW2 6423   1.244   0.420   0.252 -0.6137  1.8593  0.1612
  526SOL     OW 6424   1.489   2.158   1.606 -0.3553 -0.0019  0.3289
  526SOL    HW1 6425   1.537   2.126   1.682  2.4037  3.1935  0.1681
  526SOL    HW2 6426   1.402   2.180   1.639 -0.1341 -1.3069  1.8603
  527SOL     OW 6427   0.248   2.051   0.676  0.6813 -0.7149 -0.0733
  527SOL    HW1 6428   0.310   2.073   0.745 -0.3711  0.2356  0.6079
  527SOL    HW2 6429   0.300   2.004   0.611  2.5855  1.7826 -0.5131
  528SOL     OW 6430   1.810   2.080   1.029 -0.6688  0.1107  0.0533
  528SOL    HW1 6431   1.810   2.174   1.014 -1.8017  0.3956  1.5582
  528SOL    HW2 6432   1.760   2.044   0.956  0.2223  0.5967 -0.8199
  529SOL     OW 6433   0.181   0.560   9.577  0.4395 -0.2354 -0.5273
  529SOL    HW1 6434   0.186   0.518   9.663 -0.3936 -1.2208 -0.9386
  529SOL    HW2 6435   0.270   0.553   9.543  0.3171 -1.8333 -0.6324
  530SOL     OW 6436   3.158   8.948   1.078  0.7152  0.1002  0.0835
  530SOL    HW1 6437   3.075   8.934   1.123  1.6902  1.4282  2.5168
  530SOL    HW2 6438   3.170   9.043   1.080  1.4345  0.0996 -1.9538
  531SOL     OW 6439   9.726   1.717   2.521  0.2896 -0.1392 -0.1596
  531SOL    HW1 6440   9.719   1.675   2.435 -2.8322  0.1411 -0.1350
  531SOL    HW2 6441   9.677   1.660   2.580  0.6529  0.7301  1.0162
  532SOL     OW 6442   0.374   1.789   1.928 -0.0457  0.1996  0.5504
  532SOL    HW1 6443   0.448   1.732   1.906  1.2533  1.5358  1.2642
  532SOL    HW2 6444   0.362   1.843   1.850 -1.5440 -1.2534 -0.2831
  533SOL     OW 6445   0.379   9.647   0.002  0.9135 -0.3829  0.3311
  533SOL    HW1 6446   0.396   9.637   0.095 -2.2327 -1.1563  0.9394
  533SOL    HW2 6447   0.341   9.563  -0.025 -1.0347  0.8074 -0.8839
  534SOL     OW 6448   0.262   2.524   0.250  0.0381 -0.3661 -0.4674
  534SOL    HW1 6449   0.167   2.524   0.251  0.0258 -1.7157  0.9379
  534SOL    HW2 6450   0.285   2.497   0.161 -0.8574  0.4954 -0.9783
  535SOL     OW 6451   1.653   0.251   1.760 -0.1724 -0.0269  0.2937
  535SOL    HW1 6452   1.632   0.279   1.671 -2.1888  0.0114  0.7305
  535SOL    HW2 6453   1.691   0.328   1.802  0.2972  0.1067 -0.3687
  536SOL     OW 6454   1.595   1.703   2.387 -0.5614 -0.1553  0.2544
  536SOL    HW1 6455   1.601   1.761   2.463 -1.2034 -1.2279  1.1746
  536SOL    HW2 6456   1.660   1.635   2.404 -0.7853 -0.4628 -0.0978
  537SOL     OW 6457   2.244   0.523   0.922 -0.2977  0.1825 -0.1561
  537SOL    HW1 6458   2.310   0.593   0.928  1.0865 -1.1638  1.2345
  537SOL    HW2 6459   2.272   0.471   0.847 -0.5619  0.3478 -0.3727
  538SOL     OW 6460   1.368   1.272   4.525  0.4814 -0.2288  0.3803
  538SOL    HW1 6461   1.347   1.179   4.514 -1.7143  0.1637  0.6964
  538SOL    HW2 6462   1.294   1.317   4.484  1.3637  1.3729  0.5091
  539SOL     OW 6463   7.101   2.866   7.820 -0.1693  0.3982  0.3869
  539SOL    HW1 6464   7.043   2.829   7.886  3.3084  0.7838  4.0186
  539SOL    HW2 6465   7.142   2.791   7.777 -0.6473  0.1409  0.3785
  540SOL     OW 6466   1.148   2.508   0.931  0.4330  0.0302 -0.2783
  540SOL    HW1 6467   1.088   2.569   0.887  1.6919  2.0556  0.6524
  540SOL    HW2 6468   1.105   2.423   0.924 -2.2602  1.2642 -0.1718
  541SOL     OW 6469   1.578   2.271   0.751  0.6337  0.0652 -0.0394
  541SOL    HW1 6470   1.490   2.272   0.712  0.8678 -0.8161 -0.6145
  541SOL    HW2 6471   1.585   2.185   0.792  1.0199  0.3544  0.5026
  542SOL     OW 6472   1.908   9.125   9.558  0.3401  0.0294  0.3736
  542SOL    HW1 6473   1.924   9.212   9.593 -0.9887  0.1770  0.6783
  542SOL    HW2 6474   1.813   9.122   9.542  0.6562 -0.6223 -1.6504
  543SOL     OW 6475   2.701   2.270   9.479 -0.6304  0.2194  0.2592
  543SOL    HW1 6476   2.675   2.319   9.401  0.8215  1.4780  0.4996
  543SOL    HW2 6477   2.621   2.259   9.529 -1.2400  1.2031 -0.4602
  544SOL     OW 6478   9.260   1.828   4.465  0.3152 -0.3914  0.1887
  544SOL    HW1 6479   9.206   1.819   4.544 -0.6107 -1.7530 -0.5494
  544SOL    HW2 6480   9.311   1.748   4.462  1.1852  0.1615 -0.0091
  545SOL     OW 6481   0.761   1.454   2.047 -0.2759 -0.1477  0.5456
  545SOL    HW1 6482   0.854   1.466   2.029 -0.4607 -1.6822 -1.8049
  545SOL    HW2 6483   0.750   1.359   2.053 -1.6857  0.0164  0.8679
  546SOL     OW 6484   1.545   2.208   0.413  0.0070  0.1589  0.1227
  546SOL    HW1 6485   1.605   2.273   0.451  0.1632  0.4187 -0.5559
  546SOL    HW2 6486   1.501   2.169   0.489  1.5162 -0.5277  0.6792
  547SOL     OW 6487   0.970   1.735   2.386  0.1372  0.3240  0.3457
  547SOL    HW1 6488   1.029   1.685   2.329  0.3497 -1.9605  2.4171
  547SOL    HW2 6489   1.028   1.777   2.450 -0.3538 -1.0332  1.7257
  548SOL     OW 6490   0.462   2.559   3.320 -0.3595 -0.6688  0.2012
  548SOL    HW1 6491   0.502   2.509   3.249  2.4854  0.7912  0.6404
  548SOL    HW2 6492   0.424   2.493   3.378 -0.1425 -2.0378 -1.1548
  549SOL     OW 6493   1.189   1.021   1.750 -0.2525 -0.1477 -0.0595
  549SOL    HW1 6494   1.274   0.984   1.724 -0.0244  1.9879 -2.8216
  549SOL    HW2 6495   1.211   1.105   1.791 -1.0012 -0.2217  0.5170
  550SOL     OW 6496   0.514   1.656   8.644 -0.5895  0.1325  0.0803
  550SOL    HW1 6497   0.462   1.576   8.645  0.8154 -0.8375 -0.9395
  550SOL    HW2 6498   0.470   1.714   8.707 -1.1708 -1.7201  1.4555
  551SOL     OW 6499   1.268   1.799   9.513 -0.4529  0.0856  0.0947
  551SOL    HW1 6500   1.210   1.755   9.452  0.1122 -0.4859 -0.0342
  551SOL    HW2 6501   1.263   1.892   9.488 -1.9680  0.1796  0.6384
  552SOL     OW 6502   8.617   1.413   4.332  0.9882  0.0604 -0.6036
  552SOL    HW1 6503   8.691   1.441   4.386 -0.9086  2.0429  1.1902
  552SOL    HW2 6504   8.606   1.483   4.268  0.9515 -0.4658 -1.1771
  553SOL     OW 6505   9.627   7.964   9.621  0.5066  0.0987 -0.1355
  553SOL    HW1 6506   9.551   7.949   9.676  0.2019 -0.4626 -0.6906
  553SOL    HW2 6507   9.661   8.048   9.649  2.3306 -1.5534  3.2063
  554SOL     OW 6508   1.300   9.338   1.586  0.4060  0.1840 -0.2148
  554SOL    HW1 6509   1.205   9.333   1.598  0.4513 -0.2784 -0.0428
  554SOL    HW2 6510   1.325   9.251   1.556  0.9713 -0.1194  1.1097
  555SOL     OW 6511   0.822   9.601   2.801  0.0033  0.2460 -0.1857
  555SOL    HW1 6512   0.774   9.618   2.882  0.8370  0.4223  0.2914
  555SOL    HW2 6513   0.843   9.689   2.767  3.9961  0.4431  2.0847
  556SOL     OW 6514   3.201   2.789   1.227  0.3837  0.0685  0.1611
  556SOL    HW1 6515   3.217   2.694   1.223  0.7546  0.1159  0.4588
  556SOL    HW2 6516   3.224   2.821   1.140  3.5283  0.3659  0.9941
  557SOL     OW 6517   3.640   4.808   4.081 -0.5277  0.6397  0.1161
  557SOL    HW1 6518   3.668   4.803   4.173 -1.9062 -0.1201  0.5237
  557SOL    HW2 6519   3.714   4.774   4.032 -0.4541 -0.7595  1.1125
  558SOL     OW 6520   8.392   9.229   2.085  0.1955  0.2828 -0.5899
  558SOL    HW1 6521   8.341   9.248   2.164 -1.2191 -1.2917 -1.0541
  558SOL    HW2 6522   8.346   9.276   2.015  2.5289  3.2596 -0.3100
  559SOL     OW 6523   0.057   1.618   3.149 -0.0118 -0.3218  0.1032
  559SOL    HW1 6524   0.004   1.539   3.142 -0.1891 -0.7219  3.8157
  559SOL    HW2 6525  -0.001   1.688   3.118 -0.7596 -1.3460 -0.8959
  560SOL     OW 6526   1.892   9.374   9.665  0.1771  0.6925 -0.1491
  560SOL    HW1 6527   1.872   9.390   9.757 -2.6572 -0.2614 -0.5064
  560SOL    HW2 6528   1.850   9.446   9.619  1.5120  1.1201 -0.7545
  561SOL     OW 6529   0.060   1.651   1.167  0.2617 -0.1216 -0.7938
  561SOL    HW1 6530   0.079   1.584   1.233 -0.3712 -1.2411 -1.7197
  561SOL    HW2 6531  -0.006   1.707   1.208  0.4803 -0.3018 -0.1800
  562SOL     OW 6532   0.123   7.960   4.216  0.5812  0.2093  0.4328
  562SOL    HW1 6533   0.120   7.964   4.312 -2.4787 -0.3300  0.4647
  562SOL    HW2 6534   0.119   8.052   4.188 -0.1211  0.3224  0.8661
  563SOL     OW 6535   0.238   1.885   2.188 -0.3642  0.2864  0.3589
  563SOL    HW1 6536   0.277   1.798   2.188  0.0390  0.4461 -0.8933
  563SOL    HW2 6537   0.193   1.891   2.272  0.4633 -0.7375  0.9000
  564SOL     OW 6538   3.242   8.556   2.112  0.2469  0.2202 -0.0464
  564SOL    HW1 6539   3.293   8.585   2.036 -0.3985  0.0410 -0.5489
  564SOL    HW2 6540   3.307   8.515   2.170  0.8655  1.0174 -0.1564
  565SOL     OW 6541   0.461   2.014   9.616 -0.4947 -0.0420  0.2211
  565SOL    HW1 6542   0.405   2.049   9.546  2.0826  2.3664 -0.8319
  565SOL    HW2 6543   0.503   1.937   9.577 -1.6357 -0.7746  0.3914
  566SOL     OW 6544   3.772   1.337   9.809 -0.1736  0.0637 -0.0738
  566SOL    HW1 6545   3.740   1.395   9.878 -2.4381 -0.1776 -0.8460
  566SOL    HW2 6546   3.757   1.249   9.844 -1.1208 -0.0554 -0.7518
  567SOL     OW 6547   0.627   2.857   1.354  0.2527  0.1382 -0.3443
  567SOL    HW1 6548   0.560   2.801   1.316 -0.7577  0.5997  0.6898
  567SOL    HW2 6549   0.709   2.812   1.336 -0.6024 -2.8143  2.1780
  568SOL     OW 6550   0.708   1.678   2.199 -0.2553 -0.2751  0.2284
  568SOL    HW1 6551   0.785   1.674   2.255  0.5677  2.7260 -0.4709
  568SOL    HW2 6552   0.709   1.595   2.150  2.1288 -0.6316  0.7553
  569SOL     OW 6553   0.431   9.511   2.984  0.0524  0.4890 -0.1874
  569SOL    HW1 6554   0.391   9.433   3.022  0.6556  0.1166 -0.3162
  569SOL    HW2 6555   0.376   9.583   3.015 -0.7531 -0.0177 -0.4049
  570SOL     OW 6556   9.094   1.672   0.786  0.0565  0.2223 -0.1112
  570SOL    HW1 6557   9.091   1.666   0.691  1.4864 -1.5927 -0.0984
  570SOL    HW2 6558   9.116   1.583   0.815  0.6596  0.9561  1.8579
  571SOL     OW 6559   0.465   1.419   1.743 -0.5543 -0.4369  0.2295
  571SOL    HW1 6560   0.528   1.347   1.746  0.5104  0.4984  0.8353
  571SOL    HW2 6561   0.512   1.494   1.779 -2.0280  0.2779  0.7314
  572SOL     OW 6562   8.598   9.103   1.297 -0.2483 -0.8016  0.2182
  572SOL    HW1 6563   8.662   9.169   1.320  0.1419 -0.5504 -1.4785
  572SOL    HW2 6564   8.513   9.147   1.306  0.0321  0.2423 -1.6684
  573SOL     OW 6565   8.805   0.352   1.648 -0.2555  0.4412 -0.1236
  573SOL    HW1 6566   8.709   0.354   1.650 -0.2578  2.4090  0.1954
  573SOL    HW2 6567   8.826   0.346   1.555 -0.6874  0.2681 -0.2132
  574SOL     OW 6568   1.388   0.677   0.611 -0.4136  0.1568  0.2115
  574SOL    HW1 6569   1.415   0.697   0.522 -1.0786  0.7578  0.1396
  574SOL    HW2 6570   1.470   0.666   0.659 -0.0385  1.2342 -0.1611
  575SOL     OW 6571   1.188   0.354   9.175 -0.2624  0.1262  0.3290
  575SOL    HW1 6572   1.243   0.279   9.199 -1.2934 -0.9696 -0.6295
  575SOL    HW2 6573   1.245   0.408   9.120  0.3745 -0.1143  0.7318
  576SOL     OW 6574   9.209   2.941   1.587 -0.1271 -0.6532 -0.4924
  576SOL    HW1 6575   9.279   2.886   1.552 -1.0787 -2.0113 -0.3568
  576SOL    HW2 6576   9.206   3.017   1.529  2.1187 -0.0329  0.1159
  577SOL     OW 6577   1.791   0.630   1.320  0.5515 -0.2153  0.2913
  577SOL    HW1 6578   1.871   0.639   1.371 -0.0096 -1.2709  1.4191
  577SOL    HW2 6579   1.805   0.550   1.268  0.2636 -0.3775  0.4583
  578SOL     OW 6580   0.626   0.148   0.767 -0.7051 -0.1194 -0.1480
  578SOL    HW1 6581   0.681   0.172   0.842 -1.1119 -0.2566  0.1981
  578SOL    HW2 6582   0.541   0.127   0.806 -1.1820  0.6933 -0.7403
  579SOL     OW 6583   2.340   1.865   8.611  0.1123  0.4221  0.3306
  579SOL    HW1 6584   2.294   1.899   8.688 -2.2216  0.2286 -0.8992
  579SOL    HW2 6585   2.368   1.943   8.563 -0.3674  0.5772  0.2955
  580SOL     OW 6586   8.518   2.237   2.144  0.0626 -0.8897  0.1639
  580SOL    HW1 6587   8.511   2.260   2.236  0.7870  1.7442 -0.3520
  580SOL    HW2 6588   8.597   2.183   2.138  0.5327 -0.2921  0.9441
  581SOL     OW 6589   0.964   6.589   0.463 -0.0127 -0.1473  0.6364
  581SOL    HW1 6590   0.909   6.664   0.444 -1.9171 -2.0260 -1.9671
  581SOL    HW2 6591   0.914   6.536   0.524 -0.0598 -0.7038  0.1339
  582SOL     OW 6592   9.632   3.115   1.167  0.0593  0.5419  0.3000
  582SOL    HW1 6593   9.541   3.112   1.198  0.2694  0.3700  0.9041
  582SOL    HW2 6594   9.673   3.184   1.220 -0.1119  1.7289 -1.0492
  583SOL     OW 6595   1.082   0.558   0.734 -0.2550 -0.3369  0.3114
  583SOL    HW1 6596   1.124   0.486   0.781  2.1598  0.9980  0.3811
  583SOL    HW2 6597   0.993   0.527   0.716 -0.0235 -2.4129  2.2968
  584SOL     OW 6598   0.058   1.087   0.957  0.3767  0.1927  0.0642
  584SOL    HW1 6599   0.059   1.173   0.913  0.0161  1.3436  2.1791
  584SOL    HW2 6600   0.144   1.080   0.998  0.4748 -0.5773 -0.2546
  585SOL     OW 6601   8.008   9.269   1.762  0.1882  0.0514 -0.1662
  585SOL    HW1 6602   7.914   9.287   1.762  0.2449  0.3447  0.3002
  585SOL    HW2 6603   8.036   9.289   1.673 -0.3845 -1.0859 -0.6315
  586SOL     OW 6604   0.866   8.655   0.176  0.0588 -0.4568 -0.9524
  586SOL    HW1 6605   0.823   8.610   0.249 -0.9878 -0.4051 -1.5237
  586SOL    HW2 6606   0.798   8.664   0.110  1.1126 -0.9110 -2.1357
  587SOL     OW 6607   1.014   2.190   0.291  0.6910  0.0505 -0.1112
  587SOL    HW1 6608   0.980   2.207   0.203  0.3297 -1.3022 -0.2569
  587SOL    HW2 6609   0.967   2.251   0.348 -2.4492 -2.0151 -0.2195
  588SOL     OW 6610   0.591   0.188   1.717 -0.2324 -0.3711  0.2097
  588SOL    HW1 6611   0.595   0.148   1.630 -0.1010  0.7453 -0.3104
  588SOL    HW2 6612   0.531   0.262   1.706 -1.2829 -1.0146  1.4072
  589SOL     OW 6613   1.904   0.429   1.609  0.0444  0.3372  0.2416
  589SOL    HW1 6614   1.953   0.476   1.541 -0.4009 -0.7319 -0.8456
  589SOL    HW2 6615   1.819   0.411   1.570  0.3299 -1.7129  0.4531
  590SOL     OW 6616   2.419   3.058   8.592 -0.0319  0.4427  0.0698
  590SOL    HW1 6617   2.400   2.970   8.624 -2.7094  1.1853  0.7874
  590SOL    HW2 6618   2.390   3.057   8.501  0.9746  0.3130 -0.2656
  591SOL     OW 6619   0.132   0.116   0.625  0.1737 -0.2844 -0.4281
  591SOL    HW1 6620   0.125   0.202   0.666  1.8532  0.4004 -1.4673
  591SOL    HW2 6621   0.102   0.131   0.535  0.2240 -0.8444 -0.5387
  592SOL     OW 6622   1.177   7.302   1.156 -0.2597 -0.1264  0.3101
  592SOL    HW1 6623   1.200   7.354   1.233  0.9358 -1.5121  0.9473
  592SOL    HW2 6624   1.262   7.275   1.120 -0.8320 -1.5991 -0.0016
  593SOL     OW 6625   3.005   0.232   0.990 -0.1935 -0.3724 -0.5068
  593SOL    HW1 6626   3.026   0.139   0.991  2.3222  0.1234 -0.9763
  593SOL    HW2 6627   2.949   0.245   1.067  0.3698 -2.0735  0.2225
  594SOL     OW 6628   3.915   8.501   2.719  0.2677  0.8265  0.7972
  594SOL    HW1 6629   3.922   8.592   2.689 -2.0527  0.6070 -0.6861
  594SOL    HW2 6630   3.855   8.504   2.793  0.4478  0.5431  0.9563
  595SOL     OW 6631   2.421   6.312   0.607 -0.1345 -0.7421 -0.0530
  595SOL    HW1 6632   2.341   6.343   0.649 -0.2108 -0.3772 -0.4623
  595SOL    HW2 6633   2.475   6.390   0.596  0.8384 -1.1726  1.3889
  596SOL     OW 6634   8.948   0.936   0.635 -0.5024 -0.4031 -0.4427
  596SOL    HW1 6635   8.989   0.957   0.551 -2.1193  0.0888 -1.1642
  596SOL    HW2 6636   8.854   0.953   0.620 -0.7877  0.0387  1.5688
  597SOL     OW 6637   0.334   8.889   3.771  0.4318 -0.6034  0.6356
  597SOL    HW1 6638   0.383   8.825   3.719  1.6776  0.3282  0.6198
  597SOL    HW2 6639   0.266   8.921   3.711  0.3667 -1.2432  0.3544
  598SOL     OW 6640   0.636   0.146   2.181  0.1474  1.0594  0.3405
  598SOL    HW1 6641   0.607   0.110   2.097 -0.9521  1.2872  0.6065
  598SOL    HW2 6642   0.682   0.227   2.158  0.5927  0.6884 -0.0955
  599SOL     OW 6643   8.922   1.023   2.202 -0.4809 -0.1585 -0.8989
  599SOL    HW1 6644   8.916   1.097   2.262  0.4367 -1.1505  0.4817
  599SOL    HW2 6645   8.836   0.982   2.206 -0.3404 -0.3866 -0.0082
  600SOL     OW 6646   0.411   2.669   2.855  0.2263 -0.7124  0.0701
  600SOL    HW1 6647   0.409   2.583   2.812  0.2348 -0.5098 -0.3459
  600SOL    HW2 6648   0.340   2.718   2.813  1.1102 -0.0575 -0.6918
  601SOL     OW 6649   0.302   2.573   4.708  0.1012 -0.1945  0.3916
  601SOL    HW1 6650   0.261   2.538   4.629  1.6812  1.1827 -1.1462
  601SOL    HW2 6651   0.295   2.668   4.698  3.1887  0.1001  0.2223
  602SOL     OW 6652   0.484   0.392   1.305 -0.1337 -0.1548 -0.2769
  602SOL    HW1 6653   0.469   0.407   1.398 -2.5746 -1.0082 -0.4572
  602SOL    HW2 6654   0.465   0.299   1.292 -1.8254  0.3642 -1.9427
  603SOL     OW 6655   9.720   0.156   2.681 -0.3026 -0.1778  0.2713
  603SOL    HW1 6656   9.724   0.102   2.760  0.2225  0.2454  0.5436
  603SOL    HW2 6657   9.688   0.097   2.613 -0.1303 -0.7217  0.6547
  604SOL     OW 6658   9.454   2.447   3.782  0.3403  0.5510  0.7000
  604SOL    HW1 6659   9.451   2.352   3.781  1.1561  0.5230 -0.4904
  604SOL    HW2 6660   9.459   2.470   3.875  1.2493 -0.6013  0.9583
  605SOL     OW 6661   0.721   0.509   2.787  0.0322 -0.3043  0.4962
  605SOL    HW1 6662   0.792   0.448   2.767  0.9871  0.5075  1.3179
  605SOL    HW2 6663   0.702   0.493   2.880 -0.4782 -0.1185  0.4246
  606SOL     OW 6664   1.076   1.342   2.879 -0.3180  0.1113 -0.1394
  606SOL    HW1 6665   1.136   1.330   2.805 -1.0673 -0.8151 -0.6132
  606SOL    HW2 6666   1.110   1.419   2.924 -0.0566  0.9155 -1.6495
  607SOL     OW 6667   3.157   3.126   3.066  0.1616  0.2650 -0.2585
  607SOL    HW1 6668   3.219   3.180   3.016 -0.0536  0.9553  0.2075
  607SOL    HW2 6669   3.198   3.039   3.069  2.1990  1.1886  1.8530
  608SOL     OW 6670   1.440   9.521   2.836 -0.5939 -0.4098  0.2078
  608SOL    HW1 6671   1.449   9.494   2.927 -0.1500  0.1779  0.3460
  608SOL    HW2 6672   1.516   9.578   2.820 -0.6198 -0.5728 -0.5503
  609SOL     OW 6673   2.265   1.463   3.674  0.5118 -0.1766  0.0595
  609SOL    HW1 6674   2.283   1.541   3.727  0.3793 -0.0708 -0.0477
  609SOL    HW2 6675   2.196   1.492   3.613  0.9713 -0.1636 -0.4601
  610SOL     OW 6676   0.621   1.626   1.876 -0.5590  0.0957  0.0862
  610SOL    HW1 6677   0.674   1.552   1.904 -0.7316 -0.8333 -1.8783
  610SOL    HW2 6678   0.684   1.694   1.856 -0.0507 -0.9357 -2.0451
  611SOL     OW 6679   0.796   1.638   3.837  0.0222  0.1413 -0.1351
  611SOL    HW1 6680   0.803   1.602   3.925 -0.9143 -0.6761 -0.3806
  611SOL    HW2 6681   0.719   1.695   3.840  1.3375  2.0124  0.1833
  612SOL     OW 6682   1.057   2.814   3.337  0.6380  0.3837  0.4298
  612SOL    HW1 6683   1.017   2.740   3.292  1.8495 -0.2276  0.3445
  612SOL    HW2 6684   0.984   2.875   3.351 -0.3519 -0.7537  0.4031
  613SOL     OW 6685   0.845   1.446   4.074  0.6669 -0.2537 -0.2553
  613SOL    HW1 6686   0.850   1.361   4.031 -3.6485  0.0604 -1.9103
  613SOL    HW2 6687   0.757   1.448   4.112  0.5469  3.4626 -0.3365
  614SOL     OW 6688   1.364   9.091   1.489 -0.1955 -0.1177  0.0458
  614SOL    HW1 6689   1.271   9.104   1.472 -0.2713  0.3281  0.8083
  614SOL    HW2 6690   1.378   8.998   1.470 -0.7305 -0.1244 -0.3524
  615SOL     OW 6691   1.400   8.613   1.664 -0.0795  0.2135 -0.6600
  615SOL    HW1 6692   1.468   8.590   1.600  0.1086 -1.3696  0.0815
  615SOL    HW2 6693   1.342   8.537   1.665 -0.8274  0.7886  0.0777
  616SOL     OW 6694   9.239   9.087   1.895  0.2686  0.0043  0.3517
  616SOL    HW1 6695   9.239   9.045   1.809 -0.4082 -0.5328  0.5994
  616SOL    HW2 6696   9.286   9.169   1.883  1.2895 -0.6489 -0.2401
  617SOL     OW 6697   0.459   8.265   3.538  0.0507 -0.7983 -0.7097
  617SOL    HW1 6698   0.387   8.328   3.538 -0.1879 -1.0100  0.9064
  617SOL    HW2 6699   0.531   8.311   3.580 -0.1963 -1.6386  0.7058
  618SOL     OW 6700   2.353   1.236   4.241 -0.3366  0.2021 -0.2645
  618SOL    HW1 6701   2.324   1.301   4.176  0.7564 -1.3538 -2.4211
  618SOL    HW2 6702   2.448   1.235   4.234 -0.3496 -2.7481 -1.5595
  619SOL     OW 6703   0.832   7.633   2.306  0.0782  0.2184 -0.5787
  619SOL    HW1 6704   0.799   7.631   2.396 -0.8382 -1.2806 -0.9040
  619SOL    HW2 6705   0.817   7.722   2.276 -0.5901  0.4485  0.4058
  620SOL     OW 6706   2.682   1.610   2.131  0.0667 -0.2733 -0.1571
  620SOL    HW1 6707   2.619   1.619   2.060  0.9179 -1.9089 -1.1768
  620SOL    HW2 6708   2.658   1.529   2.176  0.5148 -0.1086  0.4013
  621SOL     OW 6709   8.139   1.358   2.140  0.2768  0.5975 -0.0334
  621SOL    HW1 6710   8.179   1.305   2.209  0.8801 -0.9735 -1.4979
  621SOL    HW2 6711   8.207   1.363   2.072 -1.7292 -1.8154 -2.4524
  622SOL     OW 6712   8.057   0.749   2.156 -0.3522 -0.5131 -0.3530
  622SOL    HW1 6713   8.131   0.731   2.098 -0.5399 -2.6736 -0.0072
  622SOL    HW2 6714   8.097   0.777   2.238  0.1373 -2.2041  0.0092
  623SOL     OW 6715   1.128   1.326   4.377 -0.0770  0.3024  0.2924
  623SOL    HW1 6716   1.071   1.257   4.341  1.6195 -1.0191  0.0383
  623SOL    HW2 6717   1.143   1.385   4.303 -1.0832  0.6641  0.3607
  624SOL     OW 6718   0.798   1.131   5.275  0.0149 -0.3270 -0.0376
  624SOL    HW1 6719   0.704   1.132   5.296 -0.1523  0.7715 -0.7682
  624SOL    HW2 6720   0.800   1.128   5.179  0.6828  2.5778 -0.1831
  625SOL     OW 6721   9.742   0.581   4.048  0.3216 -0.1513  0.3025
  625SOL    HW1 6722   9.789   0.651   4.002 -1.6336  1.0455 -0.0133
  625SOL    HW2 6723   9.703   0.625   4.124  0.3433 -1.2623  0.9721
  626SOL     OW 6724   9.647   0.653   3.601 -0.1999  0.0210  0.4248
  626SOL    HW1 6725   9.702   0.580   3.627 -0.5181 -0.3236  0.1520
  626SOL    HW2 6726   9.560   0.632   3.635 -0.1587  0.5795  0.8904
  627SOL     OW 6727   2.707   2.616   1.478 -0.0855  0.4261 -0.3519
  627SOL    HW1 6728   2.718   2.578   1.391 -1.2809 -2.2185  0.5378
  627SOL    HW2 6729   2.689   2.541   1.534 -0.6127  2.1878  1.9664
  628SOL     OW 6730   0.840   0.277   3.764  0.0129 -0.0676 -1.0393
  628SOL    HW1 6731   0.924   0.293   3.806 -0.4975 -1.2175  0.4788
  628SOL    HW2 6732   0.809   0.195   3.801 -1.6498  0.1730 -1.7899
  629SOL     OW 6733   1.889   2.112   4.048  0.2057  0.3267  0.3654
  629SOL    HW1 6734   1.929   2.113   4.135  0.1823 -1.7885  0.4474
  629SOL    HW2 6735   1.802   2.150   4.061  0.3397  0.3627  1.1841
  630SOL     OW 6736   9.799   0.844   0.717  0.9540  0.4762 -0.5051
  630SOL    HW1 6737   9.757   0.927   0.695  1.0507  0.9527  1.0056
  630SOL    HW2 6738   9.814   0.848   0.812  0.7514 -1.3653 -0.3489
  631SOL     OW 6739   0.531   0.739   2.100 -0.3315  0.0073  0.4712
  631SOL    HW1 6740   0.494   0.674   2.040  1.5712 -0.9798  0.2796
  631SOL    HW2 6741   0.592   0.689   2.154 -0.2025  1.3261  1.6064
  632SOL     OW 6742   2.321   3.815   8.571 -0.3223 -0.3206  0.7940
  632SOL    HW1 6743   2.387   3.868   8.526 -1.1857 -0.8932 -1.3056
  632SOL    HW2 6744   2.282   3.874   8.635  0.5982  0.7451  0.4029
  633SOL     OW 6745   1.618   8.900   2.659  0.9617  0.6408  0.4532
  633SOL    HW1 6746   1.611   8.814   2.619  0.9566  1.6126 -1.7839
  633SOL    HW2 6747   1.553   8.899   2.730  1.4173 -1.3589  0.8923
  634SOL     OW 6748   2.758   9.333   3.588  0.5732  0.4738 -0.3711
  634SOL    HW1 6749   2.809   9.364   3.663 -0.1870  2.2371 -0.5333
  634SOL    HW2 6750   2.670   9.368   3.603 -0.4323 -1.8561 -0.4830
  635SOL     OW 6751   9.738   1.804   3.411  0.2903  0.3831  0.2171
  635SOL    HW1 6752   9.764   1.888   3.373 -0.6956  0.0398 -1.3654
  635SOL    HW2 6753   9.819   1.763   3.438  1.1462  0.5610 -1.8616
  636SOL     OW 6754   2.042   2.955   3.635 -0.1980  0.1509 -0.1464
  636SOL    HW1 6755   2.001   2.930   3.718  0.4615  0.7698  0.3812
  636SOL    HW2 6756   2.073   3.045   3.650 -1.1459  0.7292 -1.4732
  637SOL     OW 6757   9.319   2.263   3.010 -0.1691 -0.9132  0.2042
  637SOL    HW1 6758   9.330   2.308   3.093 -0.5563 -0.0026 -0.2318
  637SOL    HW2 6759   9.367   2.181   3.021 -0.4599 -0.9349  1.4175
  638SOL     OW 6760   0.640   1.955   1.286 -0.2024  0.4416 -0.4964
  638SOL    HW1 6761   0.685   2.019   1.231 -0.4862  1.2264  0.1666
  638SOL    HW2 6762   0.679   1.967   1.373 -0.2017 -0.3476 -0.3873
  639SOL     OW 6763   9.026   4.686   3.984  0.0134 -0.0456 -0.6088
  639SOL    HW1 6764   9.088   4.719   3.919  0.1295  0.8977 -0.0328
  639SOL    HW2 6765   8.979   4.764   4.014  1.3981 -0.1317  1.9651
  640SOL     OW 6766   2.007   0.531   1.827 -0.1732 -0.4432  0.3453
  640SOL    HW1 6767   1.972   0.500   1.743  2.2305  1.9242 -1.7411
  640SOL    HW2 6768   1.941   0.592   1.859 -0.0568  0.5589 -1.2005
  641SOL     OW 6769   4.703   0.725   1.199 -0.5409 -0.0938  0.2257
  641SOL    HW1 6770   4.665   0.807   1.167  0.0871 -0.0203 -0.3597
  641SOL    HW2 6771   4.720   0.674   1.120 -3.1841 -1.8618  0.6457
  642SOL     OW 6772   2.218   1.343   2.706  0.0469  0.5874 -0.3410
  642SOL    HW1 6773   2.206   1.290   2.785 -0.1207  0.0676 -0.7173
  642SOL    HW2 6774   2.139   1.329   2.655  0.2750  0.7165 -0.7319
  643SOL     OW 6775   9.615   0.079   3.471  0.0837 -0.8065  0.0455
  643SOL    HW1 6776   9.679   0.008   3.469  1.7024  0.4261  2.5220
  643SOL    HW2 6777   9.601   0.095   3.565  0.1408  2.4027 -0.3962
  644SOL     OW 6778   4.162   1.290   2.895 -0.5608 -0.0259  0.0633
  644SOL    HW1 6779   4.153   1.195   2.909  0.4352 -0.3545 -1.3496
  644SOL    HW2 6780   4.107   1.329   2.963 -1.0941 -1.6155  0.5954
  645SOL     OW 6781   0.155   2.481   2.592 -0.6019 -0.1714  0.0237
  645SOL    HW1 6782   0.106   2.442   2.520 -0.6635  0.6466 -0.3883
  645SOL    HW2 6783   0.168   2.410   2.654 -0.0079 -1.0612 -1.0796
  646SOL     OW 6784   0.845   0.884   2.300  0.4546  0.3415 -0.3878
  646SOL    HW1 6785   0.829   0.812   2.361  0.1056  0.8782  0.1684
  646SOL    HW2 6786   0.937   0.875   2.275  0.4931 -0.1128 -0.0851
  647SOL     OW 6787   0.888   2.610   3.255 -0.9557 -0.4313  0.4408
  647SOL    HW1 6788   0.913   2.522   3.227  0.0284 -0.8032  2.2927
  647SOL    HW2 6789   0.881   2.603   3.350  0.4739  1.7791  0.7801
  648SOL     OW 6790   9.407   2.016   3.023  0.4093  0.5496  0.0400
  648SOL    HW1 6791   9.408   1.968   2.940  2.4889  1.7109 -0.6689
  648SOL    HW2 6792   9.317   2.007   3.054  0.2120 -2.1669 -0.9838
  649SOL     OW 6793   8.914   1.290   3.356 -0.0466 -0.2285 -0.5003
  649SOL    HW1 6794   9.003   1.292   3.320 -0.2386  0.3294 -0.9570
  649SOL    HW2 6795   8.886   1.199   3.344  1.1161 -0.8692  1.2870
  650SOL     OW 6796   0.281   1.678   2.927 -0.0650 -0.5265 -0.7725
  650SOL    HW1 6797   0.324   1.593   2.919  0.2373 -0.4734  0.1906
  650SOL    HW2 6798   0.195   1.658   2.964 -0.0227 -0.4149 -0.6157
  651SOL     OW 6799   1.188   0.517   2.857 -0.2440  0.1303 -0.7499
  651SOL    HW1 6800   1.234   0.545   2.778  0.1790  0.1956 -0.4844
  651SOL    HW2 6801   1.101   0.556   2.849  0.2082  1.2296 -0.5617
  652SOL     OW 6802   0.634   1.145   3.131  0.2041 -0.2206 -0.3936
  652SOL    HW1 6803   0.594   1.186   3.208  0.2974 -1.0107  0.0811
  652SOL    HW2 6804   0.663   1.219   3.078  0.5555  0.3377  0.5441
  653SOL     OW 6805   2.754   9.845   3.277  0.2083  0.5089  0.1226
  653SOL    HW1 6806   2.660   9.828   3.273  0.0968  1.3261 -1.2174
  653SOL    HW2 6807   2.784   9.793   3.352 -1.1412 -0.5041  0.0031
  654SOL     OW 6808   1.588   8.848   3.042 -0.1665  0.6340 -0.8843
  654SOL    HW1 6809   1.670   8.897   3.040 -0.2563  0.7591 -2.1821
  654SOL    HW2 6810   1.554   8.863   3.130  1.5071  0.0393 -0.0877
  655SOL     OW 6811   1.092   0.827   4.758 -0.7653  0.0575 -0.3324
  655SOL    HW1 6812   1.002   0.793   4.754 -0.5153 -0.5367 -1.2056
  655SOL    HW2 6813   1.087   0.900   4.819 -1.2146 -1.9517  2.2376
  656SOL     OW 6814   1.137   8.579   1.877  0.1076 -0.9632  0.7559
  656SOL    HW1 6815   1.127   8.490   1.911 -3.0635 -1.4903 -1.1600
  656SOL    HW2 6816   1.089   8.633   1.939 -1.6258 -1.2623 -0.2648
  657SOL     OW 6817   0.466   9.719   3.370 -0.6696  0.3845 -0.1020
  657SOL    HW1 6818   0.500   9.637   3.334 -1.9931  0.2078 -0.9980
  657SOL    HW2 6819   0.374   9.721   3.344 -0.5167  2.4712 -0.6415
  658SOL     OW 6820   0.459   3.593   3.764 -0.5317 -0.0205  0.2566
  658SOL    HW1 6821   0.466   3.572   3.857 -0.2416  0.0320  0.2494
  658SOL    HW2 6822   0.389   3.536   3.731 -2.6890  1.9827  1.0933
  659SOL     OW 6823   0.375   1.413   5.098 -0.2287 -0.8988  0.2562
  659SOL    HW1 6824   0.341   1.501   5.116 -0.2566 -1.1169  1.3232
  659SOL    HW2 6825   0.360   1.400   5.004 -1.3573 -0.2585  0.3314
  660SOL     OW 6826   0.839   0.849   3.606  0.3483  0.0571 -0.1647
  660SOL    HW1 6827   0.823   0.759   3.579  0.4196 -0.0072  0.0068
  660SOL    HW2 6828   0.814   0.852   3.699 -0.8946  0.5356 -0.4870
  661SOL     OW 6829   2.227   0.356   0.475  0.7605  0.1927  0.3263
  661SOL    HW1 6830   2.142   0.388   0.443  2.0065  3.1624 -0.3570
  661SOL    HW2 6831   2.230   0.264   0.447 -1.7495  0.3118 -0.5979
  662SOL     OW 6832   9.745   8.624   2.272 -0.1955  0.0570  0.8531
  662SOL    HW1 6833   9.689   8.637   2.348 -0.4912 -0.2424  0.6917
  662SOL    HW2 6834   9.757   8.712   2.236 -3.5055 -0.1116 -1.1685
  663SOL     OW 6835   2.041   3.144   3.815  0.0770  0.0421 -0.0520
  663SOL    HW1 6836   1.979   3.186   3.874 -1.9666 -2.3354 -0.3271
  663SOL    HW2 6837   2.126   3.154   3.859 -0.5225  2.9105  0.6059
  664SOL     OW 6838   0.568   9.794   2.716  0.5084 -0.2703 -0.4182
  664SOL    HW1 6839   0.560   9.798   2.621 -1.0278  1.2295 -0.2761
  664SOL    HW2 6840   0.586   9.884   2.743  1.8246 -0.8220  0.6707
  665SOL     OW 6841   8.298   0.213   2.884  0.3949 -0.0840 -0.2827
  665SOL    HW1 6842   8.211   0.235   2.917 -0.3084 -0.4140 -1.8113
  665SOL    HW2 6843   8.359   0.246   2.950 -0.9085 -0.6473  1.2530
  666SOL     OW 6844   2.652   3.087   4.632 -0.1326 -0.3061 -1.0197
  666SOL    HW1 6845   2.663   2.992   4.640 -1.4512 -0.3984  0.1936
  666SOL    HW2 6846   2.733   3.124   4.665 -0.3500 -1.0101  0.3619
  667SOL     OW 6847   9.765   9.848   0.393  0.3797  0.0187 -0.0618
  667SOL    HW1 6848   9.709   9.881   0.323  0.9337  2.5653  0.5910
  667SOL    HW2 6849   9.778   9.923   0.451  2.6672 -1.0761  0.9756
  668SOL     OW 6850   1.367   9.476   3.891 -0.9761 -0.5343  0.1631
  668SOL    HW1 6851   1.418   9.474   3.810 -0.5207  3.3922  0.1829
  668SOL    HW2 6852   1.430   9.500   3.958 -1.9623 -0.4689  1.0901
  669SOL     OW 6853   0.677   1.119   3.535  0.2104  0.4309 -0.4996
  669SOL    HW1 6854   0.626   1.183   3.485 -2.3589 -0.6991  0.4916
  669SOL    HW2 6855   0.679   1.154   3.624 -1.5283 -0.9520  0.1314
  670SOL     OW 6856   1.549   6.797   1.751  0.1297 -0.5011 -0.3924
  670SOL    HW1 6857   1.590   6.864   1.697  0.4312 -0.0647  0.3681
  670SOL    HW2 6858   1.553   6.718   1.697 -0.4951  0.1436 -1.4141
  671SOL     OW 6859   2.628   9.442   5.655 -0.2952 -0.8089  0.1101
  671SOL    HW1 6860   2.674   9.377   5.708 -1.1431 -2.2544 -0.8420
  671SOL    HW2 6861   2.537   9.412   5.655 -0.9376  1.0412  0.5733
  672SOL     OW 6862   2.395   0.470   4.028  0.4632  0.4754 -0.3720
  672SOL    HW1 6863   2.348   0.391   4.003  1.6034  0.0212 -1.1909
  672SOL    HW2 6864   2.384   0.476   4.123  1.1503 -1.2020 -0.1535
  673SOL     OW 6865   2.911   8.705   0.621  0.2171 -0.6541  0.2340
  673SOL    HW1 6866   2.974   8.776   0.614  0.1428 -0.5255  0.7986
  673SOL    HW2 6867   2.826   8.747   0.605  0.1103 -0.4820  1.1692
  674SOL     OW 6868   0.188   9.746   3.320 -0.2165 -0.5656  0.0400
  674SOL    HW1 6869   0.176   9.696   3.240  1.3551 -0.9794  0.0229
  674SOL    HW2 6870   0.123   9.816   3.315 -1.2836 -1.5757 -0.7619
  675SOL     OW 6871   9.410   1.927   2.771 -0.3233  0.3739  0.0579
  675SOL    HW1 6872   9.500   1.924   2.738 -1.0606  0.0291 -2.0952
  675SOL    HW2 6873   9.361   1.871   2.711 -2.4066  2.3858 -0.2514
  676SOL     OW 6874   1.375   9.599   0.948 -1.1220  0.0264  0.2247
  676SOL    HW1 6875   1.372   9.633   1.037 -1.0516 -0.2838  0.3480
  676SOL    HW2 6876   1.440   9.653   0.903 -1.6981  0.6725  0.1522
  677SOL     OW 6877   1.335   0.169   2.983 -0.4554  0.1470  0.5084
  677SOL    HW1 6878   1.394   0.118   3.039  0.7584 -1.0794 -1.7637
  677SOL    HW2 6879   1.267   0.201   3.043  0.5107 -1.4593  2.5903
  678SOL     OW 6880   1.308   0.349   1.416  0.1213  0.2319 -0.1366
  678SOL    HW1 6881   1.250   0.373   1.488 -0.3709  0.3305 -0.5631
  678SOL    HW2 6882   1.377   0.296   1.457 -1.5389 -1.9266  0.0312
  679SOL     OW 6883   1.851   1.533   2.682  0.2942  0.0895  0.2168
  679SOL    HW1 6884   1.815   1.544   2.770  2.2244  1.5055  0.8981
  679SOL    HW2 6885   1.906   1.455   2.688 -0.9471 -0.8486 -0.2530
  680SOL     OW 6886   0.291   9.192   4.087 -0.3119 -0.0314 -0.0538
  680SOL    HW1 6887   0.252   9.265   4.135 -0.6971 -0.6556  0.6077
  680SOL    HW2 6888   0.352   9.233   4.026  0.6685  0.7608  1.3905
  681SOL     OW 6889   0.938   8.678   3.150  0.3570 -0.2153 -0.3954
  681SOL    HW1 6890   0.958   8.602   3.204  0.6665 -0.2907 -0.6170
  681SOL    HW2 6891   0.910   8.641   3.066  0.0497 -0.0937 -0.3495
  682SOL     OW 6892   1.988   3.128   5.608  0.2563  0.2685  0.0500
  682SOL    HW1 6893   1.924   3.197   5.624  1.7781  1.9949 -0.8885
  682SOL    HW2 6894   2.047   3.132   5.683 -0.2199 -0.7171  0.4863
  683SOL     OW 6895   0.854   0.569   3.574  0.6172 -0.0215  0.0698
  683SOL    HW1 6896   0.797   0.555   3.649  3.2919 -0.5816  2.1444
  683SOL    HW2 6897   0.863   0.482   3.535  1.0141 -0.1653  0.4796
  684SOL     OW 6898   0.856   1.519   2.618  0.0456  0.2562 -0.0562
  684SOL    HW1 6899   0.792   1.495   2.551 -0.1195 -0.8111  0.4731
  684SOL    HW2 6900   0.909   1.587   2.577 -1.5094  1.2780 -0.4627
  685SOL     OW 6901   3.242   3.007   3.409  0.5049  0.4644 -0.3881
  685SOL    HW1 6902   3.228   2.951   3.485 -0.4551  0.7358 -0.3546
  685SOL    HW2 6903   3.223   2.951   3.334  1.0787  0.3053 -0.4179
  686SOL     OW 6904   0.062   1.282   2.797  0.0330  0.1043 -0.5830
  686SOL    HW1 6905  -0.024   1.263   2.835  0.8838  1.0338  2.0082
  686SOL    HW2 6906   0.125   1.254   2.864  1.5615  3.6842 -0.3105
  687SOL     OW 6907   8.443   1.371   2.754  0.2309 -0.0154  0.5724
  687SOL    HW1 6908   8.475   1.395   2.667  2.6005  0.6715  1.5750
  687SOL    HW2 6909   8.404   1.451   2.789  0.8993  0.2052  0.8216
  688SOL     OW 6910   0.613   0.251   3.562  0.1317  0.2760 -0.6527
  688SOL    HW1 6911   0.557   0.267   3.639  2.1371 -0.0317  0.9491
  688SOL    HW2 6912   0.702   0.248   3.597  0.9622 -2.1019 -2.6635
  689SOL     OW 6913   0.400   0.545   2.978  0.0350 -0.5258  0.1853
  689SOL    HW1 6914   0.437   0.459   2.998  1.1226  0.1334  1.1734
  689SOL    HW2 6915   0.347   0.567   3.054 -2.1543 -1.2588 -1.0267
  690SOL     OW 6916   1.064   0.125   1.663  0.6627 -0.1155 -0.0248
  690SOL    HW1 6917   1.001   0.179   1.711 -0.2439 -2.9294  2.2328
  690SOL    HW2 6918   1.146   0.133   1.713  0.0911 -1.9640  1.3005
  691SOL     OW 6919   0.159   0.798   5.821 -0.8328  0.0594  0.1092
  691SOL    HW1 6920   0.067   0.824   5.827 -1.2639 -1.6410  1.8220
  691SOL    HW2 6921   0.160   0.706   5.849  1.2849 -0.2341 -0.7301
  692SOL     OW 6922   3.226   0.388   4.246  0.3986  0.0486 -0.0387
  692SOL    HW1 6923   3.137   0.382   4.213  0.5210  0.0074 -0.3596
  692SOL    HW2 6924   3.216   0.425   4.334  0.0360 -0.3223  0.0796
  693SOL     OW 6925   9.059   0.245   2.223 -0.2069  0.4068  0.2055
  693SOL    HW1 6926   9.039   0.301   2.298 -1.9872 -0.7245  0.6627
  693SOL    HW2 6927   8.999   0.274   2.154 -0.6867 -0.4604  0.2352
  694SOL     OW 6928   0.701   1.710   2.753 -0.6378 -0.6568  0.2746
  694SOL    HW1 6929   0.743   1.636   2.710 -0.4497  0.0304 -0.7877
  694SOL    HW2 6930   0.649   1.751   2.683  0.8196  1.3559  0.2840
  695SOL     OW 6931   0.913   1.522   3.176 -0.1513 -0.1325  0.1338
  695SOL    HW1 6932   0.903   1.617   3.190 -0.2240 -0.0086 -0.6992
  695SOL    HW2 6933   0.987   1.497   3.231 -0.6279  0.2623  0.9695
  696SOL     OW 6934   0.874   1.201   2.068 -0.1035 -0.6013  0.0070
  696SOL    HW1 6935   0.911   1.219   2.154 -0.8675  0.8408  0.0694
  696SOL    HW2 6936   0.950   1.177   2.014  0.4947 -0.6908  0.8739
  697SOL     OW 6937   9.689   1.024   3.974  0.3001 -0.5281 -0.1545
  697SOL    HW1 6938   9.666   0.983   4.057  0.2543  0.4963  0.3511
  697SOL    HW2 6939   9.700   0.950   3.913 -0.5022 -1.2458  0.5399
  698SOL     OW 6940   9.366   0.018   3.642  0.1340  0.3889 -0.2591
  698SOL    HW1 6941   9.449   0.050   3.678  0.8560 -2.4264  0.8317
  698SOL    HW2 6942   9.317   0.098   3.622  2.2110  2.1453  1.1179
  699SOL     OW 6943   0.554   2.051   2.585 -0.2811  0.3049 -0.3382
  699SOL    HW1 6944   0.566   2.128   2.641 -0.4067 -0.6275  1.0309
  699SOL    HW2 6945   0.483   2.002   2.626  0.3004 -0.9201 -0.7296
  700SOL     OW 6946   2.454   0.028   4.464  0.7168  0.1995  0.2459
  700SOL    HW1 6947   2.458  -0.056   4.509 -0.2420  1.4683  2.9143
  700SOL    HW2 6948   2.364   0.058   4.475  0.6727  0.9932 -1.8564
  701SOL     OW 6949   0.932   1.946   4.179 -0.0506 -0.2023 -0.0156
  701SOL    HW1 6950   0.907   2.038   4.190  0.2883 -0.1545  0.3755
  701SOL    HW2 6951   0.866   1.897   4.227 -0.7931 -0.2259 -1.0404
  702SOL     OW 6952   9.436   8.491   2.024 -0.2424  0.1767  0.3147
  702SOL    HW1 6953   9.376   8.416   2.020  0.4527 -0.4931  1.6988
  702SOL    HW2 6954   9.380   8.566   2.042 -1.0343  0.1490 -1.7554
  703SOL     OW 6955   9.443   8.254   3.107  0.0791  0.4153  0.1445
  703SOL    HW1 6956   9.492   8.259   3.024 -0.8640  0.2629 -0.4412
  703SOL    HW2 6957   9.411   8.164   3.110  1.0117  0.1088  1.2228
  704SOL     OW 6958   0.547   1.771   3.888  0.3005 -0.7466  0.3477
  704SOL    HW1 6959   0.555   1.823   3.808  2.8321 -1.0771  0.3054
  704SOL    HW2 6960   0.460   1.732   3.883  0.6119 -1.2410 -2.5576
  705SOL     OW 6961   8.985   8.952   3.188  0.2805 -0.3115  0.5814
  705SOL    HW1 6962   8.988   9.028   3.246  0.1317  1.0609 -1.1301
  705SOL    HW2 6963   9.014   8.985   3.104 -0.0280 -2.1166 -0.2799
  706SOL     OW 6964   0.813   8.933   4.263  0.2804  0.4133  0.6575
  706SOL    HW1 6965   0.826   9.022   4.230  0.7406  0.4583  0.9547
  706SOL    HW2 6966   0.731   8.937   4.311 -0.3265  0.3844 -0.3492
  707SOL     OW 6967   9.059   1.375   3.833 -0.2409 -0.2502 -0.3081
  707SOL    HW1 6968   9.012   1.386   3.751  0.7307  0.0413 -0.8423
  707SOL    HW2 6969   8.991   1.368   3.900 -1.0524  2.6569 -0.7181
  708SOL     OW 6970   3.413   0.012   1.932  0.0772 -0.7803 -0.0893
  708SOL    HW1 6971   3.418  -0.019   2.023  0.8252  0.2222  0.2371
  708SOL    HW2 6972   3.327  -0.016   1.901 -1.0172  0.5220  1.5737
  709SOL     OW 6973   9.706   9.525   2.493 -0.0014  0.2282  0.1234
  709SOL    HW1 6974   9.630   9.559   2.446 -0.1943  0.3785  0.5427
  709SOL    HW2 6975   9.734   9.597   2.550  0.0253 -0.0676  0.4888
  710SOL     OW 6976   9.685   0.630   3.318 -0.3425  0.2320  0.3848
  710SOL    HW1 6977   9.759   0.570   3.310 -0.7283 -0.1060 -0.9428
  710SOL    HW2 6978   9.647   0.610   3.404 -0.7090 -1.7451 -0.1801
  711SOL     OW 6979   3.613   1.894   1.860  0.0820 -0.4282 -0.0668
  711SOL    HW1 6980   3.529   1.851   1.877 -0.3275 -0.2581 -1.5022
  711SOL    HW2 6981   3.674   1.822   1.846  0.6270 -0.6021  2.6762
  712SOL     OW 6982   9.151   9.319   4.746 -0.1173  0.6601  0.2424
  712SOL    HW1 6983   9.190   9.238   4.780 -1.1031 -0.5894 -1.3985
  712SOL    HW2 6984   9.164   9.383   4.815  0.8156 -0.8725  1.5724
  713SOL     OW 6985   1.467   7.785   1.593 -0.2276  0.3474  0.0383
  713SOL    HW1 6986   1.448   7.872   1.557  0.5111  0.1709 -0.8004
  713SOL    HW2 6987   1.562   7.776   1.585 -0.2901 -0.5088  0.2019
  714SOL     OW 6988   1.340   0.783   1.951 -0.2024  0.1785 -0.1090
  714SOL    HW1 6989   1.416   0.810   2.003  0.2001 -1.8089  0.4521
  714SOL    HW2 6990   1.376   0.767   1.863 -0.1295  0.0064 -0.0484
  715SOL     OW 6991   2.551   9.846   9.397 -0.3906 -0.3446  0.4036
  715SOL    HW1 6992   2.505   9.804   9.469  0.5683  0.3277  1.4386
  715SOL    HW2 6993   2.513   9.933   9.391  0.7603  0.2457  1.3199
  716SOL     OW 6994   8.771   9.727   1.795  0.5646 -0.2075  0.1742
  716SOL    HW1 6995   8.791   9.763   1.709  0.7317 -2.0438 -0.5978
  716SOL    HW2 6996   8.735   9.801   1.844 -1.4522  0.4574 -2.0970
  717SOL     OW 6997   0.995   1.198   3.590 -0.5174  0.2024 -0.4365
  717SOL    HW1 6998   1.053   1.266   3.554  0.8639  0.0584  1.3806
  717SOL    HW2 6999   0.927   1.246   3.636 -0.0692  0.3808  0.0524
  718SOL     OW 7000   2.695   2.116   3.708 -0.3379 -0.2048 -0.5736
  718SOL    HW1 7001   2.712   2.060   3.784 -0.9590  0.1468 -0.1668
  718SOL    HW2 7002   2.749   2.079   3.638  0.6964 -0.1873  0.1860
  719SOL     OW 7003   9.178   2.390   2.796  0.2090  0.1347  0.9406
  719SOL    HW1 7004   9.187   2.313   2.739 -0.8076  1.0139 -0.4774
  719SOL    HW2 7005   9.167   2.353   2.884 -1.7402 -1.4420  0.1381
  720SOL     OW 7006   0.468   9.554   2.720 -0.5246  0.0776 -0.6440
  720SOL    HW1 7007   0.483   9.534   2.813 -2.6855  0.6056 -0.1281
  720SOL    HW2 7008   0.485   9.648   2.713  0.2670 -0.0763 -0.9623
  721SOL     OW 7009   8.492   2.980   3.111  0.2189  0.1387  0.1999
  721SOL    HW1 7010   8.413   3.033   3.113  0.3231  0.2821  1.8220
  721SOL    HW2 7011   8.559   3.037   3.073 -0.3261  0.1878 -0.7012
  722SOL     OW 7012   1.060   1.761   1.331  0.0422 -0.1316 -0.0773
  722SOL    HW1 7013   0.986   1.712   1.295  1.1999 -1.7472 -0.3624
  722SOL    HW2 7014   1.108   1.696   1.383  0.5078  1.2261  1.2511
  723SOL     OW 7015   1.835   0.622   3.497  0.0994  0.8627  0.8490
  723SOL    HW1 7016   1.901   0.674   3.543 -0.1437  0.5246  1.6103
  723SOL    HW2 7017   1.818   0.549   3.556 -1.0715  1.0301  0.7430
  724SOL     OW 7018   0.132   0.199   3.057  0.7591 -0.2903  0.6200
  724SOL    HW1 7019   0.109   0.152   3.137 -0.1938  2.9995  2.4894
  724SOL    HW2 7020   0.196   0.265   3.085  1.8759 -0.2407 -1.7629
  725SOL     OW 7021   1.301   0.911   5.453  0.4819 -0.5497  0.1279
  725SOL    HW1 7022   1.255   0.949   5.379 -0.5144  2.1406  1.9489
  725SOL    HW2 7023   1.390   0.947   5.447 -0.0490  1.0384  1.0261
  726SOL     OW 7024   1.350   0.167   0.420  0.4853 -0.3031  0.0195
  726SOL    HW1 7025   1.390   0.248   0.452  1.2908 -0.5371 -0.3675
  726SOL    HW2 7026   1.388   0.154   0.333 -0.1055 -0.7739 -0.1795
  727SOL     OW 7027   0.572   0.549   2.353 -0.0080  0.1212 -0.3595
  727SOL    HW1 7028   0.660   0.570   2.384  0.1657 -0.7098 -0.2641
  727SOL    HW2 7029   0.514   0.577   2.424  0.1550  0.9171 -0.5377
  728SOL     OW 7030   1.034   8.725   4.312 -0.0211 -0.1910 -0.8688
  728SOL    HW1 7031   0.970   8.795   4.300  0.0794  0.0946  0.1363
  728SOL    HW2 7032   0.989   8.661   4.368 -0.2551 -1.1437 -2.1039
  729SOL     OW 7033   1.455   2.205   3.685  0.1770  0.2763 -0.1257
  729SOL    HW1 7034   1.367   2.234   3.660 -0.0654 -0.1837  0.1783
  729SOL    HW2 7035   1.482   2.265   3.754  0.1731  0.5294 -0.3452
  730SOL     OW 7036   1.063   9.667   3.516 -0.1599 -0.1447  0.1870
  730SOL    HW1 7037   1.099   9.694   3.600  1.6371  1.4548 -1.0117
  730SOL    HW2 7038   1.139   9.656   3.460 -1.3479 -0.5883 -1.4149
  731SOL     OW 7039   0.092   0.352   0.789 -0.0765 -0.0243  0.2208
  731SOL    HW1 7040   0.110   0.440   0.757  1.1377 -0.5074 -0.4668
  731SOL    HW2 7041   0.122   0.353   0.880  0.0747  0.2335  0.1676
  732SOL     OW 7042   2.139   0.716   3.878  0.2375 -0.1592 -0.0095
  732SOL    HW1 7043   2.213   0.684   3.827  1.6723  1.1006  1.1904
  732SOL    HW2 7044   2.152   0.679   3.965 -1.1989 -0.8444 -0.0570
  733SOL     OW 7045   3.204   0.150   3.749  0.2954 -0.4796 -0.9023
  733SOL    HW1 7046   3.260   0.078   3.719  0.4224 -0.4516 -0.7350
  733SOL    HW2 7047   3.234   0.225   3.697  1.7352 -0.0119  0.5182
  734SOL     OW 7048   9.422   0.723   3.124  0.5169  0.1144 -0.2564
  734SOL    HW1 7049   9.372   0.800   3.148 -0.5968  0.2652 -2.7900
  734SOL    HW2 7050   9.438   0.678   3.207 -4.0932 -0.1330  0.7686
  735SOL     OW 7051   9.731   1.272   2.369 -0.4818 -1.0228  0.5727
  735SOL    HW1 7052   9.664   1.265   2.437  0.2447  0.7458  1.5120
  735SOL    HW2 7053   9.691   1.327   2.301 -0.0572 -0.1124  1.0536
  736SOL     OW 7054   9.834   9.709   2.637 -0.0139  0.4617  0.2109
  736SOL    HW1 7055   9.874   9.781   2.588 -1.5179  2.2495  1.4538
  736SOL    HW2 7056   9.881   9.708   2.720  1.6869 -1.7277 -0.6972
  737SOL     OW 7057   2.538   2.296   2.688  0.0546 -0.2491 -0.1077
  737SOL    HW1 7058   2.596   2.328   2.759 -0.9054 -0.0483  0.6064
  737SOL    HW2 7059   2.465   2.358   2.688 -2.2297 -2.7361  1.7646
  738SOL     OW 7060   1.768   2.335   2.599 -0.3664 -0.3649  0.2450
  738SOL    HW1 7061   1.769   2.255   2.651  0.1306 -1.0257 -0.7450
  738SOL    HW2 7062   1.679   2.369   2.608 -0.8052 -1.4437  0.0655
  739SOL     OW 7063   0.754   2.064   4.990 -0.3802  0.4211 -0.7597
  739SOL    HW1 7064   0.694   2.138   4.983 -0.6859  0.3394  0.8024
  739SOL    HW2 7065   0.835   2.102   5.025  0.5305  0.5259 -2.8104
  740SOL     OW 7066   9.195   9.403   2.124 -0.2852  0.6749  0.0916
  740SOL    HW1 7067   9.234   9.441   2.046 -0.7550  1.6248  0.3009
  740SOL    HW2 7068   9.111   9.367   2.094 -0.1532  0.4182  0.0285
  741SOL     OW 7069   9.596   2.980   2.267 -0.0553 -0.1772  0.1852
  741SOL    HW1 7070   9.541   2.903   2.275  1.1515 -1.0606  0.2968
  741SOL    HW2 7071   9.627   2.997   2.356 -0.5784  0.6582  0.2216
  742SOL     OW 7072   2.211   9.072   3.146 -0.1528 -0.6795  0.3324
  742SOL    HW1 7073   2.158   9.021   3.086  1.0215 -1.8468  0.2310
  742SOL    HW2 7074   2.175   9.053   3.233  1.0760 -2.8300  0.4467
  743SOL     OW 7075   4.825   0.941   1.516  0.2572  0.2274  0.3788
  743SOL    HW1 7076   4.782   0.953   1.601 -1.7852 -1.7610 -0.2794
  743SOL    HW2 7077   4.864   0.854   1.521 -0.1790 -0.0613 -0.7968
  744SOL     OW 7078   1.063   7.505   1.713 -0.2334 -0.3953 -0.3028
  744SOL    HW1 7079   1.110   7.585   1.737 -0.0011 -0.3840 -0.7747
  744SOL    HW2 7080   1.019   7.477   1.793  0.2228 -0.1587  0.0337
  745SOL     OW 7081   0.449   2.469   3.680  0.5591  0.2624 -0.7146
  745SOL    HW1 7082   0.406   2.422   3.609  0.8948 -0.6944 -0.3064
  745SOL    HW2 7083   0.527   2.416   3.700  0.0226  0.0206  0.9439
  746SOL     OW 7084   1.938   1.334   1.430 -0.4837  0.0868 -0.1923
  746SOL    HW1 7085   1.877   1.268   1.397 -0.2342  0.6403 -1.8520
  746SOL    HW2 7086   1.892   1.417   1.421  0.5120  0.5188 -1.5400
  747SOL     OW 7087   1.450   1.837   1.384 -0.0541  0.5857  0.8654
  747SOL    HW1 7088   1.545   1.852   1.377 -0.2007  0.7408 -2.3600
  747SOL    HW2 7089   1.441   1.743   1.396  0.5178  0.3274 -0.5561
  748SOL     OW 7090   1.757   1.166   1.675  0.5780 -0.5159 -0.3901
  748SOL    HW1 7091   1.697   1.235   1.646  0.6816 -1.0914 -2.0826
  748SOL    HW2 7092   1.788   1.195   1.760 -1.7054  0.0507  0.3131
  749SOL     OW 7093   5.433   1.622   2.595  0.1963  0.1422 -0.3893
  749SOL    HW1 7094   5.435   1.526   2.592 -3.0644 -0.0629 -3.3955
  749SOL    HW2 7095   5.510   1.650   2.546  0.8932 -0.9292  0.0680
  750SOL     OW 7096   1.274   8.423   4.321 -0.5280 -0.0733  0.6579
  750SOL    HW1 7097   1.241   8.405   4.233 -0.6850 -0.5060  0.8039
  750SOL    HW2 7098   1.303   8.514   4.318 -1.0966  0.1003  0.3299
  751SOL     OW 7099   2.076   0.244   2.626 -1.3017 -0.1750 -0.1723
  751SOL    HW1 7100   2.138   0.172   2.628  0.6209  1.3979  0.6728
  751SOL    HW2 7101   2.040   0.243   2.537  0.9682 -0.3593 -1.1578
  752SOL     OW 7102   0.995   1.527   0.563  0.1055  0.3492 -0.0819
  752SOL    HW1 7103   0.931   1.458   0.583  0.8675 -0.3364  0.0663
  752SOL    HW2 7104   1.068   1.508   0.621  0.6222  0.8649 -0.5579
  753SOL     OW 7105   0.132   3.120   0.269  0.0972 -0.2577 -0.6330
  753SOL    HW1 7106   0.201   3.149   0.210 -0.3291 -0.2946 -1.1554
  753SOL    HW2 7107   0.163   3.035   0.303 -0.7032 -1.4109 -2.6322
  754SOL     OW 7108   1.358   0.069   3.343  0.3439 -0.6137  0.1850
  754SOL    HW1 7109   1.374   0.030   3.257  2.0684 -0.3874  0.3670
  754SOL    HW2 7110   1.318  -0.001   3.395 -2.3008 -0.2831 -1.2202
  755SOL     OW 7111   9.295   2.278   2.505  0.1534  0.5730  0.2959
  755SOL    HW1 7112   9.356   2.351   2.519  0.8775 -0.1336  0.9880
  755SOL    HW2 7113   9.320   2.214   2.572  1.3404 -1.4829 -1.9636
  756SOL     OW 7114   9.062   9.574   5.372 -0.3499 -0.0477  0.3284
  756SOL    HW1 7115   9.124   9.504   5.394 -0.6625 -0.2844  0.4462
  756SOL    HW2 7116   9.067   9.582   5.277 -0.6259 -0.5153  0.2756
  757SOL     OW 7117   2.765   1.754   4.266 -0.4537 -0.1568 -0.3568
  757SOL    HW1 7118   2.724   1.688   4.210 -0.3378  0.0026 -0.6370
  757SOL    HW2 7119   2.742   1.837   4.224 -0.4819 -0.0299 -0.0866
  758SOL     OW 7120   1.329   0.385   2.546  0.1424  0.7102 -0.2007
  758SOL    HW1 7121   1.300   0.396   2.637 -0.0496 -2.5086  0.2639
  758SOL    HW2 7122   1.384   0.461   2.529  0.1663  1.4400  2.6272
  759SOL     OW 7123   1.694   8.767   2.038 -0.2925 -0.1075 -0.4638
  759SOL    HW1 7124   1.777   8.721   2.026 -0.7028 -1.4130  1.2108
  759SOL    HW2 7125   1.712   8.835   2.103 -0.2993  0.2835 -0.8715
  760SOL     OW 7126   7.629   1.968   3.248 -0.0387 -0.2694  0.0444
  760SOL    HW1 7127   7.618   1.887   3.198  1.4308 -0.0617 -0.6764
  760SOL    HW2 7128   7.675   2.026   3.188  1.3254  0.1648  1.4597
  761SOL     OW 7129   1.986   1.682   4.632  0.4631  0.5368  0.1133
  761SOL    HW1 7130   1.933   1.706   4.709 -1.6294  2.4859 -1.7886
  761SOL    HW2 7131   2.053   1.750   4.628  0.6170  0.3936  0.2376
  762SOL     OW 7132   9.830   2.052   1.773 -0.1805 -0.1014 -0.2067
  762SOL    HW1 7133   9.761   2.022   1.831  1.1113  0.6842  1.8690
  762SOL    HW2 7134   9.900   1.988   1.783  0.0165 -0.0303 -1.0373
  763SOL     OW 7135   0.872   0.740   1.955 -0.2561 -0.3619  0.0531
  763SOL    HW1 7136   0.791   0.759   1.909  0.2778 -1.1895 -1.2967
  763SOL    HW2 7137   0.918   0.823   1.959 -1.2202  0.1531  0.9904
  764SOL     OW 7138   0.325   1.058   3.606 -0.0535  0.3633  0.1520
  764SOL    HW1 7139   0.308   1.089   3.517 -2.7945 -0.1477  0.4170
  764SOL    HW2 7140   0.341   1.138   3.656 -0.0169  0.7793 -0.5115
  765SOL     OW 7141   9.623   9.199   1.932  0.2454  0.2537 -0.0049
  765SOL    HW1 7142   9.585   9.125   1.885  2.9262 -1.8875  0.9694
  765SOL    HW2 7143   9.676   9.244   1.866 -1.7587  1.7356 -0.7208
  766SOL     OW 7144   2.663   2.062   3.204 -0.1803 -0.3853  0.0060
  766SOL    HW1 7145   2.635   2.123   3.272  0.2424 -1.7580  1.4601
  766SOL    HW2 7146   2.609   2.086   3.128  0.4610  2.2364  0.2551
  767SOL     OW 7147   0.686   0.879   2.630 -0.1871  0.0603  0.4017
  767SOL    HW1 7148   0.679   0.899   2.723  0.2156  3.2844 -0.1419
  767SOL    HW2 7149   0.715   0.961   2.590 -1.2846 -0.9230 -2.7037
  768SOL     OW 7150   0.083   1.107   1.876  0.3837 -0.0502 -0.2589
  768SOL    HW1 7151   0.144   1.120   1.803  0.8190  0.1457  0.1349
  768SOL    HW2 7152   0.094   1.185   1.930  1.0401 -0.8043  0.7221
  769SOL     OW 7153   1.815   1.426   3.517 -0.3037  0.2309 -0.2652
  769SOL    HW1 7154   1.753   1.476   3.570  0.2258 -0.5404  1.1435
  769SOL    HW2 7155   1.762   1.359   3.475 -0.5972  0.2434  0.0770
  770SOL     OW 7156   8.881   0.861   1.361  0.5538 -0.6572 -0.2324
  770SOL    HW1 7157   8.893   0.817   1.277 -1.1961 -1.7759  0.0403
  770SOL    HW2 7158   8.913   0.799   1.426 -1.0447 -1.1895  0.0951
  771SOL     OW 7159   0.560   0.444   2.093 -0.5451 -0.0377  0.3363
  771SOL    HW1 7160   0.644   0.451   2.049 -0.6431 -0.2377  0.1099
  771SOL    HW2 7161   0.575   0.478   2.181 -0.6211  1.4239 -0.1978
  772SOL     OW 7162   1.816   9.795   2.463 -0.7323  0.0311 -0.9465
  772SOL    HW1 7163   1.788   9.822   2.375 -0.3960  0.1407 -1.0222
  772SOL    HW2 7164   1.900   9.752   2.449  0.3045  1.8301 -0.4485
  773SOL     OW 7165   1.786   0.409   2.316  0.2084 -0.2706  0.0654
  773SOL    HW1 7166   1.803   0.448   2.230 -1.8869  0.4903 -0.0862
  773SOL    HW2 7167   1.814   0.476   2.378 -1.3227  0.6442 -0.1540
  774SOL     OW 7168   2.164   9.448   3.043 -0.7728 -0.3274  0.4493
  774SOL    HW1 7169   2.109   9.504   3.098  0.0507 -0.3753  1.3353
  774SOL    HW2 7170   2.102   9.404   2.984 -1.6805 -0.3137  1.3720
  775SOL     OW 7171   8.651   1.954   3.809  0.4133 -0.2461  0.1446
  775SOL    HW1 7172   8.612   1.885   3.756 -0.9557  0.7464 -0.2046
  775SOL    HW2 7173   8.679   1.910   3.889 -1.9846 -0.9858  0.6794
  776SOL     OW 7174   1.489   1.215   3.886  0.2113  0.0808 -0.7701
  776SOL    HW1 7175   1.430   1.189   3.956  1.0386  0.7099  0.2028
  776SOL    HW2 7176   1.439   1.201   3.806 -0.0738 -2.5479 -0.2253
  777SOL     OW 7177   1.465   0.896   5.101 -0.1127 -0.0983 -0.1747
  777SOL    HW1 7178   1.386   0.936   5.139  0.0843 -0.0176  0.1460
  777SOL    HW2 7179   1.431   0.833   5.038 -0.4346  0.9168 -1.0565
  778SOL     OW 7180   1.024   0.112   2.093 -0.1882  0.0265 -0.0597
  778SOL    HW1 7181   1.025   0.044   2.025  1.2616  1.3032 -1.3879
  778SOL    HW2 7182   1.064   0.070   2.169 -1.7310 -1.3935  0.0168
  779SOL     OW 7183   0.894   7.471   3.167 -0.1604 -0.5277 -0.0186
  779SOL    HW1 7184   0.888   7.520   3.085 -1.2556 -1.7446 -0.6962
  779SOL    HW2 7185   0.985   7.478   3.193 -0.1311  1.2241 -0.4864
  780SOL     OW 7186   0.636   0.424   0.951  0.1517  0.0409  0.0345
  780SOL    HW1 7187   0.611   0.477   1.027 -2.4427 -2.4843  1.1227
  780SOL    HW2 7188   0.555   0.416   0.900  0.6729 -2.0562 -0.5625
  781SOL     OW 7189   1.874   1.527   3.900 -0.4649 -0.1275 -0.1200
  781SOL    HW1 7190   1.805   1.591   3.920 -0.0716  0.5145 -0.7659
  781SOL    HW2 7191   1.920   1.564   3.825  0.7139 -0.4586  0.4216
  782SOL     OW 7192   0.050   9.163   1.301 -0.6493  0.0849 -0.5568
  782SOL    HW1 7193  -0.004   9.142   1.225  0.0592 -0.2693 -0.9726
  782SOL    HW2 7194   0.067   9.078   1.342 -0.0690  0.1490 -0.6646
  783SOL     OW 7195   1.481   9.165   2.708 -0.3933  0.3685 -0.0581
  783SOL    HW1 7196   1.501   9.080   2.668  1.0165  0.2209  0.8978
  783SOL    HW2 7197   1.408   9.146   2.768 -0.3115 -0.1034 -0.1030
  784SOL     OW 7198   0.572   9.001   0.690 -0.0045 -0.4286 -0.2072
  784SOL    HW1 7199   0.567   9.089   0.654  1.4099  0.3207  1.3072
  784SOL    HW2 7200   0.521   8.947   0.629 -0.9730  1.4301 -1.1118
  785SOL     OW 7201   9.760   0.485   1.704  0.4426 -0.0615  0.2717
  785SOL    HW1 7202   9.697   0.458   1.771 -0.4624  2.3072  0.4493
  785SOL    HW2 7203   9.775   0.405   1.652 -2.3322 -0.8376  0.5129
  786SOL     OW 7204   2.962   1.276   3.711  0.2599 -0.5625  0.8109
  786SOL    HW1 7205   3.016   1.341   3.756  0.3695 -0.9039  1.1754
  786SOL    HW2 7206   2.893   1.327   3.670  1.4558  0.0156 -0.5838
  787SOL     OW 7207   1.197   1.769   4.115 -0.3402 -0.6327 -0.5516
  787SOL    HW1 7208   1.118   1.816   4.142 -0.0571  0.7253 -1.9383
  787SOL    HW2 7209   1.189   1.683   4.156 -0.8453  0.6046  2.1604
  788SOL     OW 7210   1.385   7.995   4.509  0.4033  0.1880  0.0862
  788SOL    HW1 7211   1.415   8.034   4.591  0.2547 -0.3740  0.4168
  788SOL    HW2 7212   1.326   8.060   4.471 -0.5083 -0.0468  1.0457
  789SOL     OW 7213   3.125   1.704   5.752 -0.2950 -0.5228  0.3595
  789SOL    HW1 7214   3.058   1.704   5.683 -0.3902 -1.9544  0.4091
  789SOL    HW2 7215   3.168   1.619   5.742  0.3335 -0.3481  1.4687
  790SOL     OW 7216   1.085   1.331   4.841  0.5521  0.1522  0.0883
  790SOL    HW1 7217   1.149   1.401   4.824  1.3333 -0.2469  1.2642
  790SOL    HW2 7218   1.066   1.295   4.754  1.4747  0.6776 -0.3521
  791SOL     OW 7219   2.731   2.605   2.548 -0.9910 -0.5054 -0.4220
  791SOL    HW1 7220   2.637   2.595   2.534 -1.2319 -0.0239  0.7131
  791SOL    HW2 7221   2.738   2.651   2.632  0.2607 -0.8025 -0.3380
  792SOL     OW 7222   0.797   1.711   4.348  0.2702  0.1102  0.5910
  792SOL    HW1 7223   0.775   1.763   4.426  0.7118  2.0096 -0.4826
  792SOL    HW2 7224   0.712   1.693   4.308  0.1531  0.8599  0.4785
  793SOL     OW 7225   9.791   9.829   6.647  0.0750 -0.0080  0.2837
  793SOL    HW1 7226   9.806   9.741   6.680 -3.2145 -0.1097  1.9044
  793SOL    HW2 7227   9.712   9.823   6.594  0.6537  1.7414 -0.9101
  794SOL     OW 7228   1.962   2.170   4.778  0.1210  0.0634 -0.7095
  794SOL    HW1 7229   1.908   2.110   4.829  0.4485  0.8902  0.6494
  794SOL    HW2 7230   2.045   2.175   4.826 -0.2937  2.4997 -0.1057
  795SOL     OW 7231   2.038   0.702   7.217  0.0754  0.6959  0.0017
  795SOL    HW1 7232   2.016   0.612   7.192 -1.0781  0.9730 -0.0426
  795SOL    HW2 7233   2.083   0.693   7.300  0.7999  0.0112 -0.4540
  796SOL     OW 7234   3.050   0.272   5.357 -0.2515 -0.0234 -0.0457
  796SOL    HW1 7235   3.137   0.253   5.322 -0.0741 -1.8985  1.2416
  796SOL    HW2 7236   3.008   0.186   5.366 -0.3389  0.2383  4.0250
  797SOL     OW 7237   0.070   8.084   4.527  1.0166  0.3608 -0.6883
  797SOL    HW1 7238   0.043   8.146   4.459 -1.9862  0.1361  0.1441
  797SOL    HW2 7239   0.080   8.138   4.606 -1.8446 -0.1103  0.0947
  798SOL     OW 7240   0.316   9.049   6.226 -0.3990 -0.0018 -0.0247
  798SOL    HW1 7241   0.334   9.128   6.277 -1.1181 -1.1385  2.1250
  798SOL    HW2 7242   0.391   8.991   6.243 -0.9977 -0.6783  0.3738
  799SOL     OW 7243   9.657   1.239   5.149 -0.1453 -0.2275 -0.0018
  799SOL    HW1 7244   9.723   1.191   5.098  1.0354 -0.5014  1.6720
  799SOL    HW2 7245   9.609   1.290   5.085  0.2831 -1.6698 -1.5513
  800SOL     OW 7246   0.714   1.006   6.328 -0.1424 -0.3692 -0.1987
  800SOL    HW1 7247   0.687   1.075   6.267 -0.3800  0.8169  1.1966
  800SOL    HW2 7248   0.758   0.941   6.272 -2.1620 -0.3661 -1.9203
  801SOL     OW 7249   9.850   1.574   2.823  0.1956 -0.0612  0.4353
  801SOL    HW1 7250   9.798   1.554   2.901  1.0037 -2.2026  0.5067
  801SOL    HW2 7251   9.880   1.488   2.792  4.2994  1.0031  0.8426
  802SOL     OW 7252   2.018   8.769   6.182  0.1024 -0.1371 -0.5750
  802SOL    HW1 7253   2.010   8.847   6.127  0.2128  1.0219  0.9810
  802SOL    HW2 7254   2.056   8.802   6.264 -2.0700 -1.3805  1.0318
  803SOL     OW 7255   0.877   1.776   3.596 -0.1460 -0.3955 -0.4282
  803SOL    HW1 7256   0.807   1.837   3.619 -0.2024  0.3066 -2.3088
  803SOL    HW2 7257   0.871   1.707   3.662 -2.2539 -0.0642 -0.1995
  804SOL     OW 7258   1.639   0.687   4.053 -0.5222  0.3340 -0.4351
  804SOL    HW1 7259   1.674   0.614   4.103 -0.9670  1.2172  1.2371
  804SOL    HW2 7260   1.713   0.721   4.003  0.5857  0.9126  1.4871
  805SOL     OW 7261   1.531   1.844   2.967  0.0536 -0.0480  0.0039
  805SOL    HW1 7262   1.538   1.936   2.942  0.6965  0.4509  1.8741
  805SOL    HW2 7263   1.438   1.824   2.957 -0.3771  1.2673  1.0207
  806SOL     OW 7264   0.646   0.802   3.831 -0.2467 -0.0904 -0.6018
  806SOL    HW1 7265   0.650   0.707   3.825  0.3073 -0.1076 -0.0193
  806SOL    HW2 7266   0.588   0.828   3.759 -1.9565 -0.9956  0.3663
  807SOL     OW 7267   0.156   9.563   5.747 -0.6283 -0.4380  0.3721
  807SOL    HW1 7268   0.110   9.594   5.825  1.6552  0.5075  1.4013
  807SOL    HW2 7269   0.183   9.643   5.702  2.0021 -0.8857  1.0397
  808SOL     OW 7270   1.584   1.427   7.598 -0.1065  0.4934 -0.5896
  808SOL    HW1 7271   1.496   1.418   7.636 -0.3558 -2.1845 -1.6107
  808SOL    HW2 7272   1.577   1.503   7.540 -0.7413  2.3741  1.7653
  809SOL     OW 7273   0.801   9.217   4.179  0.3450  0.6565 -0.4248
  809SOL    HW1 7274   0.770   9.233   4.268 -0.2275  0.3168 -0.5585
  809SOL    HW2 7275   0.856   9.293   4.159  2.3451 -0.3081  1.0423
  810SOL     OW 7276   8.462   0.680   5.478  0.0683  0.3504 -0.5344
  810SOL    HW1 7277   8.520   0.603   5.477 -0.3090  0.0624 -0.8218
  810SOL    HW2 7278   8.520   0.754   5.462  0.7445  0.3511  1.6136
  811SOL     OW 7279   9.677   1.581   5.107  0.1968 -0.5831 -0.0448
  811SOL    HW1 7280   9.667   1.549   5.197 -2.6595 -2.8260 -0.9860
  811SOL    HW2 7281   9.599   1.635   5.093  0.5272 -0.3883 -1.2123
  812SOL     OW 7282   1.896   2.127   5.832 -0.0623 -0.2976  0.0873
  812SOL    HW1 7283   1.885   2.032   5.839  0.1937 -0.4103 -0.8949
  812SOL    HW2 7284   1.824   2.163   5.884 -1.0917 -1.0396 -0.7792
  813SOL     OW 7285   2.221   3.027   3.046  0.1962 -0.1311 -0.0808
  813SOL    HW1 7286   2.247   3.095   2.984  0.8623  0.3191  0.6627
  813SOL    HW2 7287   2.285   2.957   3.034 -1.9604 -1.8221 -2.6498
  814SOL     OW 7288   1.557   1.315   4.202 -0.2285  0.3544  0.0563
  814SOL    HW1 7289   1.646   1.339   4.227 -0.3610 -0.4237  1.3385
  814SOL    HW2 7290   1.558   1.220   4.193 -1.0459  0.2789  0.6114
  815SOL     OW 7291   1.172   8.943   2.081 -0.2460  0.0775  0.5270
  815SOL    HW1 7292   1.209   8.969   2.165 -1.0364  1.4433  0.4733
  815SOL    HW2 7293   1.123   8.863   2.101  0.5441 -0.2892  1.1011
  816SOL     OW 7294   9.833   1.479   4.012  0.2996 -0.3728  0.3475
  816SOL    HW1 7295   9.763   1.440   4.066  1.7511  0.6316  3.1318
  816SOL    HW2 7296   9.789   1.549   3.963 -0.7639  0.0242  1.7884
  817SOL     OW 7297   3.727   0.673   3.813 -0.2365 -0.5567 -0.1024
  817SOL    HW1 7298   3.693   0.739   3.874 -0.4124 -0.3120 -0.4629
  817SOL    HW2 7299   3.819   0.662   3.839 -0.2547 -0.3026  0.0754
  818SOL     OW 7300   0.900   8.211   5.841  0.3734  1.1047  0.2861
  818SOL    HW1 7301   0.987   8.234   5.808  0.7476  2.9817  2.3318
  818SOL    HW2 7302   0.880   8.280   5.905 -1.4531 -0.7452  1.8462
  819SOL     OW 7303   0.688   0.927   5.599  0.1770 -0.3992 -0.8522
  819SOL    HW1 7304   0.641   1.004   5.567  0.5980  1.3459  2.3186
  819SOL    HW2 7305   0.778   0.940   5.570  0.1010 -0.1047 -0.9570
  820SOL     OW 7306   0.425   9.317   6.258  0.2361 -0.0844  0.1141
  820SOL    HW1 7307   0.497   9.361   6.303  0.3832 -1.6597  1.5210
  820SOL    HW2 7308   0.440   9.335   6.166  1.7314  0.6558  0.4702
  821SOL     OW 7309   0.584   1.731   1.570 -0.1783 -0.2059  0.6046
  821SOL    HW1 7310   0.576   1.669   1.497 -0.9127 -0.2362  0.7045
  821SOL    HW2 7311   0.649   1.691   1.628 -0.0121 -0.4630  0.2450
  822SOL     OW 7312   9.473   2.148   5.359  0.0460 -0.1288 -0.5522
  822SOL    HW1 7313   9.401   2.098   5.396 -0.9487  0.0610 -2.1556
  822SOL    HW2 7314   9.506   2.094   5.287  0.7388  0.3273 -0.5931
  823SOL     OW 7315   0.648   0.519   3.794  0.0410  0.4731 -0.1133
  823SOL    HW1 7316   0.571   0.527   3.737 -1.4848 -1.5646  1.5020
  823SOL    HW2 7317   0.651   0.426   3.817  3.0813  0.4828 -0.1610
  824SOL     OW 7318   0.780   9.123   5.074  0.1270 -0.4124  0.6074
  824SOL    HW1 7319   0.834   9.065   5.020  1.4933  1.0063  0.4061
  824SOL    HW2 7320   0.828   9.132   5.155 -1.1598 -1.2681  1.5110
  825SOL     OW 7321   1.228   9.183   6.986  0.5978  0.4520  0.1772
  825SOL    HW1 7322   1.281   9.106   7.007 -1.6897 -1.1360  0.4579
  825SOL    HW2 7323   1.253   9.248   7.052  1.3664 -0.6255  0.9735
  826SOL     OW 7324   1.656   0.611   4.912  0.5307  0.3767  0.2736
  826SOL    HW1 7325   1.587   0.672   4.886  2.7065  3.1942  0.7139
  826SOL    HW2 7326   1.664   0.551   4.838 -1.2744  0.9911 -0.4608
  827SOL     OW 7327   1.523   9.134   3.261 -0.3838  0.5615 -0.2553
  827SOL    HW1 7328   1.475   9.199   3.210 -2.3512  0.1781  0.9917
  827SOL    HW2 7329   1.459   9.102   3.324  0.7012 -2.1296 -0.4050
  828SOL     OW 7330   1.695   0.241   4.769 -0.3170  0.5770  0.0445
  828SOL    HW1 7331   1.719   0.325   4.731  1.6751  0.4667  0.9263
  828SOL    HW2 7332   1.639   0.263   4.843 -1.2526  0.9971 -0.7687
  829SOL     OW 7333   0.457   0.649   5.846  0.0502 -0.5075  0.0078
  829SOL    HW1 7334   0.485   0.650   5.754 -0.5781 -0.6064 -0.1899
  829SOL    HW2 7335   0.467   0.740   5.875  1.4066 -0.7002  0.2136
  830SOL     OW 7336   0.325   8.858   4.182  0.0892 -0.5070  0.3399
  830SOL    HW1 7337   0.375   8.939   4.172 -0.3439 -0.2174  0.4885
  830SOL    HW2 7338   0.334   8.835   4.275 -2.2168  0.9910  0.9953
  831SOL     OW 7339   1.578   1.199   4.674 -0.0206 -0.3502  0.4007
  831SOL    HW1 7340   1.561   1.110   4.643 -0.8901 -0.6935  1.7782
  831SOL    HW2 7341   1.502   1.250   4.645  0.0968 -0.2379  0.2910
  832SOL     OW 7342   0.493   3.725   6.229 -0.9295  0.1723 -0.0118
  832SOL    HW1 7343   0.419   3.670   6.204 -1.7856  0.9458  0.7596
  832SOL    HW2 7344   0.461   3.815   6.218  0.1526  0.5228 -0.3958
  833SOL     OW 7345   8.730   1.766   1.757  0.0340 -0.9545  0.1109
  833SOL    HW1 7346   8.776   1.698   1.805 -0.8063 -0.0821  2.2752
  833SOL    HW2 7347   8.638   1.744   1.766 -0.3968  1.2340  2.3226
  834SOL     OW 7348   2.912   0.781   2.834 -0.5421 -0.9693  0.1778
  834SOL    HW1 7349   2.892   0.867   2.797 -1.2028 -0.3803  1.7815
  834SOL    HW2 7350   2.961   0.736   2.766 -0.2871  0.6339 -0.7544
  835SOL     OW 7351   0.139   9.668   5.115  0.1784  0.4636  0.0640
  835SOL    HW1 7352   0.130   9.573   5.110  0.7456  0.4492 -1.0674
  835SOL    HW2 7353   0.228   9.685   5.084  1.3723  1.1234  3.4782
  836SOL     OW 7354   0.430   2.890   5.588  0.1773 -0.2336  0.0110
  836SOL    HW1 7355   0.371   2.843   5.647  0.5845 -0.2337  0.4202
  836SOL    HW2 7356   0.398   2.868   5.501  0.8688 -1.9721  0.1542
  837SOL     OW 7357   1.299   0.219   4.054  0.4371  0.0761 -0.5828
  837SOL    HW1 7358   1.240   0.295   4.047  0.8409  0.6593  1.7484
  837SOL    HW2 7359   1.361   0.231   3.982  0.4056  1.8813 -0.3557
  838SOL     OW 7360   1.529   9.782   3.872 -0.2992  0.0217  0.5945
  838SOL    HW1 7361   1.570   9.868   3.887  0.0758 -0.2996  1.5066
  838SOL    HW2 7362   1.494   9.758   3.958 -0.1956 -0.8431  0.3988
  839SOL     OW 7363   1.261   2.543   6.524 -0.1665 -0.5844  0.4381
  839SOL    HW1 7364   1.267   2.589   6.607  0.8014 -1.8400  1.1033
  839SOL    HW2 7365   1.179   2.574   6.485 -0.1616  0.7327  1.4047
  840SOL     OW 7366   0.804   0.636   3.285 -0.2744  0.1953 -0.1722
  840SOL    HW1 7367   0.747   0.601   3.354 -1.4832  1.3374 -0.5314
  840SOL    HW2 7368   0.797   0.731   3.295  2.6239  0.4054  0.5664
  841SOL     OW 7369   1.209   9.282   5.923  0.3821  0.0282  0.0326
  841SOL    HW1 7370   1.154   9.337   5.867  0.3320  0.6271  0.6605
  841SOL    HW2 7371   1.158   9.202   5.936 -0.2110  0.4496  0.3473
  842SOL     OW 7372   1.657   9.809   4.696  0.1807 -0.2818 -0.1798
  842SOL    HW1 7373   1.698   9.747   4.756 -1.2410 -1.1992 -0.1067
  842SOL    HW2 7374   1.642   9.888   4.748 -3.1063 -1.8164  1.4489
  843SOL     OW 7375   2.595   1.290   4.122 -0.6407 -0.0248 -0.1858
  843SOL    HW1 7376   2.682   1.250   4.133 -0.5652  0.3690  0.6998
  843SOL    HW2 7377   2.613   1.378   4.088 -0.6733  0.1761  0.3141
  844SOL     OW 7378   9.845   9.746   3.571 -0.3021 -0.4944 -0.1015
  844SOL    HW1 7379   9.916   9.797   3.609  0.1510 -0.6805 -0.6936
  844SOL    HW2 7380   9.885   9.699   3.499 -0.4879 -2.4158  0.9785
  845SOL     OW 7381   1.544   0.290   3.587  0.1356  0.5668 -0.6769
  845SOL    HW1 7382   1.606   0.219   3.574 -2.3953 -1.4246 -2.9319
  845SOL    HW2 7383   1.571   0.358   3.524  2.9053  2.0695  1.8841
  846SOL     OW 7384   0.903   1.183   2.979  0.5236  0.3893 -0.0120
  846SOL    HW1 7385   0.975   1.247   2.976  2.0652 -1.3014 -1.7785
  846SOL    HW2 7386   0.947   1.098   2.978 -1.4722 -0.7685  1.7972
  847SOL     OW 7387   1.405   0.715   5.906 -0.2224  0.9050  0.4671
  847SOL    HW1 7388   1.339   0.673   5.962 -0.4179  1.2742  0.5203
  847SOL    HW2 7389   1.436   0.789   5.959  0.1553  0.7971  0.3963
  848SOL     OW 7390   0.937   0.414   4.706 -0.1375  0.3929 -0.5379
  848SOL    HW1 7391   0.855   0.376   4.738 -0.5236  2.4848  1.2093
  848SOL    HW2 7392   0.964   0.475   4.775  3.4829 -0.9495 -0.5569
  849SOL     OW 7393   2.178   3.219   7.077  0.3104 -0.3969 -0.4795
  849SOL    HW1 7394   2.108   3.201   7.014  0.2667 -0.5958 -0.3730
  849SOL    HW2 7395   2.185   3.314   7.078  0.6085 -0.4006 -1.1159
  850SOL     OW 7396   1.656   2.308   3.184 -0.5798 -0.1954 -0.3450
  850SOL    HW1 7397   1.594   2.381   3.181  0.9296  1.1658  0.3553
  850SOL    HW2 7398   1.664   2.280   3.093  0.0638  1.6234 -0.8880
  851SOL     OW 7399   0.684   1.037   4.632 -0.6208  0.4954 -0.0415
  851SOL    HW1 7400   0.623   1.085   4.687 -1.2053 -0.9277  0.6169
  851SOL    HW2 7401   0.633   0.964   4.597  0.3850 -0.0455 -0.4409
  852SOL     OW 7402   1.797   1.705   4.151 -0.3603  0.5067 -0.0676
  852SOL    HW1 7403   1.776   1.784   4.101  2.4513  0.3547 -1.6920
  852SOL    HW2 7404   1.744   1.637   4.110 -1.3475  1.1776  0.0637
  853SOL     OW 7405   1.390   0.391   4.733  0.4324  0.1189  0.2962
  853SOL    HW1 7406   1.295   0.388   4.720  0.5301  0.1256 -0.4253
  853SOL    HW2 7407   1.426   0.338   4.662  1.0214  0.9230 -0.0225
  854SOL     OW 7408   9.806   1.196   4.544  0.1687 -0.5570 -0.4989
  854SOL    HW1 7409   9.807   1.289   4.566 -2.0309 -0.7155  0.5777
  854SOL    HW2 7410   9.742   1.189   4.472 -0.6552 -1.3609  0.2884
  855SOL     OW 7411   0.221   8.819   3.393  0.5142 -0.6193 -0.1443
  855SOL    HW1 7412   0.183   8.840   3.479  0.3082 -0.8280 -0.1823
  855SOL    HW2 7413   0.207   8.898   3.341 -0.2490 -0.8331 -0.2831
  856SOL     OW 7414   0.963   1.209   2.618  0.5393  0.3323 -0.7115
  856SOL    HW1 7415   1.050   1.198   2.655  1.0045 -0.0188 -1.8538
  856SOL    HW2 7416   0.960   1.301   2.592  0.5659  0.3479 -0.6600
  857SOL     OW 7417   0.781   9.248   3.718 -0.6909  0.1272 -0.0577
  857SOL    HW1 7418   0.832   9.316   3.763  0.3544 -1.1158  0.7212
  857SOL    HW2 7419   0.699   9.290   3.695  0.3042  1.9278 -0.4664
  858SOL     OW 7420   1.802   2.205   5.188 -0.3271  0.5905 -0.3887
  858SOL    HW1 7421   1.767   2.150   5.258 -0.5863  0.5397 -0.5587
  858SOL    HW2 7422   1.810   2.292   5.227  0.8557  0.2682  0.1400
  859SOL     OW 7423   0.726   1.396   2.994  0.3544 -0.3100 -0.1881
  859SOL    HW1 7424   0.801   1.440   3.034  1.0252  0.2778 -2.0035
  859SOL    HW2 7425   0.760   1.313   2.962  0.4832  0.3123 -1.7615
  860SOL     OW 7426   4.266   9.831   3.519  0.3647  0.2154  0.1551
  860SOL    HW1 7427   4.278   9.897   3.450 -1.1600  0.3830  0.0200
  860SOL    HW2 7428   4.173   9.837   3.543  0.1241 -1.9934  0.0100
  861SOL     OW 7429   2.158   0.466   2.264  0.1158  0.7828  0.0655
  861SOL    HW1 7430   2.105   0.523   2.320 -1.3456 -0.1534 -0.3042
  861SOL    HW2 7431   2.228   0.435   2.322 -0.8297  0.5760  1.1358
  862SOL     OW 7432   0.966   9.423   5.238  0.3081  0.0558 -0.0923
  862SOL    HW1 7433   1.016   9.436   5.158  0.8775 -0.7328  0.1313
  862SOL    HW2 7434   0.919   9.506   5.251 -0.4222 -0.0869 -1.6603
  863SOL     OW 7435   0.918   1.664   6.577 -0.5763 -0.0642 -0.1555
  863SOL    HW1 7436   0.861   1.740   6.561  0.7973  1.6016  2.1704
  863SOL    HW2 7437   0.991   1.676   6.516 -1.8414 -1.3143 -1.9971
  864SOL     OW 7438   3.890   4.030   7.327  0.3669  0.4729 -0.6303
  864SOL    HW1 7439   3.841   3.997   7.401  0.5070  0.1655 -0.6762
  864SOL    HW2 7440   3.952   3.961   7.305  2.4518  1.7160  0.8847
  865SOL     OW 7441   0.985   0.889   6.267 -0.2218 -0.2739 -0.4458
  865SOL    HW1 7442   1.030   0.965   6.304  2.2411 -0.9572 -1.7615
  865SOL    HW2 7443   0.985   0.824   6.337  1.7215 -0.5568 -0.6640
  866SOL     OW 7444   2.481   0.812   4.021 -0.7460 -0.4479  0.4173
  866SOL    HW1 7445   2.409   0.864   3.987  0.2940  1.2010  0.5965
  866SOL    HW2 7446   2.457   0.794   4.112 -0.7540  0.4974  0.6182
  867SOL     OW 7447   2.091   0.798   6.189 -0.5513  0.3800  0.1917
  867SOL    HW1 7448   2.057   0.814   6.277 -2.8067 -1.7738 -0.1953
  867SOL    HW2 7449   2.118   0.706   6.190  2.6885  1.1827 -0.4514
  868SOL     OW 7450   1.715   0.466   5.983  0.6377 -0.6474  0.0507
  868SOL    HW1 7451   1.714   0.479   5.888  1.2324 -1.0080 -0.0093
  868SOL    HW2 7452   1.785   0.523   6.014 -0.5041  0.5924  0.4587
  869SOL     OW 7453   0.232   0.916   5.001 -0.3897  0.3413  0.1684
  869SOL    HW1 7454   0.273   0.836   5.033 -0.4615  0.7018  1.2089
  869SOL    HW2 7455   0.307   0.974   4.981 -0.3454  0.7506  1.4135
  870SOL     OW 7456   0.485   9.858   3.679 -0.9903  0.1271 -0.3490
  870SOL    HW1 7457   0.544   9.930   3.657 -1.0881  0.4392  0.3831
  870SOL    HW2 7458   0.433   9.891   3.753  1.9464 -2.0888  3.0928
  871SOL     OW 7459   0.953   1.241   3.902  0.3381 -0.5120 -1.1686
  871SOL    HW1 7460   0.999   1.157   3.903  0.4799 -0.5090 -3.1608
  871SOL    HW2 7461   0.870   1.222   3.857 -0.6590 -0.0433  0.4015
  872SOL     OW 7462   9.662   0.238   6.908  0.1259 -0.8090  0.0415
  872SOL    HW1 7463   9.597   0.232   6.838  0.3905  1.3389 -0.4676
  872SOL    HW2 7464   9.692   0.148   6.921 -3.3118 -1.9991  0.7150
  873SOL     OW 7465   8.035   0.961   4.984  0.1993  0.7185  0.0178
  873SOL    HW1 7466   8.096   0.889   4.997 -1.2824 -0.5277  0.3798
  873SOL    HW2 7467   8.057   1.024   5.052  1.8496  0.8890 -0.6245
  874SOL     OW 7468   9.253   2.721   1.887 -0.3391 -0.2578 -0.0387
  874SOL    HW1 7469   9.263   2.815   1.902  1.1338 -0.3762 -0.1342
  874SOL    HW2 7470   9.256   2.682   1.975  0.0650 -0.2836 -0.0597
  875SOL     OW 7471   9.208   1.747   5.273 -0.3367  0.0768 -0.1910
  875SOL    HW1 7472   9.198   1.674   5.334  0.0784  0.0489 -0.1520
  875SOL    HW2 7473   9.229   1.822   5.328 -1.0510  0.2912 -0.2076
  876SOL     OW 7474   0.275   9.816   2.993  0.0090 -0.3144 -0.4367
  876SOL    HW1 7475   0.208   9.885   2.992 -0.1925 -0.4576  0.8013
  876SOL    HW2 7476   0.227   9.736   3.012  0.2893 -0.7654 -1.5478
  877SOL     OW 7477   0.647   8.263   5.373  0.6000 -0.1539  0.1868
  877SOL    HW1 7478   0.576   8.314   5.335 -1.2976 -2.1699  0.8487
  877SOL    HW2 7479   0.658   8.299   5.461 -0.8174 -0.9047  0.6974
  878SOL     OW 7480   1.688   1.149   7.609 -0.5126 -0.1696 -0.2333
  878SOL    HW1 7481   1.693   1.242   7.589 -0.9319 -0.1474 -0.2314
  878SOL    HW2 7482   1.639   1.144   7.691 -2.7755 -0.5497 -1.5442
  879SOL     OW 7483   2.314   9.402   7.816  0.0496  0.3521  0.5406
  879SOL    HW1 7484   2.304   9.427   7.907 -0.1698  2.3981  0.0120
  879SOL    HW2 7485   2.225   9.388   7.785 -0.0017  1.2803  0.2437
  880SOL     OW 7486   0.820   0.589   6.227 -0.1217 -0.0471  0.1977
  880SOL    HW1 7487   0.740   0.539   6.209 -1.0219  1.2144  0.4932
  880SOL    HW2 7488   0.797   0.645   6.301  1.4592 -0.5388  1.1027
  881SOL     OW 7489   9.472   9.508   6.153  0.0731  0.2389 -0.7085
  881SOL    HW1 7490   9.403   9.556   6.199  0.9377 -0.1045  1.0259
  881SOL    HW2 7491   9.428   9.430   6.120 -0.9235  1.2683 -1.9213
  882SOL     OW 7492   9.441   1.626   4.495 -0.0216 -0.8453 -0.2704
  882SOL    HW1 7493   9.501   1.699   4.481 -0.5186  0.0590  1.7751
  882SOL    HW2 7494   9.480   1.577   4.567 -1.3181 -0.6602  0.5927
  883SOL     OW 7495   0.871   0.796   4.009  0.0318  0.0091 -0.2381
  883SOL    HW1 7496   0.804   0.746   3.963 -0.1826 -1.4958  1.5433
  883SOL    HW2 7497   0.873   0.757   4.097  1.6709  1.5023  0.4497
  884SOL     OW 7498   1.159   1.140   5.605 -0.6175 -0.0560  0.1907
  884SOL    HW1 7499   1.193   1.172   5.688 -0.3098 -0.9818  0.4341
  884SOL    HW2 7500   1.209   1.060   5.587 -1.5021 -0.5308 -0.2818
  885SOL     OW 7501   9.216   9.312   4.036 -0.6339  0.0659 -0.0722
  885SOL    HW1 7502   9.128   9.305   3.999 -0.2146 -1.4478 -0.8911
  885SOL    HW2 7503   9.230   9.406   4.048 -1.7654  0.4369 -1.3991
  886SOL     OW 7504   0.844   0.224   4.421 -0.0301  0.5586  0.1962
  886SOL    HW1 7505   0.764   0.277   4.416  0.2959  1.2394  1.6175
  886SOL    HW2 7506   0.914   0.285   4.398  0.0809 -0.1102 -1.3337
  887SOL     OW 7507   0.195   2.052   5.842  0.1117 -0.2716 -0.0243
  887SOL    HW1 7508   0.280   2.093   5.863  1.2703 -1.8988 -1.2833
  887SOL    HW2 7509   0.215   1.959   5.836 -1.7233 -0.6482 -0.7082
  888SOL     OW 7510   2.826   7.963   6.299  0.4309  0.3292 -0.4575
  888SOL    HW1 7511   2.747   7.981   6.247 -0.4190 -0.0905  0.6349
  888SOL    HW2 7512   2.896   8.010   6.254 -0.2564 -0.0523 -1.9848
  889SOL     OW 7513   1.996   8.797   4.197 -0.1604 -0.4356 -0.0067
  889SOL    HW1 7514   1.934   8.814   4.126 -1.1846 -2.2740  0.3950
  889SOL    HW2 7515   1.947   8.819   4.277  0.9330  1.4837  0.2053
  890SOL     OW 7516   2.060   1.193   5.159  0.0053  0.0431 -0.0702
  890SOL    HW1 7517   1.986   1.160   5.109 -0.3052 -1.6636  1.4352
  890SOL    HW2 7518   2.113   1.240   5.094 -2.0376  0.7823 -1.3010
  891SOL     OW 7519   1.347   9.463   5.290 -0.0982  0.2935  0.0127
  891SOL    HW1 7520   1.377   9.485   5.202 -0.5782  0.2994 -0.1516
  891SOL    HW2 7521   1.280   9.528   5.310  0.3747  0.6047  0.5900
  892SOL     OW 7522   3.616   7.933   3.976 -0.3362  0.5252 -0.4961
  892SOL    HW1 7523   3.612   7.882   3.895  1.5274  1.5006 -1.2564
  892SOL    HW2 7524   3.606   8.024   3.949  0.4622  0.8827  0.3145
  893SOL     OW 7525   1.445   1.031   7.674  0.0009 -0.1986  0.2308
  893SOL    HW1 7526   1.500   1.023   7.752  0.9029  2.1062 -0.0719
  893SOL    HW2 7527   1.485   0.972   7.610  2.2905  1.4197  0.0053
  894SOL     OW 7528   1.584   9.408   6.161 -0.1263  0.4051 -0.4613
  894SOL    HW1 7529   1.508   9.399   6.219 -0.2654  0.9824 -0.5447
  894SOL    HW2 7530   1.653   9.441   6.217  0.2916 -0.8138 -0.2227
  895SOL     OW 7531   0.452   1.459   2.954  0.0748 -0.1851 -0.0377
  895SOL    HW1 7532   0.540   1.420   2.950  0.2917  0.3711 -0.9853
  895SOL    HW2 7533   0.394   1.385   2.971  0.5260 -0.8829 -1.3581
  896SOL     OW 7534   1.216   1.020   4.547 -0.1205  0.8721 -0.2002
  896SOL    HW1 7535   1.145   1.057   4.494 -1.9507 -1.8895  0.1096
  896SOL    HW2 7536   1.180   0.938   4.580  2.5888  0.3076  1.6129
  897SOL     OW 7537   9.101   0.426   4.354  0.0547 -0.3947 -0.3685
  897SOL    HW1 7538   9.081   0.455   4.265 -0.0898 -0.0074 -0.2118
  897SOL    HW2 7539   9.164   0.354   4.342  0.5988  0.1385 -0.7512
  898SOL     OW 7540   0.561   8.914   4.383  0.0640 -0.1772 -0.5102
  898SOL    HW1 7541   0.541   8.979   4.315 -2.5022  0.3721  0.6466
  898SOL    HW2 7542   0.515   8.946   4.461 -1.0364 -3.1868  0.1939
  899SOL     OW 7543   0.326   8.087   6.011 -0.1279  0.1467  0.6494
  899SOL    HW1 7544   0.285   8.145   6.075  1.9965  0.9589  1.3507
  899SOL    HW2 7545   0.292   8.117   5.927  1.5200  3.0926  0.8880
  900SOL     OW 7546   0.901   8.953   4.902  0.3795 -0.3278 -0.0337
  900SOL    HW1 7547   0.855   8.915   4.827 -1.1738  1.0268  0.1620
  900SOL    HW2 7548   0.853   8.921   4.979 -1.0678  1.9739  0.1299
  901SOL     OW 7549   0.402   1.063   4.159  0.1106  0.5254  0.4287
  901SOL    HW1 7550   0.342   1.127   4.198  0.5598  1.9570 -1.0641
  901SOL    HW2 7551   0.354   0.980   4.160 -1.8743  1.5817 -0.5699
  902SOL     OW 7552   7.999   1.580   4.506  0.1396 -0.0165  0.2663
  902SOL    HW1 7553   7.984   1.630   4.586  1.2902 -0.4043  0.7448
  902SOL    HW2 7554   8.064   1.630   4.457 -1.4261  0.8498 -1.0421
  903SOL     OW 7555   6.069   0.041   3.298  0.5611 -0.0259  0.0995
  903SOL    HW1 7556   6.004   0.048   3.227 -1.4865 -1.8364  1.6545
  903SOL    HW2 7557   6.125   0.118   3.287 -0.6100  0.5741 -2.5335
  904SOL     OW 7558   1.502   1.523   4.430 -0.7668  0.2766 -0.2300
  904SOL    HW1 7559   1.510   1.475   4.513  3.4504  0.4975 -0.2892
  904SOL    HW2 7560   1.479   1.457   4.366 -2.5937 -0.1640  0.7988
  905SOL     OW 7561   2.329   1.562   4.177 -0.3630 -0.5636  0.1628
  905SOL    HW1 7562   2.317   1.559   4.272  0.7636 -0.7343  0.3143
  905SOL    HW2 7563   2.275   1.636   4.148  2.8879  2.6765  1.5614
  906SOL     OW 7564   2.487   8.243   7.101  0.2080  0.8139 -0.0263
  906SOL    HW1 7565   2.393   8.225   7.110  0.4532  0.1951  1.5387
  906SOL    HW2 7566   2.493   8.339   7.101 -0.3867  0.8532  0.3008
  907SOL     OW 7567   0.590   0.888   6.977  0.1585  0.2507 -0.5603
  907SOL    HW1 7568   0.552   0.962   6.931 -0.7190  1.2790  1.6566
  907SOL    HW2 7569   0.558   0.811   6.929 -1.8427  1.2138 -0.8836
  908SOL     OW 7570   1.943   9.758   3.904  0.5884  0.0296  0.1037
  908SOL    HW1 7571   1.985   9.692   3.848  0.4124 -0.4446  0.5184
  908SOL    HW2 7572   1.925   9.831   3.845  0.7768 -0.2977 -0.3705
  909SOL     OW 7573   0.535   0.593   6.208  0.7786  0.4755  0.5066
  909SOL    HW1 7574   0.462   0.531   6.216  0.2249  1.0106 -0.2291
  909SOL    HW2 7575   0.494   0.674   6.178  1.9331  0.1241 -2.3083
  910SOL     OW 7576   2.824   9.086   6.156  0.0744  0.0509 -0.1520
  910SOL    HW1 7577   2.806   9.174   6.123 -0.2228 -0.0857 -0.3577
  910SOL    HW2 7578   2.884   9.049   6.091  1.6563  0.7343  0.8627
  911SOL     OW 7579   0.400   9.595   4.546  0.6035 -1.0225  0.6754
  911SOL    HW1 7580   0.449   9.569   4.467 -1.0339  1.8152 -1.4982
  911SOL    HW2 7581   0.423   9.687   4.558  0.9161 -1.4221  3.7213
  912SOL     OW 7582   1.251   1.807   3.196  0.3592  0.5820 -0.3015
  912SOL    HW1 7583   1.249   1.852   3.280 -1.3035 -0.1438  0.0793
  912SOL    HW2 7584   1.238   1.876   3.131 -0.0737  0.9286  0.1494
  913SOL     OW 7585   0.284   1.525   3.271 -0.1391  0.0542 -0.5610
  913SOL    HW1 7586   0.260   1.479   3.352  1.9070 -0.3063 -0.1019
  913SOL    HW2 7587   0.201   1.538   3.225 -1.4199  0.5464  1.7267
  914SOL     OW 7588   0.053   0.765   4.815 -0.2993 -0.0414 -0.5012
  914SOL    HW1 7589   0.025   0.849   4.779 -0.4411 -0.0880 -0.4984
  914SOL    HW2 7590   0.128   0.787   4.870 -0.1714  0.0484 -0.7097
  915SOL     OW 7591   9.457   2.139   4.035  0.4134 -0.8509  0.6730
  915SOL    HW1 7592   9.419   2.093   4.110 -0.2863  0.3120  1.0453
  915SOL    HW2 7593   9.546   2.159   4.062  1.7249 -4.2563 -0.4848
  916SOL     OW 7594   1.585   9.006   3.880  0.3859 -0.2382 -0.5953
  916SOL    HW1 7595   1.601   9.087   3.832 -0.0866  0.5666  0.5629
  916SOL    HW2 7596   1.617   9.023   3.968  3.2261 -2.4044 -1.0675
  917SOL     OW 7597   2.956   1.676   5.234  0.3140  0.4288 -0.3226
  917SOL    HW1 7598   2.887   1.710   5.292 -1.4206 -4.2135  0.7423
  917SOL    HW2 7599   2.908   1.639   5.160  1.7582 -1.6247 -0.2859
  918SOL     OW 7600   1.119   9.581   3.957 -0.3181 -0.1470  0.5123
  918SOL    HW1 7601   1.205   9.546   3.935 -0.4224 -0.4112  0.5197
  918SOL    HW2 7602   1.133   9.674   3.970 -0.0035 -0.2173  0.6741
  919SOL     OW 7603   1.574   1.060   4.146  0.1214 -0.1996 -0.0330
  919SOL    HW1 7604   1.513   1.023   4.082 -0.9184  2.5483 -0.7773
  919SOL    HW2 7605   1.661   1.041   4.110 -0.4059 -0.3086 -1.2896
  920SOL     OW 7606   0.315   1.786   6.411 -0.4811 -0.2420 -0.1876
  920SOL    HW1 7607   0.401   1.788   6.369 -1.2259 -1.1749 -1.8571
  920SOL    HW2 7608   0.269   1.862   6.376 -0.9938 -0.8400 -0.8479
  921SOL     OW 7609   2.883   0.653   5.252 -0.5360  0.0761  0.5146
  921SOL    HW1 7610   2.843   0.581   5.203 -1.0685  0.2040  0.7497
  921SOL    HW2 7611   2.825   0.665   5.327  0.2019 -0.0291  1.1055
  922SOL     OW 7612   9.806   1.118   6.326  0.5269  0.3657  0.1069
  922SOL    HW1 7613   9.872   1.073   6.378  2.7078 -0.3605 -2.9905
  922SOL    HW2 7614   9.740   1.051   6.309  0.6056  0.1528  0.6282
  923SOL     OW 7615   9.668   1.157   4.309 -0.1724  0.6706 -0.2551
  923SOL    HW1 7616   9.590   1.210   4.325 -0.1677  1.3065 -2.0701
  923SOL    HW2 7617   9.636   1.075   4.272 -0.0101  0.8671 -0.8493
  924SOL     OW 7618   1.116   2.487   2.699  0.3316  0.6536 -0.2711
  924SOL    HW1 7619   1.143   2.437   2.622  0.2767 -1.3812  0.9582
  924SOL    HW2 7620   1.190   2.546   2.717 -0.2953  2.3715 -2.7485
  925SOL     OW 7621   0.147   1.516   2.384 -0.6931  0.2348 -0.7286
  925SOL    HW1 7622   0.156   1.590   2.444  1.6255  0.4956 -1.3283
  925SOL    HW2 7623   0.058   1.524   2.350 -3.0411 -1.1000  4.0821
  926SOL     OW 7624   0.562   1.477   4.128  0.5689  0.5841 -0.1932
  926SOL    HW1 7625   0.475   1.505   4.098  0.7424  0.2268 -1.0374
  926SOL    HW2 7626   0.543   1.421   4.204  0.0614  0.5553 -0.3348
  927SOL     OW 7627   1.950   1.028   3.531 -0.0909  0.2218  0.3491
  927SOL    HW1 7628   1.876   1.087   3.542 -0.2966  0.0770 -0.2278
  927SOL    HW2 7629   2.027   1.082   3.551 -0.3886  0.1024  2.0063
  928SOL     OW 7630   0.867   0.324   3.437  0.7223 -0.2386  0.2084
  928SOL    HW1 7631   0.842   0.274   3.359  0.7508  0.8289 -0.5115
  928SOL    HW2 7632   0.961   0.311   3.445  1.0648  1.1325 -1.0704
  929SOL     OW 7633   1.017   9.009   7.094 -0.1570 -0.2736  0.3102
  929SOL    HW1 7634   1.072   9.084   7.074 -1.5022  1.3303  2.2127
  929SOL    HW2 7635   0.927   9.043   7.091 -0.7809 -1.6190  1.8672
  930SOL     OW 7636   0.563   9.070   4.158  0.2756 -0.4762 -0.1156
  930SOL    HW1 7637   0.635   9.035   4.106  0.5690  2.1288 -1.6250
  930SOL    HW2 7638   0.587   9.161   4.175 -1.2345 -0.3935  2.0689
  931SOL     OW 7639   1.402   0.343   5.807 -0.3315 -0.1029 -0.2469
  931SOL    HW1 7640   1.334   0.398   5.846  0.6943  1.9045 -1.1040
  931SOL    HW2 7641   1.362   0.308   5.728 -1.0786 -0.8314  0.4320
  932SOL     OW 7642   0.473   9.361   3.917 -0.0937  0.2343  0.1127
  932SOL    HW1 7643   0.395   9.387   3.869 -0.3769 -0.4718  0.1934
  932SOL    HW2 7644   0.517   9.444   3.937  0.5120  0.5218 -2.1226
  933SOL     OW 7645   4.170   9.656   5.524  0.3081 -0.3079 -0.5810
  933SOL    HW1 7646   4.178   9.563   5.501 -0.1114 -0.1816 -1.2789
  933SOL    HW2 7647   4.116   9.693   5.454 -0.7593  0.1681  0.4690
  934SOL     OW 7648   1.412   9.469   4.239  0.3690 -0.2766 -0.3914
  934SOL    HW1 7649   1.412   9.549   4.186 -2.9886  2.5644  3.2901
  934SOL    HW2 7650   1.486   9.481   4.299  0.8113 -0.7355 -0.8407
  935SOL     OW 7651   0.802   0.667   5.853  0.4487 -0.7874 -0.4830
  935SOL    HW1 7652   0.779   0.574   5.862  1.5399 -0.8971  1.9440
  935SOL    HW2 7653   0.897   0.668   5.849  0.5913  0.2807  1.6521
  936SOL     OW 7654   9.648   9.538   3.359  0.0896 -0.0920  0.3521
  936SOL    HW1 7655   9.729   9.542   3.411 -0.5458  2.4761  1.2709
  936SOL    HW2 7656   9.671   9.580   3.276 -0.3620  0.9148  0.7303
  937SOL     OW 7657   3.367   2.327   4.678 -0.5723 -0.5729 -0.5532
  937SOL    HW1 7658   3.363   2.293   4.768  1.6999  2.3113  0.8148
  937SOL    HW2 7659   3.285   2.374   4.666 -0.1415  0.6024  0.8103
  938SOL     OW 7660   0.680   0.872   5.030 -0.0857  0.1442 -0.2119
  938SOL    HW1 7661   0.661   0.812   4.958 -1.0851  1.8586 -1.4534
  938SOL    HW2 7662   0.600   0.924   5.041  0.8601  1.5382  0.5186
  939SOL     OW 7663   9.816   1.028   4.925  0.0525  0.5616  0.1593
  939SOL    HW1 7664   9.876   0.978   4.980  0.7887  0.0708 -1.0384
  939SOL    HW2 7665   9.871   1.097   4.887  0.0132 -0.1473 -1.2862
  940SOL     OW 7666   4.336   0.022   5.058  0.3594  0.0971 -0.4877
  940SOL    HW1 7667   4.306   0.112   5.047  0.5762  0.1611 -0.5814
  940SOL    HW2 7668   4.432   0.029   5.061  0.3312  0.1641  2.0587
  941SOL     OW 7669   0.907   9.687   5.420  0.0236  0.5147  0.8883
  941SOL    HW1 7670   0.999   9.667   5.401 -0.1668  0.4857 -0.0526
  941SOL    HW2 7671   0.903   9.692   5.516  0.8747 -0.1077  0.9729
  942SOL     OW 7672   8.989   1.544   7.016 -0.5294  0.0427 -0.5000
  942SOL    HW1 7673   8.952   1.579   6.934 -0.4306 -1.6471 -1.3032
  942SOL    HW2 7674   9.083   1.537   6.998 -0.2418  1.2586  0.3933
  943SOL     OW 7675   2.523   0.962   4.914  0.4072  0.0347  0.0663
  943SOL    HW1 7676   2.589   0.984   4.848 -0.2329 -2.0224 -1.3668
  943SOL    HW2 7677   2.565   0.898   4.970  0.5631  0.9357  1.0142
  944SOL     OW 7678   0.530   0.607   1.155 -0.0282 -0.0117  0.2136
  944SOL    HW1 7679   0.530   0.520   1.195 -1.3107  0.3187  1.0041
  944SOL    HW2 7680   0.572   0.663   1.220  0.8372 -0.0310 -0.3138
  945SOL     OW 7681   0.591   8.641   4.061  0.2741  0.5802  0.7158
  945SOL    HW1 7682   0.603   8.678   4.148  0.7552 -0.0456  0.9194
  945SOL    HW2 7683   0.550   8.555   4.076 -2.4597  1.6796  0.1689
  946SOL     OW 7684   1.657   8.645   5.379  0.0079 -0.3034  0.1563
  946SOL    HW1 7685   1.581   8.595   5.351 -0.0284  0.6441 -1.6121
  946SOL    HW2 7686   1.728   8.581   5.384 -0.7244 -1.0693  1.1564
  947SOL     OW 7687   1.557   0.317   4.504 -0.3927  0.0131 -0.1717
  947SOL    HW1 7688   1.587   0.366   4.580 -2.4356  1.8112 -0.4211
  947SOL    HW2 7689   1.623   0.335   4.436 -0.0242  0.7092  0.3588
  948SOL     OW 7690   0.127   0.121   4.562  0.9767 -0.2110 -0.1996
  948SOL    HW1 7691   0.097   0.102   4.473  1.1563  1.2071 -0.5884
  948SOL    HW2 7692   0.086   0.054   4.616  0.7505 -1.0148 -1.3274
  949SOL     OW 7693   1.463   1.021   4.430  1.2188  0.3385  0.5065
  949SOL    HW1 7694   1.456   1.055   4.340  0.1175  1.6219  1.0419
  949SOL    HW2 7695   1.373   1.000   4.455  1.5563 -0.3011  1.2027
  950SOL     OW 7696   1.401   9.445   2.549  0.6092  0.0693  0.0675
  950SOL    HW1 7697   1.410   9.383   2.621 -1.6751  0.3558  0.6731
  950SOL    HW2 7698   1.468   9.512   2.566  3.6671 -2.4356 -1.0027
  951SOL     OW 7699   2.163   0.782   5.645  0.0715  0.0334  0.3560
  951SOL    HW1 7700   2.229   0.714   5.632  0.3338  0.6637 -2.1678
  951SOL    HW2 7701   2.162   0.796   5.740  1.8009 -1.6889  0.7138
  952SOL     OW 7702   1.387   9.388   8.218  0.3399  0.0386  0.6611
  952SOL    HW1 7703   1.474   9.414   8.249 -0.0233  0.5581  1.2676
  952SOL    HW2 7704   1.330   9.405   8.293 -0.9286  3.2789 -0.8586
  953SOL     OW 7705   0.176   2.032   4.089  0.0683  0.0529  0.2587
  953SOL    HW1 7706   0.113   1.981   4.139 -0.2373 -0.3164 -0.4799
  953SOL    HW2 7707   0.208   1.971   4.022  0.9042  0.3582  0.3753
  954SOL     OW 7708   8.734   0.126   5.261 -0.2445  0.0114  0.4783
  954SOL    HW1 7709   8.734   0.074   5.180 -0.8852 -0.8799  1.0271
  954SOL    HW2 7710   8.770   0.211   5.235  0.2056 -0.4827 -0.5920
  955SOL     OW 7711   3.040   0.342   4.901 -0.8082 -0.0862 -0.1939
  955SOL    HW1 7712   2.969   0.389   4.856 -0.9922 -2.3569 -2.4904
  955SOL    HW2 7713   3.000   0.310   4.981 -1.1512  2.1267  0.5865
  956SOL     OW 7714   2.211   0.321   3.688  0.2684  0.5579 -0.9865
  956SOL    HW1 7715   2.217   0.318   3.784 -1.4241  1.0616 -0.8353
  956SOL    HW2 7716   2.234   0.233   3.660  2.1545  0.7634 -0.2343
  957SOL     OW 7717   2.723   4.248   5.050  0.3799  0.2363  0.6120
  957SOL    HW1 7718   2.715   4.204   5.135  2.1202 -0.3359  0.5072
  957SOL    HW2 7719   2.635   4.241   5.012 -0.2686 -0.0659  2.0691
  958SOL     OW 7720   0.460   1.111   4.450 -0.0316 -0.5776 -0.3272
  958SOL    HW1 7721   0.457   1.207   4.447  0.1707 -0.5381  0.5609
  958SOL    HW2 7722   0.514   1.087   4.374  1.4424  0.1201  0.4604
  959SOL     OW 7723   1.045   9.821   4.656 -0.4779  0.3022  0.0115
  959SOL    HW1 7724   0.963   9.871   4.651 -0.1986  0.7720  0.0986
  959SOL    HW2 7725   1.104   9.866   4.596 -0.2953 -0.0659 -0.0876
  960SOL     OW 7726   0.554   9.113   3.846 -0.0641 -0.1057  0.1894
  960SOL    HW1 7727   0.478   9.062   3.871  0.1532 -0.5048  0.0461
  960SOL    HW2 7728   0.535   9.202   3.876 -1.4251  0.2347 -1.5714
  961SOL     OW 7729   1.112   2.798   2.529  0.3993 -0.2859 -0.1286
  961SOL    HW1 7730   1.171   2.770   2.600 -0.7681  0.1618  1.0553
  961SOL    HW2 7731   1.044   2.731   2.526 -1.0506  1.0717  1.0476
  962SOL     OW 7732   1.780   0.043   2.712  0.5517  0.2593 -0.3242
  962SOL    HW1 7733   1.801  -0.002   2.631  0.7117  0.0664 -0.1787
  962SOL    HW2 7734   1.749   0.129   2.685  0.5839  0.1874 -0.5895
  963SOL     OW 7735   2.342   0.693   4.571 -0.0779 -0.1884 -0.1984
  963SOL    HW1 7736   2.290   0.616   4.595 -1.4767  0.1575 -1.9669
  963SOL    HW2 7737   2.371   0.729   4.655 -2.6968 -0.4085  0.8969
  964SOL     OW 7738   2.588   8.120   4.817  0.0663  1.1278 -0.0475
  964SOL    HW1 7739   2.663   8.163   4.776 -0.3964  2.0276  0.0015
  964SOL    HW2 7740   2.543   8.191   4.863 -1.2873  0.7913 -0.7997
  965SOL     OW 7741   0.217   0.851   4.154 -0.1243  0.0356  0.6907
  965SOL    HW1 7742   0.174   0.797   4.088 -0.4939  2.0957 -0.8438
  965SOL    HW2 7743   0.145   0.898   4.197  0.3069  1.0183  0.3850
  966SOL     OW 7744   1.216   2.541   4.755 -0.4258  0.2087 -0.4997
  966SOL    HW1 7745   1.128   2.537   4.717 -0.3861 -3.2309 -0.5790
  966SOL    HW2 7746   1.202   2.522   4.848  0.1680  0.5358 -0.3397
  967SOL     OW 7747   0.850   7.763   5.932 -0.2590 -0.3653  0.0622
  967SOL    HW1 7748   0.868   7.701   5.861 -2.0760 -0.8469 -0.0231
  967SOL    HW2 7749   0.776   7.726   5.978 -1.2478  1.6003  0.1777
  968SOL     OW 7750   1.379   0.511   6.838 -0.1234  0.6165  0.0191
  968SOL    HW1 7751   1.464   0.519   6.882  0.3336 -0.6364 -0.5893
  968SOL    HW2 7752   1.369   0.417   6.822 -0.9578  0.8903 -1.2142
  969SOL     OW 7753   9.646   7.874   4.722  0.3511 -0.7116  0.4995
  969SOL    HW1 7754   9.612   7.858   4.810  1.8190 -1.3269  0.9985
  969SOL    HW2 7755   9.633   7.791   4.676 -3.2737  0.4846 -0.9595
  970SOL     OW 7756   0.447   9.124   6.606  0.6172 -0.6682 -0.2349
  970SOL    HW1 7757   0.512   9.056   6.619 -1.3938 -2.6211  0.1654
  970SOL    HW2 7758   0.428   9.157   6.693  1.5585  0.4331 -0.4241
  971SOL     OW 7759   1.617   0.926   6.467  0.2438 -0.1557  0.1946
  971SOL    HW1 7760   1.692   0.980   6.491  1.6060 -2.0766  0.4614
  971SOL    HW2 7761   1.616   0.855   6.531 -0.7125 -1.1685 -0.8866
  972SOL     OW 7762   1.407   9.050   5.890 -0.0134 -0.2692  0.0345
  972SOL    HW1 7763   1.361   8.999   5.957  0.4464 -0.2685  0.3531
  972SOL    HW2 7764   1.337   9.092   5.840 -0.3604 -0.1522  0.6061
  973SOL     OW 7765   0.509   0.269   7.293  1.5410 -0.5070 -0.5130
  973SOL    HW1 7766   0.570   0.220   7.239  0.4642  0.0839 -2.3440
  973SOL    HW2 7767   0.423   0.253   7.254  0.4787 -1.1712  1.8744
  974SOL     OW 7768   2.075   1.315   5.973  0.1247 -0.1159 -0.1266
  974SOL    HW1 7769   2.107   1.226   5.966  0.5961 -0.0616  1.0629
  974SOL    HW2 7770   1.980   1.306   5.985  0.3418 -0.5687  1.5281
  975SOL     OW 7771   9.820   1.143   8.055 -0.0915  0.1796 -0.8869
  975SOL    HW1 7772   9.913   1.158   8.039 -0.1678  1.7253 -0.0277
  975SOL    HW2 7773   9.777   1.223   8.025 -0.8978  0.4395  0.8279
  976SOL     OW 7774   7.067   1.495   7.762 -0.4182 -0.5121  0.0923
  976SOL    HW1 7775   7.132   1.536   7.705 -0.2677 -0.8310  0.0360
  976SOL    HW2 7776   7.114   1.425   7.807 -0.8404 -1.0641 -0.3137
  977SOL     OW 7777   3.704   9.250   6.592  0.5200 -0.3953  0.0639
  977SOL    HW1 7778   3.727   9.322   6.651  3.6292 -2.4495  1.6177
  977SOL    HW2 7779   3.702   9.290   6.505  2.3617  1.5597  0.8303
  978SOL     OW 7780   1.850   1.127   6.499 -0.0010 -0.2669 -0.1922
  978SOL    HW1 7781   1.847   1.132   6.595 -0.3180 -0.6432 -0.1778
  978SOL    HW2 7782   1.789   1.195   6.470 -0.1069 -0.3310 -0.1212
  979SOL     OW 7783   0.208   0.485   5.926  0.3925  0.1580  0.0098
  979SOL    HW1 7784   0.237   0.485   6.017  1.2851 -0.7666 -0.2470
  979SOL    HW2 7785   0.289   0.477   5.875 -0.2315 -2.1517 -0.7537
  980SOL     OW 7786   1.243   0.650   8.099  0.1636  0.4192 -0.4189
  980SOL    HW1 7787   1.214   0.730   8.055 -0.0605  1.1324  0.9662
  980SOL    HW2 7788   1.338   0.654   8.095  0.1552  0.8133 -0.2578
  981SOL     OW 7789   8.953   0.542   7.467 -0.3021 -0.0755 -0.4594
  981SOL    HW1 7790   8.943   0.583   7.553  0.1710 -0.8099 -0.0454
  981SOL    HW2 7791   9.015   0.598   7.420 -0.1300  0.0169 -0.1223
  982SOL     OW 7792   1.564   0.745   6.988 -0.6194  0.4262 -0.2715
  982SOL    HW1 7793   1.615   0.757   6.908  0.9342  1.3915  0.8037
  982SOL    HW2 7794   1.573   0.828   7.035 -1.2073 -0.2366  1.0682
  983SOL     OW 7795   9.135   0.305   7.959  0.1518  0.1267  0.5785
  983SOL    HW1 7796   9.207   0.341   7.906 -0.0912 -0.0675  0.1079
  983SOL    HW2 7797   9.165   0.314   8.049  0.7286  0.1374  0.3924
  984SOL     OW 7798   0.120   0.099   6.015  1.1351  0.2157  0.4684
  984SOL    HW1 7799   0.118   0.083   5.921 -0.6815  1.0641  0.3201
  984SOL    HW2 7800   0.194   0.157   6.028  0.3536  1.5496 -0.7301
  985SOL     OW 7801   9.529   0.186   6.690 -0.2106  0.6084  0.3102
  985SOL    HW1 7802   9.479   0.107   6.670 -2.6810  2.0592  0.2683
  985SOL    HW2 7803   9.547   0.225   6.605  0.8865  0.1899  0.3369
  986SOL     OW 7804   1.446   0.473   7.899 -0.1329 -0.0169  0.1783
  986SOL    HW1 7805   1.493   0.517   7.971 -0.1226  1.0658 -0.4602
  986SOL    HW2 7806   1.365   0.442   7.939 -0.6855  1.6226  0.4440
  987SOL     OW 7807   9.506   1.265   5.923  0.4899  0.0444 -0.2816
  987SOL    HW1 7808   9.483   1.346   5.878 -0.3999 -0.3650 -0.5882
  987SOL    HW2 7809   9.492   1.285   6.016  3.8906  1.4167  0.0864
  988SOL     OW 7810   3.207   7.866   5.052 -0.5263 -0.0351 -0.8214
  988SOL    HW1 7811   3.240   7.929   5.117  0.4181 -1.0594 -0.2654
  988SOL    HW2 7812   3.285   7.841   5.002 -1.2242  0.6579 -2.3194
  989SOL     OW 7813   9.183   0.322   6.511  0.2360 -0.0469  0.3315
  989SOL    HW1 7814   9.241   0.390   6.476 -1.5624  1.8536  0.8233
  989SOL    HW2 7815   9.095   0.359   6.503 -1.0411 -3.0237 -0.8904
  990SOL     OW 7816   1.897   1.855   8.924  0.2492 -0.1685  0.0463
  990SOL    HW1 7817   1.958   1.782   8.935 -1.4565 -1.3399  2.5025
  990SOL    HW2 7818   1.850   1.836   8.844  0.3202 -1.4220  0.2860
  991SOL     OW 7819   0.405   8.734   6.254  0.1571 -0.1607 -0.1127
  991SOL    HW1 7820   0.344   8.718   6.326 -0.0579 -0.6938 -0.4140
  991SOL    HW2 7821   0.491   8.740   6.297 -0.2208  1.8261  0.4624
  992SOL     OW 7822   0.704   0.848   8.165 -0.2391  0.1643 -0.6020
  992SOL    HW1 7823   0.774   0.813   8.109 -1.1458 -2.4027 -0.2652
  992SOL    HW2 7824   0.625   0.843   8.111 -0.5276  1.1076 -0.2824
  993SOL     OW 7825   2.667   0.707   4.976 -0.6269  0.4518  0.0923
  993SOL    HW1 7826   2.725   0.739   5.045  1.2404 -0.3564 -1.0148
  993SOL    HW2 7827   2.673   0.612   4.982 -0.8533  0.3665 -0.8245
  994SOL     OW 7828   0.966   0.499   6.604  0.5113 -0.0916  0.1110
  994SOL    HW1 7829   1.049   0.453   6.615 -1.0111 -2.6900  1.4632
  994SOL    HW2 7830   0.927   0.459   6.527  0.8652  1.8621 -1.1780
  995SOL     OW 7831   2.692   2.033   6.117 -0.3945  0.2152 -0.2460
  995SOL    HW1 7832   2.773   1.993   6.148 -1.1317 -0.0493  1.5309
  995SOL    HW2 7833   2.632   1.959   6.106 -0.9943  0.5715  0.5177
  996SOL     OW 7834   0.104   9.281   5.688  0.0428  0.0064  0.2359
  996SOL    HW1 7835   0.102   9.362   5.740  1.2733 -1.4114  2.6658
  996SOL    HW2 7836   0.194   9.249   5.697 -0.2970 -1.4107 -1.0674
  997SOL     OW 7837   1.690   7.957   6.752 -0.5173 -0.1567 -0.1112
  997SOL    HW1 7838   1.743   7.969   6.673  0.4552 -0.1590  0.5284
  997SOL    HW2 7839   1.618   8.019   6.742 -1.7674 -1.7904 -2.1206
  998SOL     OW 7840   1.234   9.831   6.233  0.3095  0.1450  0.0956
  998SOL    HW1 7841   1.140   9.813   6.228  0.5834 -1.5411  0.3925
  998SOL    HW2 7842   1.240   9.926   6.238 -1.3165  0.3743 -1.3028
  999SOL     OW 7843   1.477   1.594   4.941 -0.5467  0.1460  0.0492
  999SOL    HW1 7844   1.548   1.595   4.877  0.1605  0.1540  0.8158
  999SOL    HW2 7845   1.397   1.603   4.889 -0.0027 -0.1353 -0.8471
 1000SOL     OW 7846   0.614   8.920   6.682  0.4317  0.3268  0.8954
 1000SOL    HW1 7847   0.604   8.838   6.730  0.9758  0.9293  2.0972
 1000SOL    HW2 7848   0.707   8.943   6.693  0.3792  0.9013  0.2367
 1001SOL     OW 7849   1.378   0.939   6.879 -0.8499  0.7291 -0.3703
 1001SOL    HW1 7850   1.386   0.892   6.796 -0.0242 -0.6134  0.4288
 1001SOL    HW2 7851   1.313   0.889   6.929  0.7573 -0.2199  0.8742
 1002SOL     OW 7852   0.437   7.545   9.783 -0.4855 -0.2360  0.2282
 1002SOL    HW1 7853   0.406   7.632   9.758 -0.5688 -0.2704  0.2117
 1002SOL    HW2 7854   0.528   7.559   9.811 -0.5028 -0.1425  0.2379
 1003SOL     OW 7855   1.817   9.417   6.361  0.3087  0.0635  0.5039
 1003SOL    HW1 7856   1.903   9.457   6.347 -1.2666  3.8010  0.2521
 1003SOL    HW2 7857   1.784   9.458   6.442 -1.0268 -1.7145  0.9264
 1004SOL     OW 7858   1.959   9.214   8.602 -0.0570  0.1156  0.1346
 1004SOL    HW1 7859   1.927   9.257   8.522  1.6886  0.9538 -0.1572
 1004SOL    HW2 7860   1.900   9.140   8.614  0.2427 -0.6688 -2.5372
 1005SOL     OW 7861   1.005   9.829   8.064 -0.5014 -0.0056 -0.4004
 1005SOL    HW1 7862   1.016   9.845   7.971 -0.7856 -1.1342 -0.6359
 1005SOL    HW2 7863   1.057   9.898   8.106 -0.0704  0.2887 -1.3806
 1006SOL     OW 7864   0.756   9.113   7.125 -0.6117 -0.7921  0.2085
 1006SOL    HW1 7865   0.663   9.090   7.117 -1.1561  1.1038  0.5183
 1006SOL    HW2 7866   0.756   9.208   7.135  1.3682 -0.7770  0.4368
 1007SOL     OW 7867   2.827   0.091   7.090 -0.0632 -0.3279  0.2488
 1007SOL    HW1 7868   2.915   0.062   7.066  0.6447  1.7376  0.1675
 1007SOL    HW2 7869   2.820   0.069   7.183  0.1576 -1.3721  0.0301
 1008SOL     OW 7870   1.378   9.538   5.032  0.0973  0.4218 -0.1178
 1008SOL    HW1 7871   1.317   9.599   4.992 -0.0768 -0.2119 -0.8301
 1008SOL    HW2 7872   1.420   9.493   4.959  1.1298  0.5600  0.3644
 1009SOL     OW 7873   3.840   1.005   4.461  0.1559 -0.4290  0.2652
 1009SOL    HW1 7874   3.798   1.061   4.526  0.5075  1.1761 -0.8488
 1009SOL    HW2 7875   3.933   1.010   4.482  0.3814  0.8916 -0.9056
 1010SOL     OW 7876   0.744   2.774   6.407 -0.2190  0.6038  0.7484
 1010SOL    HW1 7877   0.735   2.865   6.379  0.0809 -0.2568 -2.5647
 1010SOL    HW2 7878   0.655   2.747   6.427 -0.7000  0.9186 -0.8547
 1011SOL     OW 7879   1.694   8.867   6.311 -0.0822  0.4013 -0.3540
 1011SOL    HW1 7880   1.649   8.950   6.299 -2.1352 -0.6328 -0.2890
 1011SOL    HW2 7881   1.694   8.827   6.224 -1.3291 -0.5420  0.0396
 1012SOL     OW 7882   8.632   0.461   5.471 -0.2160 -0.0850  0.2816
 1012SOL    HW1 7883   8.711   0.410   5.451  0.0414  0.2373  0.4515
 1012SOL    HW2 7884   8.621   0.451   5.566 -1.0337 -1.0487  0.1011
 1013SOL     OW 7885   0.277   1.312   4.217  0.0363  0.3924 -0.2427
 1013SOL    HW1 7886   0.323   1.365   4.282 -1.1941  1.1917  0.0165
 1013SOL    HW2 7887   0.187   1.309   4.249 -0.2618 -0.4957 -1.1252
 1014SOL     OW 7888   9.619   1.007   9.012 -0.2292 -0.6843  0.1408
 1014SOL    HW1 7889   9.656   1.003   8.924  1.0401  2.1395  0.4402
 1014SOL    HW2 7890   9.693   1.032   9.068 -1.3288 -0.9085  1.7715
 1015SOL     OW 7891   0.438   1.068   7.383  0.1187  0.4187 -0.3598
 1015SOL    HW1 7892   0.468   0.985   7.346 -0.2619  1.4650 -3.3169
 1015SOL    HW2 7893   0.344   1.070   7.365 -0.3144  0.5577  1.7215
 1016SOL     OW 7894   0.506   0.392   8.076 -0.2753  0.1284  0.0171
 1016SOL    HW1 7895   0.416   0.396   8.042  0.2940  1.4749 -1.4674
 1016SOL    HW2 7896   0.519   0.478   8.116  0.6912  0.3345 -0.7229
 1017SOL     OW 7897   0.699   1.960   3.711  0.3196  0.9932 -0.3109
 1017SOL    HW1 7898   0.721   2.002   3.794  2.2132  3.2917 -1.8626
 1017SOL    HW2 7899   0.640   2.021   3.667 -0.1289  0.1142 -0.9711
 1018SOL     OW 7900   1.013   1.933   6.760  0.3204 -0.1442 -0.1832
 1018SOL    HW1 7901   1.021   1.854   6.814 -0.0025 -0.3702 -0.4585
 1018SOL    HW2 7902   1.088   1.930   6.701 -0.0748 -0.6275 -0.6753
 1019SOL     OW 7903   9.820   9.596   7.452  0.3477  0.5270  0.3473
 1019SOL    HW1 7904   9.830   9.522   7.512  0.3826  0.6090  0.4429
 1019SOL    HW2 7905   9.728   9.622   7.462 -0.0731 -0.4214 -0.7616
 1020SOL     OW 7906   8.556   1.347   5.605 -0.5917  0.0789 -0.1529
 1020SOL    HW1 7907   8.591   1.267   5.566 -0.0438 -0.3984  1.2637
 1020SOL    HW2 7908   8.483   1.317   5.658 -0.3589  0.5139  0.4167
 1021SOL     OW 7909   0.630   2.401   5.787 -0.5720 -0.6439 -0.1544
 1021SOL    HW1 7910   0.690   2.367   5.720  0.7507  1.3849 -0.1123
 1021SOL    HW2 7911   0.678   2.390   5.869 -0.8481 -0.2868  0.0563
 1022SOL     OW 7912   8.407   2.885   5.189  0.7774 -0.5426 -0.1275
 1022SOL    HW1 7913   8.431   2.854   5.276 -0.6284 -0.4176  0.3251
 1022SOL    HW2 7914   8.465   2.960   5.174  0.8829 -0.4296  0.7957
 1023SOL     OW 7915   2.538   9.828   8.172  0.3583 -0.5599 -0.4365
 1023SOL    HW1 7916   2.450   9.794   8.187  0.9773 -1.6685  1.0676
 1023SOL    HW2 7917   2.585   9.755   8.132  1.3018 -1.0117  1.3849
 1024SOL     OW 7918   0.861   9.459   7.011  0.1392 -0.1608  0.0884
 1024SOL    HW1 7919   0.875   9.435   6.919 -0.7681 -0.6101  0.0604
 1024SOL    HW2 7920   0.903   9.545   7.020 -0.7711  0.4264 -1.0467
 1025SOL     OW 7921   1.587   9.439   8.770  0.0814  1.0624  0.0267
 1025SOL    HW1 7922   1.561   9.388   8.693 -1.0883 -0.4607  1.3611
 1025SOL    HW2 7923   1.509   9.488   8.794  0.4279  1.4983  0.2823
 1026SOL     OW 7924   9.645   0.927   6.250  0.0665  0.1492 -0.2544
 1026SOL    HW1 7925   9.677   0.839   6.269  0.8748  0.6632  0.9035
 1026SOL    HW2 7926   9.558   0.913   6.213  0.5187 -1.1628 -0.8930
 1027SOL     OW 7927   1.909   0.895   6.817  0.0287  0.1242 -0.0527
 1027SOL    HW1 7928   1.936   0.953   6.745  1.6174 -1.1279 -0.5138
 1027SOL    HW2 7929   1.840   0.841   6.779 -0.1730  0.4558 -0.1689
 1028SOL     OW 7930   0.279   3.600   7.484 -0.7117  0.1291  0.2825
 1028SOL    HW1 7931   0.335   3.523   7.499  0.3912  0.7620 -0.4056
 1028SOL    HW2 7932   0.321   3.670   7.535 -1.7362  0.2808  0.9443
 1029SOL     OW 7933   1.492   6.797   7.268  0.5256  0.3630  0.0202
 1029SOL    HW1 7934   1.494   6.827   7.177 -0.9657  0.8297  0.1212
 1029SOL    HW2 7935   1.577   6.825   7.304  1.5802 -0.7486 -1.4756
 1030SOL     OW 7936   0.384   9.214   6.861 -0.8310 -0.2522  0.3800
 1030SOL    HW1 7937   0.341   9.292   6.827 -1.0901 -0.7559 -0.4983
 1030SOL    HW2 7938   0.458   9.247   6.912 -0.0313  0.5552 -1.2163
 1031SOL     OW 7939   1.017   0.425   4.343  0.0034  1.0016  0.0575
 1031SOL    HW1 7940   1.039   0.510   4.382 -0.9969  1.1162  0.4046
 1031SOL    HW2 7941   0.971   0.447   4.261 -2.3785  0.8962  1.2738
 1032SOL     OW 7942   0.853   1.479   6.772  0.3134  0.5521  0.6312
 1032SOL    HW1 7943   0.874   1.543   6.704 -0.5560  1.2449  0.9873
 1032SOL    HW2 7944   0.929   1.480   6.830 -0.0597  1.9695  1.1395
 1033SOL     OW 7945   0.303   0.177   7.141  0.5132  0.3596 -0.2471
 1033SOL    HW1 7946   0.361   0.138   7.076 -0.2421 -1.2253 -0.0143
 1033SOL    HW2 7947   0.218   0.136   7.126  0.2739  0.1099  1.5760
 1034SOL     OW 7948   1.976   3.376   6.946  0.6467  0.0050 -0.0824
 1034SOL    HW1 7949   1.904   3.376   7.009  0.5318  1.8787 -0.1532
 1034SOL    HW2 7950   1.964   3.296   6.895  0.0281 -0.9202  1.4529
 1035SOL     OW 7951   2.831   3.316   7.528  0.0526  0.4767 -0.2820
 1035SOL    HW1 7952   2.848   3.228   7.493  2.3986  0.6059  0.3529
 1035SOL    HW2 7953   2.821   3.303   7.622 -1.2307  0.7211 -0.3715
 1036SOL     OW 7954   0.748   9.379   4.969  0.3912 -0.2966 -0.0375
 1036SOL    HW1 7955   0.834   9.391   4.927 -0.1387 -1.1559 -1.4306
 1036SOL    HW2 7956   0.754   9.293   5.011  0.4573 -0.0225  0.5263
 1037SOL     OW 7957   8.326   9.616   6.883 -0.0767 -0.1250  0.7251
 1037SOL    HW1 7958   8.324   9.601   6.788  0.8072  0.5275  0.5859
 1037SOL    HW2 7959   8.414   9.651   6.899 -1.0964  2.4093  1.3458
 1038SOL     OW 7960   0.416   0.692   5.110  0.4545  0.8049  0.1592
 1038SOL    HW1 7961   0.368   0.640   5.046  0.7942  2.1313 -1.2320
 1038SOL    HW2 7962   0.508   0.681   5.085  0.6145  1.0479  0.6384
 1039SOL     OW 7963   1.407   0.887   6.284  0.5438  0.1153  0.3259
 1039SOL    HW1 7964   1.485   0.918   6.331  0.6572 -0.3628  0.4558
 1039SOL    HW2 7965   1.401   0.794   6.306 -1.7390  0.7056  2.7505
 1040SOL     OW 7966   1.008   1.574   9.107 -0.1849  0.0016  0.0505
 1040SOL    HW1 7967   0.932   1.631   9.106 -1.2481 -1.3505  0.4440
 1040SOL    HW2 7968   0.973   1.487   9.084  1.5201 -0.3421 -1.5434
 1041SOL     OW 7969   9.704   1.749   7.931 -0.1921 -0.1157  0.0315
 1041SOL    HW1 7970   9.792   1.731   7.964  0.0887  0.3856 -0.4230
 1041SOL    HW2 7971   9.710   1.734   7.837 -1.3588 -2.9925  0.3134
 1042SOL     OW 7972   1.615   0.047   5.073 -0.9677  0.2613 -0.8197
 1042SOL    HW1 7973   1.633   0.110   5.142 -0.8033 -0.1802 -0.4569
 1042SOL    HW2 7974   1.666  -0.031   5.097 -1.1208  0.0107 -1.2915
 1043SOL     OW 7975   2.142   1.130   6.701  0.8618  0.1798  0.3750
 1043SOL    HW1 7976   2.141   1.136   6.605  1.9410 -0.3581  0.3077
 1043SOL    HW2 7977   2.057   1.164   6.729 -0.0110 -0.9100 -0.8536
 1044SOL     OW 7978   0.738   4.055   6.648  0.3264  0.2613  0.0141
 1044SOL    HW1 7979   0.664   4.023   6.598  0.5944 -0.8970  0.3180
 1044SOL    HW2 7980   0.787   3.975   6.672  2.9705  1.0557 -2.1546
 1045SOL     OW 7981   0.970   0.429   5.799 -0.1116 -0.5992  0.2457
 1045SOL    HW1 7982   0.977   0.363   5.730 -2.7999  0.6472 -1.4265
 1045SOL    HW2 7983   0.885   0.412   5.840 -0.2850  1.0024  0.6361
 1046SOL     OW 7984   1.378   9.690   6.044 -0.7371  0.2583 -0.5623
 1046SOL    HW1 7985   1.449   9.744   6.012 -0.3761 -0.3358 -0.7875
 1046SOL    HW2 7986   1.342   9.738   6.119  2.1953 -1.0547  1.8740
 1047SOL     OW 7987   9.664   9.369   6.514  0.1340 -0.5262 -0.1103
 1047SOL    HW1 7988   9.744   9.390   6.562  0.6841 -1.0041 -0.7812
 1047SOL    HW2 7989   9.629   9.292   6.558  0.9100 -1.2714 -0.7462
 1048SOL     OW 7990   1.945   1.056   7.414  0.7415  0.1929  0.1803
 1048SOL    HW1 7991   1.955   1.146   7.382 -2.0543  0.2905 -0.7053
 1048SOL    HW2 7992   1.879   1.062   7.483  1.7074 -0.9853  1.2419
 1049SOL     OW 7993   9.285   7.273   6.805 -0.1322  0.2922 -0.9070
 1049SOL    HW1 7994   9.354   7.316   6.855 -0.6690 -0.7236  0.7948
 1049SOL    HW2 7995   9.263   7.335   6.735  2.0210  0.9068 -1.1008
 1050SOL     OW 7996   0.894   9.361   6.026  0.9577 -0.2956  0.2021
 1050SOL    HW1 7997   0.934   9.448   6.030 -1.4961  0.9515 -0.5574
 1050SOL    HW2 7998   0.855   9.349   6.113 -1.7704  1.0314 -0.7218
 1051SOL     OW 7999   1.209   0.796   7.054 -0.1042  0.6297 -0.1624
 1051SOL    HW1 8000   1.117   0.815   7.037  0.0668  2.5306  0.8377
 1051SOL    HW2 8001   1.220   0.705   7.025 -2.3350  0.2772 -0.0996
 1052SOL     OW 8002   9.835   0.582   6.991  0.4095 -0.3730  0.1682
 1052SOL    HW1 8003   9.783   0.657   6.962 -1.2822 -1.0725  1.2280
 1052SOL    HW2 8004   9.857   0.537   6.910 -0.8209 -0.1424 -0.3311
 1053SOL     OW 8005   9.393   9.409   9.442  0.2474 -0.0002  0.0652
 1053SOL    HW1 8006   9.312   9.436   9.485 -0.2494  0.1907 -0.9399
 1053SOL    HW2 8007   9.403   9.317   9.465 -1.1252 -0.4741 -1.0420
 1054SOL     OW 8008   1.304   1.367   6.351 -0.1591 -0.5180 -0.1200
 1054SOL    HW1 8009   1.234   1.431   6.359 -0.7015 -1.3293  2.2394
 1054SOL    HW2 8010   1.380   1.419   6.325 -0.8611  0.9096  0.5618
 1055SOL     OW 8011   1.069   9.000   6.282  0.3775  0.2757 -0.5689
 1055SOL    HW1 8012   0.987   9.002   6.232  0.3412  1.7147 -0.5047
 1055SOL    HW2 8013   1.057   8.928   6.344 -1.0416  0.7551 -0.2346
 1056SOL     OW 8014   1.227   1.408   7.365 -0.2854  1.2580  0.1697
 1056SOL    HW1 8015   1.230   1.477   7.298 -2.2275  0.4129 -0.8724
 1056SOL    HW2 8016   1.217   1.327   7.316 -0.8024  0.5055  1.4654
 1057SOL     OW 8017   9.030   8.907   6.752  0.4256 -0.0755  0.1067
 1057SOL    HW1 8018   9.023   8.813   6.771  1.0852 -0.7370 -2.5085
 1057SOL    HW2 8019   8.969   8.948   6.813 -1.7795 -2.4629 -0.3154
 1058SOL     OW 8020   1.023   9.142   8.841 -0.0718  0.1544 -0.2219
 1058SOL    HW1 8021   1.091   9.201   8.873 -0.2006 -0.8477  2.0453
 1058SOL    HW2 8022   0.964   9.131   8.915 -0.2089 -2.5597 -0.6355
 1059SOL     OW 8023   9.327   9.647   5.148 -0.2200  0.2262 -0.2998
 1059SOL    HW1 8024   9.421   9.648   5.133 -0.0358  0.3385  0.7610
 1059SOL    HW2 8025   9.310   9.726   5.200 -0.6057 -0.7253  1.0726
 1060SOL     OW 8026   1.247   0.076   4.378 -0.1226 -0.5771  0.3559
 1060SOL    HW1 8027   1.266   0.168   4.362 -0.4419 -0.5130  0.3318
 1060SOL    HW2 8028   1.314   0.048   4.440 -0.4688 -0.1297  0.9414
 1061SOL     OW 8029   0.473   9.641   7.143 -0.3144 -0.1003  0.1804
 1061SOL    HW1 8030   0.446   9.701   7.074 -0.4606  1.0922  1.2454
 1061SOL    HW2 8031   0.426   9.559   7.123 -2.6036  1.0763  0.4338
 1062SOL     OW 8032   1.880   2.161   8.330  0.3967  0.0051 -0.1247
 1062SOL    HW1 8033   1.894   2.090   8.393  2.2993 -1.7545 -2.3463
 1062SOL    HW2 8034   1.936   2.138   8.255 -0.8079  2.6042 -1.9696
 1063SOL     OW 8035   1.757   9.844   6.166  0.3098 -0.7776 -0.2319
 1063SOL    HW1 8036   1.742   9.803   6.252 -1.6282  0.1195 -0.0842
 1063SOL    HW2 8037   1.834   9.898   6.178 -2.3756  2.9508  2.4326
 1064SOL     OW 8038   0.126   0.009   6.286  0.1496  0.0733  0.2185
 1064SOL    HW1 8039   0.220   0.026   6.289 -0.0582  1.3768 -0.0750
 1064SOL    HW2 8040   0.097   0.049   6.204 -0.7313  0.0052  0.4859
 1065SOL     OW 8041   0.938   1.094   7.950  0.4295 -0.3862 -0.0435
 1065SOL    HW1 8042   1.027   1.126   7.931  0.9102 -0.7751  1.4473
 1065SOL    HW2 8043   0.941   1.069   8.042 -1.7621  1.3842  0.5764
 1066SOL     OW 8044   0.936   8.172   6.214  0.2991  0.2302  0.2867
 1066SOL    HW1 8045   0.936   8.088   6.167  2.9468  1.4615 -2.2167
 1066SOL    HW2 8046   0.957   8.149   6.304 -3.5621 -2.1212  0.8068
 1067SOL     OW 8047   1.818   0.643   5.355  0.4374 -0.0390 -0.3149
 1067SOL    HW1 8048   1.846   0.690   5.433 -2.0626  0.6886  0.2374
 1067SOL    HW2 8049   1.733   0.604   5.379  0.3257 -1.0839 -2.1816
 1068SOL     OW 8050   1.614   8.804   7.283  0.6219 -0.3708 -0.0852
 1068SOL    HW1 8051   1.595   8.888   7.242  1.4778 -0.1096  0.0464
 1068SOL    HW2 8052   1.528   8.762   7.291 -0.0085  1.0479  1.0642
 1069SOL     OW 8053   9.334   8.745   5.666 -0.4411  0.1180  0.0315
 1069SOL    HW1 8054   9.333   8.659   5.709  2.7530 -0.4554 -0.7694
 1069SOL    HW2 8055   9.402   8.794   5.713 -0.8884  1.5250 -0.7415
 1070SOL     OW 8056   1.461   0.326   9.774  0.2202  0.3589  0.4534
 1070SOL    HW1 8057   1.516   0.254   9.805  0.1543  0.5103  0.9295
 1070SOL    HW2 8058   1.442   0.377   9.852 -2.1472 -0.7223  0.6784
 1071SOL     OW 8059   2.371   0.499   6.335  1.0922 -0.3553  0.0172
 1071SOL    HW1 8060   2.373   0.430   6.402  1.2504 -0.1249  0.2537
 1071SOL    HW2 8061   2.335   0.575   6.381 -0.8095 -0.7762 -0.7190
 1072SOL     OW 8062   0.613   0.859   7.293 -0.3894  0.3695 -0.4339
 1072SOL    HW1 8063   0.627   0.882   7.201 -1.6586  0.4822 -0.6191
 1072SOL    HW2 8064   0.610   0.764   7.294 -2.4630  0.3917 -0.8788
 1073SOL     OW 8065   1.041   8.334   4.829 -0.7661 -0.1868 -0.5130
 1073SOL    HW1 8066   1.064   8.277   4.902 -0.5991 -0.5782 -0.8660
 1073SOL    HW2 8067   1.039   8.422   4.867 -2.0133 -0.5282  0.2601
 1074SOL     OW 8068   1.175   8.400   6.292  0.1760  0.0847  0.2375
 1074SOL    HW1 8069   1.095   8.448   6.271  0.7157  0.2034 -1.6988
 1074SOL    HW2 8070   1.180   8.332   6.225  1.2691 -0.4419  0.8345
 1075SOL     OW 8071   1.583   9.008   5.528  0.0301 -0.0696  0.1720
 1075SOL    HW1 8072   1.543   9.062   5.461  0.1109 -0.3436 -0.0994
 1075SOL    HW2 8073   1.605   9.069   5.599  2.0079  0.6188 -0.9603
 1076SOL     OW 8074   0.174   0.575   8.144  0.4368  0.1567  0.6441
 1076SOL    HW1 8075   0.149   0.609   8.058  0.2856 -2.2848 -0.3342
 1076SOL    HW2 8076   0.264   0.605   8.156 -0.3392  2.6389  0.8227
 1077SOL     OW 8077   3.191   1.155   6.583  0.4341  0.0621 -0.4899
 1077SOL    HW1 8078   3.170   1.113   6.499  2.2568 -1.0949 -0.4282
 1077SOL    HW2 8079   3.205   1.247   6.561  0.4600 -0.1456 -1.3888
 1078SOL     OW 8080   0.792   0.870   6.076  0.3256  0.1756 -0.2704
 1078SOL    HW1 8081   0.769   0.777   6.073  0.9825 -0.0816  1.4859
 1078SOL    HW2 8082   0.875   0.873   6.123 -0.1183  1.7318  0.4954
 1079SOL     OW 8083   1.910   0.827   5.150  0.2015 -0.1128 -0.0437
 1079SOL    HW1 8084   1.877   0.762   5.213 -0.5018 -0.9589 -1.2350
 1079SOL    HW2 8085   1.984   0.868   5.195  0.6320 -1.6932  0.7873
 1080SOL     OW 8086   1.151   7.896   6.596 -0.3786 -0.5696  0.2260
 1080SOL    HW1 8087   1.194   7.857   6.672 -2.9914 -1.3376  1.4343
 1080SOL    HW2 8088   1.107   7.973   6.630 -2.8200 -1.7319 -0.0974
 1081SOL     OW 8089   2.766   0.564   7.058 -1.0264  0.3365 -0.0337
 1081SOL    HW1 8090   2.707   0.489   7.062 -1.0737  0.3357 -0.6833
 1081SOL    HW2 8091   2.713   0.638   7.085 -1.0530  0.1776  0.3508
 1082SOL     OW 8092   1.368   0.708   4.882 -0.1573 -0.2958 -0.0644
 1082SOL    HW1 8093   1.335   0.727   4.794 -1.5294  2.4534  0.9287
 1082SOL    HW2 8094   1.289   0.699   4.936  0.6846 -0.1392  1.2261
 1083SOL     OW 8095   0.313   2.664   6.271  0.2363 -0.0170 -0.4327
 1083SOL    HW1 8096   0.295   2.581   6.225 -1.9117  0.1412 -0.0124
 1083SOL    HW2 8097   0.354   2.719   6.205 -1.1557 -0.4054 -1.7018
 1084SOL     OW 8098   1.434   1.290   7.118  0.2340  0.6647  0.3860
 1084SOL    HW1 8099   1.451   1.383   7.132  0.7330  0.2885  2.8142
 1084SOL    HW2 8100   1.364   1.269   7.180 -0.5833 -0.3795 -0.8557
 1085SOL     OW 8101   9.465   8.215   5.918  0.0182 -0.8361  0.0126
 1085SOL    HW1 8102   9.539   8.199   5.860  0.4090  1.9590 -0.3847
 1085SOL    HW2 8103   9.498   8.276   5.984 -1.7449  0.0182  0.1785
 1086SOL     OW 8104   8.417   1.665   4.297  0.0178  0.1908 -0.4820
 1086SOL    HW1 8105   8.502   1.692   4.262 -0.5479  1.9380 -0.6110
 1086SOL    HW2 8106   8.378   1.746   4.329 -1.6122 -0.5745 -0.4439
 1087SOL     OW 8107   3.220   2.031   6.434  0.0134 -0.2933  0.3247
 1087SOL    HW1 8108   3.249   1.943   6.455  1.3797 -0.2985 -1.3387
 1087SOL    HW2 8109   3.261   2.050   6.349 -0.9849  1.5908  0.2098
 1088SOL     OW 8110   0.381   0.032   6.679 -0.6536  0.5416  0.0282
 1088SOL    HW1 8111   0.425   0.058   6.597 -0.9806  3.2349  0.5977
 1088SOL    HW2 8112   0.354  -0.059   6.664  1.6700  0.0518 -1.7960
 1089SOL     OW 8113   9.853   2.318   5.613 -0.4397 -0.3007  0.1760
 1089SOL    HW1 8114   9.759   2.327   5.598 -0.6457 -1.9718  0.3211
 1089SOL    HW2 8115   9.894   2.352   5.533 -1.2113 -0.7647 -0.4208
 1090SOL     OW 8116   2.143   0.490   5.021 -0.3219 -0.1624  0.1401
 1090SOL    HW1 8117   2.157   0.569   4.968  1.5394  0.1633  1.0222
 1090SOL    HW2 8118   2.070   0.512   5.078  1.0548  1.5123  1.3540
 1091SOL     OW 8119   0.411   1.223   7.941 -0.3254 -0.1130  0.2921
 1091SOL    HW1 8120   0.433   1.207   7.849  0.1876 -1.8354  0.6740
 1091SOL    HW2 8121   0.316   1.217   7.944 -0.4706  1.4274 -0.3517
 1092SOL     OW 8122   3.815   0.968   8.386 -0.1801  0.2289  0.3870
 1092SOL    HW1 8123   3.732   0.968   8.339 -0.2451 -1.3648  0.4473
 1092SOL    HW2 8124   3.880   0.995   8.321 -0.4293 -0.8302 -0.3209
 1093SOL     OW 8125   1.098   0.389   3.776 -0.3758 -0.1222 -0.2152
 1093SOL    HW1 8126   1.116   0.462   3.717 -1.1793  0.1985 -0.0713
 1093SOL    HW2 8127   1.126   0.311   3.727  0.5011  0.2676 -0.3608
 1094SOL     OW 8128   0.025   2.456   9.400  0.4623  0.3926  0.3577
 1094SOL    HW1 8129  -0.029   2.398   9.346  1.3291 -1.2074  1.1199
 1094SOL    HW2 8130  -0.006   2.544   9.379 -0.5372 -0.2882 -1.2766
 1095SOL     OW 8131   2.035   9.774   8.322  0.1506 -0.4323  0.1008
 1095SOL    HW1 8132   1.976   9.710   8.281  0.9582 -0.7305 -0.6087
 1095SOL    HW2 8133   1.984   9.809   8.394 -0.9055 -0.7074 -0.4809
 1096SOL     OW 8134   1.318   8.913   8.892  0.4659 -0.0233  0.1296
 1096SOL    HW1 8135   1.334   8.934   8.800 -0.8422 -2.0103 -0.6163
 1096SOL    HW2 8136   1.405   8.916   8.932  1.0574  0.9052 -1.1569
 1097SOL     OW 8137   0.749   0.407   5.960  0.1919 -0.3047 -0.6461
 1097SOL    HW1 8138   0.793   0.332   5.999  0.7457  1.3340  2.1765
 1097SOL    HW2 8139   0.656   0.387   5.967  0.3491 -1.4407 -1.5559
 1098SOL     OW 8140   1.210   1.166   7.675  0.5836  0.3809  0.2249
 1098SOL    HW1 8141   1.177   1.079   7.695  1.1452  0.3847  1.2399
 1098SOL    HW2 8142   1.299   1.152   7.644  0.1267  0.4786 -1.1947
 1099SOL     OW 8143   9.323   0.991   5.623 -0.1889  0.5859 -0.4078
 1099SOL    HW1 8144   9.326   0.958   5.533 -0.4112 -1.2583  0.2129
 1099SOL    HW2 8145   9.375   1.071   5.621  2.0049 -0.7719 -1.6527
 1100SOL     OW 8146   2.681   9.833   4.299  0.6178 -0.1927 -0.6958
 1100SOL    HW1 8147   2.606   9.809   4.353  0.6863 -1.1649 -1.0151
 1100SOL    HW2 8148   2.745   9.867   4.361 -0.4635  1.6912 -0.5295
 1101SOL     OW 8149   0.832   9.659   4.479 -0.3834 -0.1871  0.9716
 1101SOL    HW1 8150   0.821   9.739   4.531  0.7045  1.7171 -1.4550
 1101SOL    HW2 8151   0.927   9.652   4.467 -0.5369 -1.2137  0.2558
 1102SOL     OW 8152   1.225   0.429   6.494  0.0575  0.2089  0.9448
 1102SOL    HW1 8153   1.317   0.403   6.487 -0.1130  0.0833 -1.8598
 1102SOL    HW2 8154   1.220   0.510   6.443 -1.3744  0.3162  1.2303
 1103SOL     OW 8155   1.652   9.240   3.734  0.3980  0.2732 -0.1579
 1103SOL    HW1 8156   1.739   9.275   3.753  0.0087  0.7714  0.7881
 1103SOL    HW2 8157   1.595   9.316   3.736 -0.2615 -0.2310  0.5642
 1104SOL     OW 8158   9.089   8.881   7.248  0.0716 -0.6420 -0.5650
 1104SOL    HW1 8159   9.007   8.859   7.204  0.4445 -0.6358 -1.2906
 1104SOL    HW2 8160   9.125   8.954   7.197  0.6352 -0.8005 -0.4035
 1105SOL     OW 8161   0.874   3.047   6.639 -0.4752 -0.1132  0.6879
 1105SOL    HW1 8162   0.924   3.129   6.642  2.0322 -1.5388  0.5740
 1105SOL    HW2 8163   0.872   3.024   6.546  0.8185 -1.2419  0.8993
 1106SOL     OW 8164   0.814   2.853   4.358  0.4689 -0.0755  0.0721
 1106SOL    HW1 8165   0.755   2.880   4.288 -0.9332  0.5905  1.4660
 1106SOL    HW2 8166   0.761   2.797   4.415  1.5296 -0.4685  0.7040
 1107SOL     OW 8167   0.074   2.154   5.295  0.4017 -0.2146 -0.2684
 1107SOL    HW1 8168   0.053   2.139   5.387  0.5372  0.4292 -0.1319
 1107SOL    HW2 8169  -0.009   2.180   5.256  0.2036 -1.1136 -0.4708
 1108SOL     OW 8170   1.060   0.175   6.549  0.0411 -0.9348 -0.4417
 1108SOL    HW1 8171   1.117   0.098   6.556  1.2111 -0.5540 -3.9443
 1108SOL    HW2 8172   1.118   0.246   6.524 -1.2901  0.7650  1.0736
 1109SOL     OW 8173   0.633   1.318   7.494  0.3061 -0.4367 -0.0703
 1109SOL    HW1 8174   0.687   1.397   7.498 -3.2969  2.3041 -0.2990
 1109SOL    HW2 8175   0.642   1.278   7.580  1.9320  0.3929  0.1902
 1110SOL     OW 8176   1.323   8.504   5.951  0.0819 -0.0518 -0.4254
 1110SOL    HW1 8177   1.247   8.553   5.982 -0.2779 -0.2900 -0.9307
 1110SOL    HW2 8178   1.398   8.550   5.991 -0.3818 -0.6055  1.1611
 1111SOL     OW 8179   1.254   9.208   6.414 -0.2629  0.2088 -0.1787
 1111SOL    HW1 8180   1.335   9.168   6.443 -1.2255 -0.4242  1.7882
 1111SOL    HW2 8181   1.222   9.151   6.344 -0.1448 -0.8590  0.6108
 1112SOL     OW 8182   9.148   0.046   7.614  0.4681 -0.1150  0.0234
 1112SOL    HW1 8183   9.131  -0.048   7.619 -1.1059  0.1989  1.1261
 1112SOL    HW2 8184   9.131   0.068   7.522 -3.6545 -0.2009  0.5832
 1113SOL     OW 8185   1.489   9.440   5.824 -0.2775  1.1075 -0.2656
 1113SOL    HW1 8186   1.404   9.441   5.780 -0.3236  2.2832 -0.1857
 1113SOL    HW2 8187   1.470   9.403   5.910 -0.1772 -1.2381 -1.1827
 1114SOL     OW 8188   1.054   9.368   6.364 -0.4222  0.0171 -0.5271
 1114SOL    HW1 8189   1.113   9.312   6.415 -1.2277 -1.4357 -1.1141
 1114SOL    HW2 8190   1.110   9.408   6.297  0.1922 -0.0239 -0.0428
 1115SOL     OW 8191   2.332   1.195   7.740  0.2841  0.3501  0.1581
 1115SOL    HW1 8192   2.378   1.271   7.704  0.4829  0.4836  0.6777
 1115SOL    HW2 8193   2.383   1.171   7.818 -0.8304  0.8414  1.0556
 1116SOL     OW 8194   1.259   8.321   6.559 -0.1597 -0.6275 -0.1890
 1116SOL    HW1 8195   1.251   8.320   6.463  1.1218  0.4755 -0.3299
 1116SOL    HW2 8196   1.168   8.327   6.590 -0.4952  1.5455 -1.4070
 1117SOL     OW 8197   9.645   9.726   8.765 -0.1659  0.1443 -0.5893
 1117SOL    HW1 8198   9.674   9.637   8.745  0.0106 -0.2698  1.2977
 1117SOL    HW2 8199   9.642   9.770   8.680 -0.1275 -1.6118 -1.5533
 1118SOL     OW 8200   0.698   9.840   6.129  0.5053 -0.1519 -0.1165
 1118SOL    HW1 8201   0.698   9.800   6.042  1.6374 -0.3534 -0.0283
 1118SOL    HW2 8202   0.607   9.832   6.158  0.3842 -1.2601 -0.7417
 1119SOL     OW 8203   0.832   0.118   6.686  0.0545  0.0638  0.3568
 1119SOL    HW1 8204   0.899   0.132   6.619  0.5496  0.0300  0.8361
 1119SOL    HW2 8205   0.750   0.107   6.637  0.5284 -0.7016 -0.2699
 1120SOL     OW 8206   9.374   2.248   8.124 -0.5753  0.0929  0.1096
 1120SOL    HW1 8207   9.380   2.325   8.068  1.1257 -0.8955 -1.1538
 1120SOL    HW2 8208   9.399   2.175   8.068 -2.7234 -1.5138  1.0980
 1121SOL     OW 8209   0.582   0.178   5.664 -0.2434 -0.3659 -0.1542
 1121SOL    HW1 8210   0.489   0.191   5.679 -0.1530  0.1421 -0.0197
 1121SOL    HW2 8211   0.602   0.233   5.588  0.1178  0.1670  0.3272
 1122SOL     OW 8212   2.142   8.983   7.648  0.2022 -0.3391  0.0681
 1122SOL    HW1 8213   2.214   9.045   7.651 -0.5590  0.5421  1.1137
 1122SOL    HW2 8214   2.183   8.897   7.653  1.2911  0.0413 -1.6520
 1123SOL     OW 8215   8.641   1.643   5.199  0.2738  0.4881  0.5031
 1123SOL    HW1 8216   8.550   1.614   5.198  0.5439 -0.4157 -0.8448
 1123SOL    HW2 8217   8.679   1.605   5.119  2.0233  0.2271  1.4160
 1124SOL     OW 8218   0.619   9.552   6.713 -0.1301 -0.4073 -0.1003
 1124SOL    HW1 8219   0.532   9.577   6.743 -0.2689 -2.2958  1.2266
 1124SOL    HW2 8220   0.678   9.616   6.752 -0.7019 -0.5572  1.0303
 1125SOL     OW 8221   0.392   9.685   7.416 -0.1420  0.1080  0.1164
 1125SOL    HW1 8222   0.411   9.699   7.323  0.9347 -1.0035  0.1393
 1125SOL    HW2 8223   0.307   9.726   7.429 -0.0107  0.8926 -1.1984
 1126SOL     OW 8224   9.401   9.079   6.952  0.3687 -0.3065  0.4004
 1126SOL    HW1 8225   9.489   9.044   6.948  0.2951 -0.6247  1.3542
 1126SOL    HW2 8226   9.372   9.083   6.861  0.5655 -2.2303  0.2257
 1127SOL     OW 8227   5.488   1.562   4.798  0.3987  0.1247  0.0025
 1127SOL    HW1 8228   5.486   1.550   4.893  1.2006  1.3561  0.1888
 1127SOL    HW2 8229   5.564   1.511   4.769  1.5969  1.6492  0.3429
 1128SOL     OW 8230   0.791   2.093   6.711 -0.2255 -0.1765  0.1617
 1128SOL    HW1 8231   0.873   2.059   6.748 -0.3915 -0.7654 -0.0017
 1128SOL    HW2 8232   0.817   2.171   6.663  0.3248 -0.6537 -0.3319
 1129SOL     OW 8233   1.475   0.956   6.002 -0.0415  0.0944  0.3253
 1129SOL    HW1 8234   1.444   0.931   6.090  0.8544 -0.4775  0.4928
 1129SOL    HW2 8235   1.539   1.025   6.018 -0.5222  0.6055  0.0525
 1130SOL     OW 8236   8.849   0.892   6.527 -0.0392  0.3080 -0.0859
 1130SOL    HW1 8237   8.872   0.918   6.617  0.4311  0.3110 -0.2039
 1130SOL    HW2 8238   8.773   0.946   6.506 -0.6553 -0.2678  0.5979
 1131SOL     OW 8239   0.588   0.984   8.915  0.0688 -0.3464  0.1167
 1131SOL    HW1 8240   0.617   0.948   8.831 -1.9474 -4.1673  0.8359
 1131SOL    HW2 8241   0.543   1.065   8.892 -1.3216 -1.7587 -2.7374
 1132SOL     OW 8242   0.402   1.040   6.756  0.4107 -0.4788 -0.4118
 1132SOL    HW1 8243   0.382   1.132   6.740  2.4183  0.5507  2.1927
 1132SOL    HW2 8244   0.453   1.012   6.679 -0.8039  0.3248 -1.5432
 1133SOL     OW 8245   3.557   9.494   7.333  0.2569  0.8004  0.2678
 1133SOL    HW1 8246   3.562   9.475   7.426 -0.2486 -0.1745  0.1160
 1133SOL    HW2 8247   3.468   9.526   7.319 -0.1931 -0.5502 -0.1096
 1134SOL     OW 8248   9.235   0.980   0.268  0.2992 -0.5250 -0.3365
 1134SOL    HW1 8249   9.301   0.988   0.338 -0.4525  0.5082  0.2788
 1134SOL    HW2 8250   9.157   0.949   0.313 -0.3211  0.5779 -0.6278
 1135SOL     OW 8251   0.903   0.263   6.320  0.2712 -0.6596  0.2541
 1135SOL    HW1 8252   0.952   0.206   6.379  2.1055  1.3668  0.8064
 1135SOL    HW2 8253   0.819   0.277   6.364  0.5344 -1.4032  1.0105
 1136SOL     OW 8254   4.012   7.604   7.175  0.7232  0.4144 -0.1366
 1136SOL    HW1 8255   3.931   7.567   7.140  0.9458 -0.3585  0.1490
 1136SOL    HW2 8256   4.006   7.698   7.154  0.1983  0.2124 -0.9575
 1137SOL     OW 8257   0.680   2.912   5.360  0.5030  0.3781  0.3372
 1137SOL    HW1 8258   0.728   2.849   5.307 -1.1400 -1.0581  0.4619
 1137SOL    HW2 8259   0.595   2.921   5.316 -0.1096  0.7598  1.5505
 1138SOL     OW 8260   1.384   9.010   6.769  0.6908  0.1480 -0.1954
 1138SOL    HW1 8261   1.309   8.969   6.813  0.1418  1.4580  0.1609
 1138SOL    HW2 8262   1.449   9.021   6.838  0.4652  0.7229 -0.0690
 1139SOL     OW 8263   8.885   0.355   5.453 -0.1035  0.2805 -0.1260
 1139SOL    HW1 8264   8.946   0.428   5.463  2.0184 -1.4628  0.6006
 1139SOL    HW2 8265   8.940   0.282   5.424 -1.6223 -1.6664  1.5501
 1140SOL     OW 8266   1.092   2.602   7.836  0.3452 -0.7638  0.3232
 1140SOL    HW1 8267   1.043   2.655   7.899  0.9254 -0.9885  0.9816
 1140SOL    HW2 8268   1.080   2.646   7.752  1.2528  0.7283  0.9419
 1141SOL     OW 8269   9.598   0.368   8.884  0.3957 -0.2301  0.0719
 1141SOL    HW1 8270   9.627   0.457   8.863 -0.1418 -0.2465 -0.7944
 1141SOL    HW2 8271   9.512   0.360   8.842 -0.6097 -0.3903  2.0525
 1142SOL     OW 8272   0.468   1.318   1.476 -0.6218 -0.4898  1.0672
 1142SOL    HW1 8273   0.528   1.389   1.452 -1.4793 -0.4739 -1.2901
 1142SOL    HW2 8274   0.453   1.331   1.570 -0.8403  2.5455  0.7362
 1143SOL     OW 8275   9.279   1.185   6.084  0.0568  0.4289 -0.0689
 1143SOL    HW1 8276   9.192   1.150   6.064  0.0520  0.1697  0.3898
 1143SOL    HW2 8277   9.266   1.240   6.161  0.2038  0.8256 -0.3254
 1144SOL     OW 8278   8.552   1.847   8.083  0.0015 -0.2285  0.0686
 1144SOL    HW1 8279   8.531   1.840   7.990 -1.6898  1.7956  0.2338
 1144SOL    HW2 8280   8.486   1.792   8.127 -0.0749 -0.0749  0.1469
 1145SOL     OW 8281   1.187   1.733   9.261  0.1360  0.1296 -0.3938
 1145SOL    HW1 8282   1.133   1.805   9.293  0.6627  1.6630 -2.7046
 1145SOL    HW2 8283   1.125   1.676   9.215  0.2660  1.6064 -2.5705
 1146SOL     OW 8284   8.747   0.129   8.534  0.6654 -0.1401 -0.2945
 1146SOL    HW1 8285   8.717   0.135   8.444  0.5189 -1.5894 -0.3759
 1146SOL    HW2 8286   8.838   0.158   8.531  0.8888 -0.8790 -1.0555
 1147SOL     OW 8287   9.606   0.600   9.452  0.2090  0.4197 -0.2710
 1147SOL    HW1 8288   9.593   0.628   9.543  1.2874  0.6892 -0.1831
 1147SOL    HW2 8289   9.593   0.680   9.401  0.6663  0.5142 -0.2489
 1148SOL     OW 8290   8.608   2.310   1.832 -0.8979 -0.5570  0.5752
 1148SOL    HW1 8291   8.540   2.301   1.766  0.6307 -1.1452 -1.0214
 1148SOL    HW2 8292   8.640   2.221   1.847 -0.8823 -0.3758  1.7845
 1149SOL     OW 8293   8.909   3.492   7.687 -0.3871 -0.4815  0.3307
 1149SOL    HW1 8294   8.926   3.449   7.604 -0.3087  1.4361 -0.7186
 1149SOL    HW2 8295   8.995   3.522   7.717 -0.5715 -0.0599  0.4477
 1150SOL     OW 8296   8.607   8.419   9.028  0.0624  0.5858  0.2874
 1150SOL    HW1 8297   8.586   8.483   8.961 -0.3686 -0.9741 -1.1292
 1150SOL    HW2 8298   8.617   8.470   9.108  0.3976  2.4727 -0.9095
 1151SOL     OW 8299   9.166   2.307   8.293  0.3703  0.0915 -0.2273
 1151SOL    HW1 8300   9.239   2.294   8.233 -0.0985 -2.0189 -0.3952
 1151SOL    HW2 8301   9.088   2.293   8.239 -0.0550 -2.9594  1.0299
 1152SOL     OW 8302   1.190   0.863   0.878 -0.3076  0.6186  0.1533
 1152SOL    HW1 8303   1.268   0.915   0.898 -0.0799  0.5886 -0.6377
 1152SOL    HW2 8304   1.161   0.831   0.964  0.3758  0.8732  0.4912
 1153SOL     OW 8305   1.020   9.314   8.601  0.3018 -0.0017  0.2867
 1153SOL    HW1 8306   1.006   9.258   8.677  0.3359 -0.9331 -0.3861
 1153SOL    HW2 8307   0.942   9.302   8.547  1.1580 -0.9456 -0.8011
 1154SOL     OW 8308   0.242   1.608   9.229  0.2255  0.3691 -0.1104
 1154SOL    HW1 8309   0.149   1.587   9.229  0.8401 -2.7865 -0.2345
 1154SOL    HW2 8310   0.268   1.606   9.137  0.9598 -1.8695  0.0997
 1155SOL     OW 8311   0.184   0.878   8.377  0.2168  0.2775 -0.4403
 1155SOL    HW1 8312   0.152   0.952   8.429 -0.7771 -0.9251  0.7413
 1155SOL    HW2 8313   0.211   0.917   8.294 -1.1450  1.8397 -0.2089
 1156SOL     OW 8314   0.473   0.861   9.150 -0.1661 -0.2077 -0.3521
 1156SOL    HW1 8315   0.509   0.899   9.070 -0.1769 -0.4929 -0.4935
 1156SOL    HW2 8316   0.520   0.778   9.161 -1.4492 -1.0708 -1.0865
 1157SOL     OW 8317   8.874   1.902   7.039  0.1526  0.2369  0.0788
 1157SOL    HW1 8318   8.962   1.868   7.021 -0.1373 -0.0374 -0.8343
 1157SOL    HW2 8319   8.890   1.984   7.086  0.9270  0.9308 -1.3286
 1158SOL     OW 8320   9.370   1.359   9.123 -0.0630 -0.1646 -0.6333
 1158SOL    HW1 8321   9.348   1.288   9.063 -0.9196 -0.0084 -0.5146
 1158SOL    HW2 8322   9.462   1.344   9.145 -0.4140 -1.6502 -0.0537
 1159SOL     OW 8323   8.959   2.745   9.397 -0.0066 -0.5475  0.8406
 1159SOL    HW1 8324   8.894   2.815   9.398 -0.1784 -0.7059  0.7380
 1159SOL    HW2 8325   8.911   2.666   9.422 -1.0795 -1.7338 -3.8668
 1160SOL     OW 8326   8.532   0.749   7.942  0.2082  0.2512  0.2312
 1160SOL    HW1 8327   8.578   0.700   7.874  0.8957  1.5167 -0.2520
 1160SOL    HW2 8328   8.601   0.797   7.988 -0.0662 -1.5706  2.7145
 1161SOL     OW 8329   1.271   3.401   8.674 -0.7701 -0.1094 -0.0901
 1161SOL    HW1 8330   1.298   3.407   8.582 -0.5727 -0.8470 -0.0876
 1161SOL    HW2 8331   1.180   3.370   8.670 -1.8929  2.8620 -0.1188
 1162SOL     OW 8332   0.578   1.835   8.404  0.1685 -0.1508  0.1167
 1162SOL    HW1 8333   0.619   1.847   8.490  0.3715  2.5377 -0.2829
 1162SOL    HW2 8334   0.499   1.783   8.423  0.4156  0.0387  1.8671
 1163SOL     OW 8335   0.358   2.813   7.718 -0.9000 -0.3468 -0.1124
 1163SOL    HW1 8336   0.286   2.860   7.760 -2.2091 -2.0107 -0.3774
 1163SOL    HW2 8337   0.331   2.803   7.627  0.1430 -0.1103 -0.4598
 1164SOL     OW 8338   0.741   0.234   8.237  0.4039  0.1991 -0.2669
 1164SOL    HW1 8339   0.812   0.213   8.298 -0.3563  0.1628  0.6297
 1164SOL    HW2 8340   0.694   0.306   8.279  0.3286  0.6952 -1.1874
 1165SOL     OW 8341   2.563   9.308   6.660  0.0134 -0.2843  0.5865
 1165SOL    HW1 8342   2.572   9.225   6.706 -0.3536 -0.5398  0.2000
 1165SOL    HW2 8343   2.616   9.298   6.581 -1.0348 -0.6213 -0.0928
 1166SOL     OW 8344   1.620   9.554   7.933 -0.2715  0.2128 -0.2510
 1166SOL    HW1 8345   1.525   9.555   7.947 -0.3041 -0.4174 -0.3957
 1166SOL    HW2 8346   1.652   9.629   7.983 -1.0408  1.5253 -1.6635
 1167SOL     OW 8347   1.277   9.726   8.423  0.1208 -0.0086 -0.2113
 1167SOL    HW1 8348   1.352   9.670   8.444 -0.6523 -0.6883  0.7641
 1167SOL    HW2 8349   1.278   9.794   8.490 -0.4256 -0.3039  0.0985
 1168SOL     OW 8350   2.584   9.292   9.030  0.2351  0.1632  0.0103
 1168SOL    HW1 8351   2.596   9.295   8.935  3.0825 -1.9141  0.1711
 1168SOL    HW2 8352   2.656   9.343   9.065  0.3894 -0.7468  1.0659
 1169SOL     OW 8353   7.691   8.499   8.910  0.6524 -0.2108  0.1755
 1169SOL    HW1 8354   7.785   8.494   8.896  0.4692  0.1847 -1.4690
 1169SOL    HW2 8355   7.654   8.442   8.841 -0.3102 -0.1029  0.5858
 1170SOL     OW 8356   8.411   1.131   7.984  0.1010 -0.2798  0.1564
 1170SOL    HW1 8357   8.470   1.204   8.002  0.1829 -0.3121  0.0246
 1170SOL    HW2 8358   8.432   1.105   7.894 -2.0006  1.4547 -0.9211
 1171SOL     OW 8359   2.569   2.338   7.919 -0.0258 -0.2217  0.3818
 1171SOL    HW1 8360   2.551   2.248   7.893 -0.8710 -0.3716  1.4420
 1171SOL    HW2 8361   2.547   2.390   7.841  0.8580 -0.9461 -0.3756
 1172SOL     OW 8362   1.375   9.380   7.191 -0.3118  0.3160 -0.2824
 1172SOL    HW1 8363   1.400   9.364   7.282  0.8940  1.7100 -0.3281
 1172SOL    HW2 8364   1.309   9.449   7.196  0.8429  1.4774 -0.5054
 1173SOL     OW 8365   0.600   8.002   0.180  0.2094 -0.4176  0.0220
 1173SOL    HW1 8366   0.647   8.083   0.163  0.9548 -1.0249 -0.9344
 1173SOL    HW2 8367   0.511   8.018   0.147 -0.0953  0.5161  1.2529
 1174SOL     OW 8368   2.421   4.032   9.016 -0.6118 -0.0749 -0.1353
 1174SOL    HW1 8369   2.335   4.004   8.985  0.2427 -0.9115 -1.8957
 1174SOL    HW2 8370   2.467   3.950   9.036  1.0072  0.0619 -2.7954
 1175SOL     OW 8371   0.789   1.982   8.245  0.3850  0.0083 -0.1593
 1175SOL    HW1 8372   0.750   1.905   8.288  0.8864 -0.2862 -0.2199
 1175SOL    HW2 8373   0.714   2.037   8.222 -0.0862 -0.9881 -1.1408
 1176SOL     OW 8374   0.033   0.678   7.904 -0.3006  0.1021  0.1453
 1176SOL    HW1 8375   0.028   0.658   7.811  0.4057  1.0635 -0.1087
 1176SOL    HW2 8376  -0.047   0.730   7.921  0.0730  0.7932 -0.1578
 1177SOL     OW 8377   0.391   0.882   7.654  0.2054 -0.6055 -0.6294
 1177SOL    HW1 8378   0.435   0.817   7.600 -0.4116 -1.8448  0.3273
 1177SOL    HW2 8379   0.307   0.897   7.610  0.4286 -0.2727 -0.9581
 1178SOL     OW 8380   0.014   3.665   0.610  0.0671  0.4534 -0.7614
 1178SOL    HW1 8381  -0.063   3.721   0.604 -0.5727 -0.3633 -0.4285
 1178SOL    HW2 8382  -0.019   3.582   0.646  1.5009  0.9254  1.9470
 1179SOL     OW 8383   1.262   9.641   7.172 -0.0665  0.2211  0.4886
 1179SOL    HW1 8384   1.327   9.683   7.229  0.3593  0.8818 -0.4398
 1179SOL    HW2 8385   1.182   9.690   7.186  0.3322  1.1490 -0.3047
 1180SOL     OW 8386   8.665   3.769   6.931  0.1218 -0.0911 -0.1730
 1180SOL    HW1 8387   8.751   3.732   6.951  1.0372  1.8150 -0.3011
 1180SOL    HW2 8388   8.660   3.847   6.987 -0.6768  0.8871 -1.5490
 1181SOL     OW 8389   8.575   8.819   9.610  0.0956 -0.1842  0.0906
 1181SOL    HW1 8390   8.600   8.883   9.543  2.1707  0.3212  1.2466
 1181SOL    HW2 8391   8.584   8.866   9.693 -2.6166 -0.7300  0.7947
 1182SOL     OW 8392   1.145   0.526   6.984  0.3170 -0.1391  0.1414
 1182SOL    HW1 8393   1.068   0.554   6.934 -0.4307  0.0619  1.3670
 1182SOL    HW2 8394   1.217   0.530   6.921 -0.7127 -0.6253 -1.1165
 1183SOL     OW 8395   1.065   0.979   9.586  0.3381 -0.0039  0.3888
 1183SOL    HW1 8396   1.006   1.045   9.624  0.3749 -0.2944  0.9609
 1183SOL    HW2 8397   1.152   1.020   9.589  0.5732 -0.5391  1.9243
 1184SOL     OW 8398   7.734   8.632   9.312 -0.5583 -0.1612 -0.1164
 1184SOL    HW1 8399   7.780   8.716   9.308  1.6830 -1.2739  0.7044
 1184SOL    HW2 8400   7.661   8.647   9.371 -1.2394  1.6384 -1.3295
 1185SOL     OW 8401   0.075   9.197   8.890 -1.1132 -0.3806  0.6386
 1185SOL    HW1 8402   0.093   9.272   8.834  0.8688 -0.7134  0.7615
 1185SOL    HW2 8403   0.002   9.225   8.945 -0.5381  1.3966  0.5558
 1186SOL     OW 8404   9.386   3.023   9.428  0.2341 -0.2184  0.3133
 1186SOL    HW1 8405   9.312   2.970   9.459  0.9747 -1.3260  0.2514
 1186SOL    HW2 8406   9.386   3.099   9.486 -0.8849 -0.2594  0.3875
 1187SOL     OW 8407   0.052   9.761   8.960  0.2872  0.5376 -0.2376
 1187SOL    HW1 8408   0.031   9.766   9.054  1.4290  0.5200  0.0391
 1187SOL    HW2 8409   0.133   9.710   8.956  0.5848  1.0454 -1.1725
 1188SOL     OW 8410   1.135   1.413   8.492  0.0555  0.5183 -0.6053
 1188SOL    HW1 8411   1.166   1.347   8.431 -0.3818 -1.3434  1.1028
 1188SOL    HW2 8412   1.107   1.486   8.437  1.9357 -0.0827 -2.4707
 1189SOL     OW 8413   9.840   0.633   9.830 -0.1164 -0.0710  0.5553
 1189SOL    HW1 8414   9.849   0.700   9.898  2.1077  2.1587 -1.7138
 1189SOL    HW2 8415   9.922   0.585   9.834  0.1306  0.2298 -0.6408
 1190SOL     OW 8416   0.691   1.235   8.582  0.3352  0.1532 -0.1093
 1190SOL    HW1 8417   0.692   1.169   8.512 -0.3294  0.0809 -0.0534
 1190SOL    HW2 8418   0.752   1.302   8.551  0.3924 -0.0930 -0.5499
 1191SOL     OW 8419   8.642   7.430   1.621 -0.1920  0.2199  0.2585
 1191SOL    HW1 8420   8.605   7.489   1.555  0.7046  1.1563  0.5721
 1191SOL    HW2 8421   8.593   7.348   1.609 -0.0301  0.3456 -1.6024
 1192SOL     OW 8422   1.942   0.637   4.872  0.3550 -0.2319  0.5613
 1192SOL    HW1 8423   1.867   0.662   4.926 -0.0047  1.6850 -0.7170
 1192SOL    HW2 8424   1.908   0.569   4.814 -0.6628  1.1276 -0.5021
 1193SOL     OW 8425   9.057   1.979   6.101  0.1754 -0.3071 -0.2747
 1193SOL    HW1 8426   9.063   2.059   6.154  0.8501 -0.9414  0.6437
 1193SOL    HW2 8427   9.147   1.951   6.089 -0.0877 -1.3683  0.1002
 1194SOL     OW 8428   1.987   0.550   8.018 -0.5204  0.3542 -0.7351
 1194SOL    HW1 8429   2.059   0.577   8.076 -1.2269  1.5899 -0.4203
 1194SOL    HW2 8430   1.909   0.586   8.059 -1.4345 -1.5399 -0.7147
 1195SOL     OW 8431   9.646   1.666   8.573 -0.7262 -0.1171 -0.3285
 1195SOL    HW1 8432   9.674   1.717   8.497 -0.7054 -1.0251 -0.9528
 1195SOL    HW2 8433   9.724   1.658   8.627 -0.8339  0.8558 -0.0120
 1196SOL     OW 8434   0.723   9.855   8.049 -0.3159  0.2345 -0.0106
 1196SOL    HW1 8435   0.695   9.765   8.065 -0.4364  0.3887  0.6774
 1196SOL    HW2 8436   0.813   9.859   8.081  0.2670 -0.0675 -1.5540
 1197SOL     OW 8437   9.574   0.521   0.214 -0.4306 -0.0818  0.0259
 1197SOL    HW1 8438   9.660   0.489   0.189 -0.2944  1.1255 -1.1362
 1197SOL    HW2 8439   9.542   0.457   0.278  1.8006  0.0544  1.3725
 1198SOL     OW 8440   1.010   0.119   9.410 -0.1289 -0.6024  0.5374
 1198SOL    HW1 8441   1.096   0.134   9.371 -0.0979  0.7612  1.0957
 1198SOL    HW2 8442   0.970   0.051   9.354  0.4938  0.2213 -0.9698
 1199SOL     OW 8443   9.735   9.398   6.997  0.3587  0.5789 -0.4531
 1199SOL    HW1 8444   9.679   9.400   7.074 -1.4286  0.6593 -1.7053
 1199SOL    HW2 8445   9.751   9.304   6.982 -0.6080  0.4776 -0.8914
 1200SOL     OW 8446   9.128   2.950   8.919 -0.1262 -0.1556 -0.1283
 1200SOL    HW1 8447   9.096   2.868   8.957 -0.0307 -0.8145 -1.4000
 1200SOL    HW2 8448   9.222   2.950   8.938  0.3929 -1.6512 -2.2904
 1201SOL     OW 8449   8.910   2.471   8.009  0.1237 -0.0777 -0.2533
 1201SOL    HW1 8450   8.947   2.559   8.013  0.7213 -0.3675  1.0657
 1201SOL    HW2 8451   8.979   2.417   7.971  1.3094 -0.6975  2.5913
 1202SOL     OW 8452   0.127   0.211   0.325  0.5398  0.2293  0.6505
 1202SOL    HW1 8453   0.111   0.126   0.284  0.2088 -0.0005  1.2405
 1202SOL    HW2 8454   0.180   0.259   0.261 -1.3650  0.5136 -0.7902
 1203SOL     OW 8455   3.168   1.111   8.104 -0.4160  0.4558 -0.0561
 1203SOL    HW1 8456   3.237   1.045   8.110  0.6920  1.7010  3.1178
 1203SOL    HW2 8457   3.091   1.063   8.074  0.5803 -2.0816  1.1579
 1204SOL     OW 8458   0.742   9.380   7.249 -0.2782 -0.0609 -0.2786
 1204SOL    HW1 8459   0.801   9.416   7.315 -1.9816 -0.0251  1.3104
 1204SOL    HW2 8460   0.760   9.431   7.170  0.1056  1.6116  0.8381
 1205SOL     OW 8461   0.790   8.447   9.155  0.4391 -0.5366  0.2965
 1205SOL    HW1 8462   0.855   8.508   9.188  1.5447 -1.8513  0.6606
 1205SOL    HW2 8463   0.828   8.412   9.074 -1.1078  0.7648 -1.0753
 1206SOL     OW 8464   1.531   0.891   8.633 -0.7119  0.4608 -0.6393
 1206SOL    HW1 8465   1.542   0.852   8.720 -1.4240 -1.2511 -1.2793
 1206SOL    HW2 8466   1.607   0.861   8.583 -0.7151  0.7787 -0.8368
 1207SOL     OW 8467   8.305   8.939   0.051 -0.0868  0.5457  0.0166
 1207SOL    HW1 8468   8.364   8.889   0.107  0.6920 -1.0476 -2.0888
 1207SOL    HW2 8469   8.326   9.030   0.068  1.0531  0.0750  1.2885
 1208SOL     OW 8470   9.254   0.183   8.706 -0.5225  0.4183 -0.1265
 1208SOL    HW1 8471   9.305   0.142   8.635  0.5034  1.3443  0.0453
 1208SOL    HW2 8472   9.288   0.272   8.711 -2.3039  1.1334 -0.1052
 1209SOL     OW 8473   9.842   3.298   0.451 -0.4942 -0.0315  0.4532
 1209SOL    HW1 8474   9.851   3.218   0.503  1.0872  0.3042  0.7507
 1209SOL    HW2 8475   9.924   3.305   0.402 -1.0341  0.8619 -0.3571
 1210SOL     OW 8476   1.420   1.244   8.579 -0.1759  0.3508 -0.4579
 1210SOL    HW1 8477   1.413   1.315   8.644 -1.9897  1.1419 -1.4283
 1210SOL    HW2 8478   1.509   1.250   8.546  1.3711 -1.0971  3.0023
 1211SOL     OW 8479   1.133   9.770   8.690 -0.6091 -0.8784  0.3145
 1211SOL    HW1 8480   1.131   9.848   8.635 -0.4439 -1.5968 -0.7430
 1211SOL    HW2 8481   1.152   9.803   8.778  0.8099  0.1666 -0.3437
 1212SOL     OW 8482   0.820   0.310   7.957 -0.2539  0.2816 -0.3429
 1212SOL    HW1 8483   0.820   0.324   7.862  0.6825 -0.0615 -0.4043
 1212SOL    HW2 8484   0.901   0.350   7.987  0.3019 -1.0985  0.0652
 1213SOL     OW 8485   1.623   9.450   7.088 -0.2959 -0.1590  0.1987
 1213SOL    HW1 8486   1.651   9.509   7.158 -1.0779  2.3896 -1.4768
 1213SOL    HW2 8487   1.544   9.407   7.122  1.7677 -2.4156  2.4585
 1214SOL     OW 8488   0.032   8.415   0.951  0.2620 -0.0826  0.3841
 1214SOL    HW1 8489   0.118   8.372   0.951  0.2247 -0.2069 -1.3369
 1214SOL    HW2 8490   0.044   8.492   0.895 -0.9216 -0.4909 -0.4679
 1215SOL     OW 8491   0.243   0.879   8.761 -0.7054 -0.0196 -0.0060
 1215SOL    HW1 8492   0.175   0.865   8.826  1.7159  2.1647  3.3244
 1215SOL    HW2 8493   0.240   0.973   8.743  1.1667  0.0705 -0.0286
 1216SOL     OW 8494   2.347   7.614   8.604  0.3723  0.2492  0.8435
 1216SOL    HW1 8495   2.407   7.606   8.679  1.2678 -0.7024  0.0581
 1216SOL    HW2 8496   2.402   7.596   8.528 -0.7908 -0.0450  0.0526
 1217SOL     OW 8497   9.650   9.086   7.184 -0.0463 -0.1470  0.4793
 1217SOL    HW1 8498   9.558   9.098   7.206  0.2107  0.3493  1.3535
 1217SOL    HW2 8499   9.655   9.096   7.089 -1.1098 -1.6338  0.2340
 1218SOL     OW 8500   1.943   0.092   7.654 -0.8840 -0.4387  0.2754
 1218SOL    HW1 8501   1.868   0.074   7.711  0.5614 -0.5972  2.2555
 1218SOL    HW2 8502   2.012   0.035   7.687  0.7093  1.1557 -0.1473
 1219SOL     OW 8503   2.445   0.185   8.438  0.0313  0.5777  0.6213
 1219SOL    HW1 8504   2.390   0.144   8.371  0.4230 -0.7452  1.0774
 1219SOL    HW2 8505   2.406   0.271   8.452  0.2876  1.1221 -1.7143
 1220SOL     OW 8506   9.649   8.699   7.427  0.1771  0.0987  0.2119
 1220SOL    HW1 8507   9.742   8.682   7.411  0.3690  1.6350 -0.4428
 1220SOL    HW2 8508   9.617   8.738   7.346 -0.4282  1.8668  1.2349
 1221SOL     OW 8509   3.124   6.824   0.760 -0.1761  0.8633 -0.6002
 1221SOL    HW1 8510   3.161   6.822   0.848 -2.7091 -1.5140  0.5547
 1221SOL    HW2 8511   3.124   6.917   0.736  1.1376  1.5073  1.6048
 1222SOL     OW 8512   9.733   1.227   8.475 -0.0632 -0.1167 -0.0154
 1222SOL    HW1 8513   9.662   1.292   8.479 -1.2398 -1.2271 -1.6862
 1222SOL    HW2 8514   9.812   1.277   8.495 -0.7975  2.0441 -2.0684
 1223SOL     OW 8515   1.314   1.700   7.962 -0.2047  0.2431 -0.1644
 1223SOL    HW1 8516   1.283   1.631   8.021  0.9113 -0.2207 -0.0961
 1223SOL    HW2 8517   1.280   1.675   7.876  0.0002 -0.2789 -0.1004
 1224SOL     OW 8518   0.576   0.131   8.657 -0.1142  0.1118 -0.3929
 1224SOL    HW1 8519   0.513   0.202   8.651  2.0766  2.1236 -1.4428
 1224SOL    HW2 8520   0.569   0.086   8.572  0.0622  0.5314 -0.6336
 1225SOL     OW 8521   1.726   1.835   0.134  0.1237 -0.9724  0.8077
 1225SOL    HW1 8522   1.761   1.781   0.205 -0.8868  1.1678  3.0894
 1225SOL    HW2 8523   1.635   1.851   0.159 -0.4025 -0.4999 -1.2417
 1226SOL     OW 8524   8.847   7.982   6.845  0.7984  0.0646  0.3620
 1226SOL    HW1 8525   8.765   7.989   6.798  0.8364 -1.4453  0.0234
 1226SOL    HW2 8526   8.856   8.065   6.892 -0.8267  0.3057  0.2717
 1227SOL     OW 8527   9.738   0.398   9.720  0.1252  0.5326  0.3815
 1227SOL    HW1 8528   9.786   0.478   9.741  0.0600  0.7096 -0.1427
 1227SOL    HW2 8529   9.787   0.328   9.763  0.0831  0.8724  0.9914
 1228SOL     OW 8530   1.496   0.020   7.650 -0.6644 -0.3058  0.1248
 1228SOL    HW1 8531   1.511   0.085   7.581 -0.4624 -1.1720 -0.6695
 1228SOL    HW2 8532   1.485   0.071   7.729 -0.0167  0.6785 -0.4019
 1229SOL     OW 8533   8.926   1.364   9.706 -0.5909  0.3296  0.3353
 1229SOL    HW1 8534   8.853   1.367   9.644  0.4066 -1.5828 -1.0310
 1229SOL    HW2 8535   8.990   1.426   9.671  0.1461 -1.0479 -0.8630
 1230SOL     OW 8536   1.881   9.124   9.258 -0.5173  0.4537 -0.2654
 1230SOL    HW1 8537   1.902   9.070   9.335 -1.6707 -0.3613 -0.5070
 1230SOL    HW2 8538   1.965   9.163   9.233  0.0842 -0.1522  0.7345
 1231SOL     OW 8539   1.489   0.683   9.221 -0.0949 -0.0782 -0.4684
 1231SOL    HW1 8540   1.445   0.601   9.198 -0.9791  0.6686 -1.5242
 1231SOL    HW2 8541   1.423   0.750   9.209  0.9185  0.9186 -0.6663
 1232SOL     OW 8542   0.274   7.930   0.439 -0.0558 -0.5273 -0.0218
 1232SOL    HW1 8543   0.230   7.887   0.365 -1.4329 -0.8797  0.9696
 1232SOL    HW2 8544   0.208   7.988   0.476  0.0018 -1.6290  1.9805
 1233SOL     OW 8545   2.022   1.068   1.169 -0.2030  0.0923 -0.0957
 1233SOL    HW1 8546   2.067   1.089   1.087  0.6381  0.1292  0.3561
 1233SOL    HW2 8547   2.093   1.066   1.234 -0.6728 -1.2480  0.3930
 1234SOL     OW 8548   0.031   1.082   0.400 -0.0550 -0.3055 -0.2400
 1234SOL    HW1 8549   0.006   1.167   0.362  0.2875  0.0045  0.2096
 1234SOL    HW2 8550  -0.038   1.022   0.371 -0.9383  0.3740  0.3641
 1235SOL     OW 8551   7.417   2.756   7.490 -0.1223  0.4023  0.3084
 1235SOL    HW1 8552   7.471   2.755   7.569 -0.4456  0.6780  0.5323
 1235SOL    HW2 8553   7.450   2.830   7.439  3.5398 -2.5466 -2.2399
 1236SOL     OW 8554   8.004   2.107   7.783  0.0940 -0.6213  0.5157
 1236SOL    HW1 8555   8.042   2.056   7.712  0.0341 -1.7786  1.2863
 1236SOL    HW2 8556   7.997   2.196   7.748 -0.8832 -1.3571 -1.2984
 1237SOL     OW 8557   3.265   3.006   8.386 -0.0998 -0.0395 -0.2683
 1237SOL    HW1 8558   3.259   2.934   8.449  2.1800  0.7169  0.9534
 1237SOL    HW2 8559   3.329   2.976   8.322  1.7767  1.2248  0.8971
 1238SOL     OW 8560   1.854   0.043   6.730 -0.0499  0.1081  0.0404
 1238SOL    HW1 8561   1.810   0.025   6.813  0.2535 -0.6502  0.0437
 1238SOL    HW2 8562   1.787   0.086   6.676  0.1299  1.8259  1.1242
 1239SOL     OW 8563   0.301   1.515   8.727  0.0487  0.2707  0.8377
 1239SOL    HW1 8564   0.290   1.522   8.822  1.6650 -0.8637  1.1483
 1239SOL    HW2 8565   0.307   1.420   8.711 -2.4914  0.2795 -0.7176
 1240SOL     OW 8566   2.776   3.236   7.795  0.2611  0.0564 -0.2113
 1240SOL    HW1 8567   2.816   3.167   7.847  0.2775  1.4771  1.7651
 1240SOL    HW2 8568   2.689   3.204   7.775  0.0229 -0.2828  1.2772
 1241SOL     OW 8569   9.087   0.777   0.795 -0.0998 -0.4202  0.4162
 1241SOL    HW1 8570   9.042   0.847   0.746  1.5679 -0.1917 -0.8785
 1241SOL    HW2 8571   9.074   0.800   0.887 -1.7369  0.1784  0.0743
 1242SOL     OW 8572   1.138   9.049   9.158 -0.3656  0.0641  0.0510
 1242SOL    HW1 8573   1.054   9.062   9.114  0.6423 -0.4997 -2.1746
 1242SOL    HW2 8574   1.189   8.997   9.096  1.1332 -0.8899  1.9805
 1243SOL     OW 8575   9.825   1.142   1.531  0.5665 -0.0620 -0.3635
 1243SOL    HW1 8576   9.897   1.089   1.566 -0.2061 -1.3982 -0.7228
 1243SOL    HW2 8577   9.793   1.191   1.607  1.0444 -0.4109  0.0743
 1244SOL     OW 8578   9.265   0.919   0.547 -0.4458 -0.3245  0.0936
 1244SOL    HW1 8579   9.311   0.938   0.629 -0.3880 -0.3065  0.0565
 1244SOL    HW2 8580   9.203   0.850   0.571  0.8155 -1.6175 -0.2483
 1245SOL     OW 8581   1.177   9.637   9.744 -0.5217  0.5106  0.3149
 1245SOL    HW1 8582   1.253   9.674   9.789 -0.5889  2.2642 -0.9023
 1245SOL    HW2 8583   1.107   9.640   9.809 -0.2520  1.6064  0.5725
 1246SOL     OW 8584   0.937   9.399   6.729  0.0235  0.6662 -0.4091
 1246SOL    HW1 8585   0.863   9.367   6.677  0.0441  1.9006 -1.2346
 1246SOL    HW2 8586   0.997   9.325   6.734 -0.0637  0.4537 -2.0022
 1247SOL     OW 8587   1.012   8.965   0.859 -0.0532 -0.2058 -0.7716
 1247SOL    HW1 8588   0.975   9.031   0.917  2.8977  0.8543  0.0746
 1247SOL    HW2 8589   0.976   8.986   0.773 -2.3074 -0.0707  0.1449
 1248SOL     OW 8590   0.031   9.570   6.850  0.0607  0.8127 -0.1687
 1248SOL    HW1 8591   0.092   9.602   6.917 -1.3413  2.6978  0.3076
 1248SOL    HW2 8592  -0.029   9.512   6.899  0.0616  0.8207 -0.1579
 1249SOL     OW 8593   1.704   1.138   9.402 -0.4000  0.6152 -0.5609
 1249SOL    HW1 8594   1.654   1.167   9.478  0.4148  0.2358  0.1281
 1249SOL    HW2 8595   1.686   1.204   9.335 -2.8322 -0.1712 -0.7689
 1250SOL     OW 8596   0.045   3.355   7.866 -0.0281  0.2828  0.4057
 1250SOL    HW1 8597  -0.006   3.335   7.945  0.4229 -1.5654  0.2911
 1250SOL    HW2 8598   0.101   3.428   7.891  0.0404 -0.2127  1.7787
 1251SOL     OW 8599   2.008   1.715   8.186  0.7591  0.1706  0.2788
 1251SOL    HW1 8600   1.931   1.770   8.202  0.6333  0.1907 -0.3644
 1251SOL    HW2 8601   1.974   1.635   8.147  0.9109 -0.5349  1.5305
 1252SOL     OW 8602   2.483   0.216   8.956 -0.0127 -0.3004 -0.2574
 1252SOL    HW1 8603   2.422   0.148   8.983  1.6284 -2.1606 -0.9780
 1252SOL    HW2 8604   2.460   0.235   8.865 -1.2697  1.1154  0.2994
 1253SOL     OW 8605   1.437   1.074   0.193 -0.1419 -0.2503  0.1963
 1253SOL    HW1 8606   1.367   1.011   0.174 -0.1954 -1.4164  3.5420
 1253SOL    HW2 8607   1.509   1.048   0.135 -1.6628 -0.4766 -1.6841
 1254SOL     OW 8608   3.574   1.398   9.132 -0.5716 -0.8018  0.4600
 1254SOL    HW1 8609   3.607   1.308   9.136  3.6782  0.5525  2.2927
 1254SOL    HW2 8610   3.565   1.424   9.224  0.6850  1.3038  0.0474
 1255SOL     OW 8611   8.499   2.972   6.526 -0.2144 -0.1237 -0.0457
 1255SOL    HW1 8612   8.577   2.918   6.520 -0.8431 -1.0716  0.2347
 1255SOL    HW2 8613   8.450   2.952   6.446  0.1205  0.9499 -0.5407
 1256SOL     OW 8614   1.597   8.909   8.498 -0.6642  0.1603  0.0496
 1256SOL    HW1 8615   1.672   8.963   8.520 -0.0634 -0.9459  0.8049
 1256SOL    HW2 8616   1.606   8.891   8.404 -1.2894  1.9630 -0.3828
 1257SOL     OW 8617   0.640   8.430   7.835  0.0132  0.4619 -0.5013
 1257SOL    HW1 8618   0.623   8.364   7.902 -0.6454  2.1119  1.0761
 1257SOL    HW2 8619   0.585   8.405   7.761 -2.6255  0.8402  1.1908
 1258SOL     OW 8620   0.270   1.088   9.509 -0.0063  0.5618  0.3512
 1258SOL    HW1 8621   0.211   1.154   9.546  0.6225  1.3683 -0.0514
 1258SOL    HW2 8622   0.335   1.073   9.578  1.1939  2.1009 -0.3850
 1259SOL     OW 8623   1.685   8.384   8.684  0.3705 -0.3926  0.2989
 1259SOL    HW1 8624   1.663   8.291   8.673  1.1871 -0.5211 -0.3117
 1259SOL    HW2 8625   1.604   8.431   8.663  0.6316 -0.8517 -1.8736
 1260SOL     OW 8626   0.454   0.740   8.454 -0.0810 -0.1827 -0.2408
 1260SOL    HW1 8627   0.398   0.817   8.457  0.4176  0.1713  0.2890
 1260SOL    HW2 8628   0.412   0.676   8.512  0.1740  0.1603  0.3264
 1261SOL     OW 8629   0.743   0.887   9.627 -0.3433  0.0713  0.0574
 1261SOL    HW1 8630   0.664   0.891   9.574 -1.8505 -1.3183  2.0390
 1261SOL    HW2 8631   0.787   0.806   9.599 -1.4420 -0.9755  1.2557
 1262SOL     OW 8632   1.510   9.814   8.711  0.6347 -0.0642  0.2505
 1262SOL    HW1 8633   1.582   9.771   8.666  2.7692  2.0030  1.4715
 1262SOL    HW2 8634   1.443   9.826   8.643  1.5984 -1.6019 -1.0354
 1263SOL     OW 8635   8.838   1.790   5.979 -0.2267 -0.6303 -0.0026
 1263SOL    HW1 8636   8.798   1.769   5.894 -0.1513  0.9816 -0.4611
 1263SOL    HW2 8637   8.908   1.725   5.988  0.4319 -0.2300 -1.6816
 1264SOL     OW 8638   7.571   2.091   9.053 -0.0326 -0.8163 -0.4154
 1264SOL    HW1 8639   7.534   2.179   9.049  1.3801 -0.1931 -0.3493
 1264SOL    HW2 8640   7.536   2.047   8.975 -1.2386 -0.4155 -0.1185
 1265SOL     OW 8641   8.895   9.433   0.254 -0.0892  0.2619  0.4927
 1265SOL    HW1 8642   8.851   9.507   0.213  1.8501  1.1232 -0.1341
 1265SOL    HW2 8643   8.978   9.425   0.207 -0.5102 -2.8054  0.0255
 1266SOL     OW 8644   0.708   2.340   0.073 -0.6102  0.1280  0.2380
 1266SOL    HW1 8645   0.661   2.329   0.156  0.9539 -0.7846  1.0298
 1266SOL    HW2 8646   0.764   2.264   0.066  0.4129  0.9447 -0.9294
 1267SOL     OW 8647   0.843   8.089   9.778 -0.4063 -0.5873 -0.1887
 1267SOL    HW1 8648   0.769   8.056   9.727 -1.0985  1.1550 -0.3732
 1267SOL    HW2 8649   0.887   8.151   9.720 -0.1882  0.1413  0.7375
 1268SOL     OW 8650   0.518   2.994   0.236  0.6768  0.4635  0.4685
 1268SOL    HW1 8651   0.593   3.054   0.239 -0.0171  1.3317  1.0678
 1268SOL    HW2 8652   0.529   2.937   0.312  0.7820  0.5197  0.4955
 1269SOL     OW 8653   1.622   1.587   0.598 -0.0798  0.6831 -0.2167
 1269SOL    HW1 8654   1.583   1.616   0.680  0.7095 -1.3760  0.9601
 1269SOL    HW2 8655   1.716   1.582   0.616  0.1565  0.6623 -1.3824
 1270SOL     OW 8656   1.446   8.250   8.575 -0.7391  0.4979 -0.2881
 1270SOL    HW1 8657   1.471   8.264   8.483  1.3057 -0.5113  0.0586
 1270SOL    HW2 8658   1.451   8.155   8.586 -2.3250  0.4809  0.5490
 1271SOL     OW 8659   0.481   9.839   6.932  0.4419  0.1251 -0.4416
 1271SOL    HW1 8660   0.438   9.836   6.847 -0.8030 -0.8427  0.1919
 1271SOL    HW2 8661   0.568   9.802   6.917  0.1224 -0.3200 -1.2377
 1272SOL     OW 8662   8.895   3.180   7.299  0.7731  0.5774  0.0269
 1272SOL    HW1 8663   8.852   3.137   7.225  1.4414  0.8076 -0.4944
 1272SOL    HW2 8664   8.840   3.157   7.374 -0.7837  1.6016 -0.7558
 1273SOL     OW 8665   1.956   9.497   0.710  0.2593 -0.3038  0.2577
 1273SOL    HW1 8666   1.939   9.557   0.638 -1.5498 -1.0166  0.0466
 1273SOL    HW2 8667   2.025   9.539   0.761 -1.0976  2.0623  0.2577
 1274SOL     OW 8668   0.399   2.375   8.229 -0.0743  0.0582 -0.2837
 1274SOL    HW1 8669   0.372   2.326   8.151 -0.6022 -0.9068  0.4950
 1274SOL    HW2 8670   0.345   2.454   8.226  0.7791  0.6373 -1.5425
 1275SOL     OW 8671   8.665   9.488   8.657 -0.4101  0.3475 -0.8181
 1275SOL    HW1 8672   8.661   9.568   8.605  0.8330  0.3701 -0.9068
 1275SOL    HW2 8673   8.756   9.460   8.652 -0.2863  0.2597  1.2084
 1276SOL     OW 8674   8.972   1.528   9.007 -0.8168 -0.0296 -0.2960
 1276SOL    HW1 8675   8.878   1.541   8.990 -0.8367  1.8075  0.9583
 1276SOL    HW2 8676   8.981   1.543   9.101  0.9428  1.1773 -0.6171
 1277SOL     OW 8677   9.733   2.040   8.790 -0.7276  0.4738  0.1862
 1277SOL    HW1 8678   9.736   2.046   8.885 -0.5305  0.9833  0.1517
 1277SOL    HW2 8679   9.711   2.129   8.761  1.7695  0.9882 -0.3643
 1278SOL     OW 8680   9.360   9.464   7.456 -0.3250 -0.3471 -0.1087
 1278SOL    HW1 8681   9.272   9.480   7.487  0.7387  3.1430  1.5552
 1278SOL    HW2 8682   9.402   9.414   7.527 -0.0981  0.8283  0.6083
 1279SOL     OW 8683   9.668   2.388   8.254  0.3661 -0.3628 -0.1225
 1279SOL    HW1 8684   9.723   2.312   8.270  1.0738  0.4530  1.5771
 1279SOL    HW2 8685   9.640   2.379   8.163  1.4279 -1.9993 -0.3223
 1280SOL     OW 8686   9.608   2.339   9.721  0.1482 -0.0258  0.1098
 1280SOL    HW1 8687   9.593   2.311   9.630 -0.3472  1.3376 -0.2604
 1280SOL    HW2 8688   9.695   2.377   9.720 -0.4211  1.3444 -0.1812
 1281SOL     OW 8689   1.735   9.485   7.686 -0.6268  0.1360  0.2028
 1281SOL    HW1 8690   1.674   9.412   7.683 -1.5585  0.9034 -0.0485
 1281SOL    HW2 8691   1.719   9.527   7.770 -0.9331  0.7382 -0.1485
 1282SOL     OW 8692   8.009   1.164   6.732 -0.0070  0.4498  0.1487
 1282SOL    HW1 8693   7.991   1.258   6.731  1.3817  0.7293  0.1540
 1282SOL    HW2 8694   8.080   1.152   6.670 -1.0580 -0.8156 -0.8528
 1283SOL     OW 8695   1.330   1.719   7.408  0.0887  0.1634  0.6925
 1283SOL    HW1 8696   1.290   1.804   7.391 -1.3566 -0.4572  0.8165
 1283SOL    HW2 8697   1.307   1.667   7.331  0.1458 -0.3867  1.0445
 1284SOL     OW 8698   1.726   2.880   8.515  0.4969 -0.4501  0.2850
 1284SOL    HW1 8699   1.789   2.808   8.509 -1.2841 -2.0389 -0.4298
 1284SOL    HW2 8700   1.757   2.934   8.588  1.6740 -2.1401  1.0826
 1285SOL     OW 8701   0.863   1.306   9.644  0.0143 -0.3293  0.2867
 1285SOL    HW1 8702   0.837   1.297   9.736  0.8770 -1.0795  0.4691
 1285SOL    HW2 8703   0.957   1.290   9.644  0.2607  0.9816 -0.5510
 1286SOL     OW 8704   1.294   8.242   6.041  0.0669 -0.4810 -0.0309
 1286SOL    HW1 8705   1.303   8.335   6.018  0.9484  0.0957  2.3614
 1286SOL    HW2 8706   1.376   8.203   6.011 -0.1984 -0.4579 -0.8165
 1287SOL     OW 8707   0.498   9.691   0.584  0.0063  0.4743 -0.2546
 1287SOL    HW1 8708   0.498   9.773   0.534 -0.3108 -0.0749 -1.1792
 1287SOL    HW2 8709   0.583   9.652   0.565 -0.3467 -0.0211 -0.8730
 1288SOL     OW 8710   2.052   2.041   5.608 -0.3721  0.0290 -0.0048
 1288SOL    HW1 8711   1.992   2.082   5.670 -0.6197 -0.8670  0.3698
 1288SOL    HW2 8712   2.124   2.009   5.662  0.8363  1.7341 -0.5377
 1289SOL     OW 8713   9.181   1.843   9.215  0.4904  0.0992 -0.3179
 1289SOL    HW1 8714   9.267   1.829   9.254 -0.3672  0.1556  1.7402
 1289SOL    HW2 8715   9.187   1.804   9.128  2.0582 -1.5179  0.4595
 1290SOL     OW 8716   0.335   9.778   9.257 -0.0490 -0.2354  0.6405
 1290SOL    HW1 8717   0.421   9.768   9.299  1.2763  1.7392 -1.3353
 1290SOL    HW2 8718   0.351   9.841   9.186 -2.7748 -1.1227 -0.8926
 1291SOL     OW 8719   1.423   9.769   7.344 -0.2128  0.3212 -0.4743
 1291SOL    HW1 8720   1.415   9.704   7.414  0.1250  0.6099 -0.1660
 1291SOL    HW2 8721   1.495   9.825   7.372  0.0287  0.3395 -1.1371
 1292SOL     OW 8722   1.971   1.888   6.292 -0.0693 -0.0104  1.1093
 1292SOL    HW1 8723   2.014   1.973   6.290 -0.9819  0.5119 -1.8594
 1292SOL    HW2 8724   2.042   1.824   6.289  0.5870  0.7280  0.6599
 1293SOL     OW 8725   0.795   1.217   7.753 -0.0976 -0.3517 -0.4721
 1293SOL    HW1 8726   0.862   1.243   7.689  0.7097  0.5895  0.7086
 1293SOL    HW2 8727   0.835   1.148   7.804  0.6373  1.2880  1.2730
 1294SOL     OW 8728   1.399   9.598   8.872 -0.0819 -0.3011 -0.1110
 1294SOL    HW1 8729   1.436   9.670   8.821 -1.2024  0.3683 -0.0271
 1294SOL    HW2 8730   1.378   9.638   8.957  1.1985 -1.2498  0.6820
 1295SOL     OW 8731   0.878   4.800   8.764 -0.3602 -0.7321 -0.0335
 1295SOL    HW1 8732   0.868   4.850   8.845 -2.0310  0.4409 -0.8962
 1295SOL    HW2 8733   0.845   4.712   8.786  0.4611 -0.8269  0.8921
 1296SOL     OW 8734   0.118   0.007   7.408 -0.4624 -0.0039  0.0741
 1296SOL    HW1 8735   0.114   0.010   7.312  0.7905  0.4978  0.0207
 1296SOL    HW2 8736   0.032   0.036   7.436 -1.2132 -1.1911 -0.9100
 1297SOL     OW 8737   7.116   0.282   8.199  0.3155  0.4513  0.0732
 1297SOL    HW1 8738   7.060   0.222   8.249 -1.8806  1.4504 -1.0276
 1297SOL    HW2 8739   7.096   0.263   8.107  1.8713  0.8081 -0.3607
 1298SOL     OW 8740   9.425   0.727   7.695 -0.3578  0.0716 -0.3731
 1298SOL    HW1 8741   9.514   0.739   7.728 -0.7564  1.7848  0.1641
 1298SOL    HW2 8742   9.436   0.698   7.605  0.7579  0.3973 -0.3515
 1299SOL     OW 8743   3.152   2.746   0.802  0.3345  0.2417 -0.6610
 1299SOL    HW1 8744   3.212   2.757   0.729 -1.3827  0.0176 -2.1790
 1299SOL    HW2 8745   3.070   2.718   0.762 -0.5370 -0.3977  1.4098
 1300SOL     OW 8746   0.504   1.449   7.047  0.7179 -0.1421  0.0819
 1300SOL    HW1 8747   0.471   1.378   7.102  2.8216 -0.3806  1.1376
 1300SOL    HW2 8748   0.426   1.490   7.010 -0.6002 -3.9560 -1.8812
 1301SOL     OW 8749   9.622   8.387   9.136 -0.3836 -0.2721  0.8354
 1301SOL    HW1 8750   9.635   8.470   9.182  2.0835 -0.2177  0.1873
 1301SOL    HW2 8751   9.635   8.320   9.203 -0.0041 -0.1413  0.8986
 1302SOL     OW 8752   2.341   1.355   0.488 -0.1975 -0.1639  0.4494
 1302SOL    HW1 8753   2.276   1.350   0.419  0.2205 -0.3677  0.0697
 1302SOL    HW2 8754   2.410   1.294   0.462 -0.0743 -0.3048  1.0823
 1303SOL     OW 8755   1.251   9.180   7.635  0.2992  0.1414 -0.0058
 1303SOL    HW1 8756   1.258   9.241   7.562  0.0551  2.3936  1.7075
 1303SOL    HW2 8757   1.159   9.154   7.636 -0.0459  1.3131  0.3611
 1304SOL     OW 8758   1.619   1.758   8.826  0.3693  0.2670  0.0122
 1304SOL    HW1 8759   1.682   1.739   8.757 -0.6690  1.7501 -1.4207
 1304SOL    HW2 8760   1.591   1.848   8.809 -0.6696  0.3342  1.7838
 1305SOL     OW 8761   1.721   9.537   6.612  0.1232  0.2264  0.3809
 1305SOL    HW1 8762   1.635   9.570   6.637 -0.6194 -2.2037  1.3017
 1305SOL    HW2 8763   1.781   9.580   6.673 -0.5825  1.0161  0.5408
 1306SOL     OW 8764   0.853   2.397   0.448 -0.2359 -0.2540  0.1074
 1306SOL    HW1 8765   0.769   2.438   0.467 -0.2190 -0.4612  0.6438
 1306SOL    HW2 8766   0.918   2.467   0.463 -0.3286  0.0221 -0.6905
 1307SOL     OW 8767   1.529   9.367   1.775 -0.5206 -0.0331 -0.2076
 1307SOL    HW1 8768   1.435   9.354   1.770 -0.6638 -0.9679  2.8427
 1307SOL    HW2 8769   1.540   9.462   1.787 -1.1946 -0.0430  0.5778
 1308SOL     OW 8770   1.341   1.625   8.254  0.1023  0.2073 -0.2083
 1308SOL    HW1 8771   1.305   1.678   8.325 -0.7494  0.3898 -0.7611
 1308SOL    HW2 8772   1.410   1.679   8.216 -0.3572  0.6790 -0.3860
 1309SOL     OW 8773   2.090   0.776   8.916 -0.1191  0.1166  0.4109
 1309SOL    HW1 8774   2.075   0.773   8.822  3.9207  0.5625 -0.3983
 1309SOL    HW2 8775   2.090   0.869   8.938 -0.9968  0.0177  0.8917
 1310SOL     OW 8776   1.977   0.242   8.567 -0.1537  0.3373  0.4877
 1310SOL    HW1 8777   1.889   0.275   8.549 -0.0122 -0.2338 -1.4710
 1310SOL    HW2 8778   1.970   0.148   8.553  0.5351  0.1387  1.4003
 1311SOL     OW 8779   9.703   0.747   2.239  0.1608  0.0590  0.0534
 1311SOL    HW1 8780   9.720   0.689   2.313 -1.1635 -1.5652 -0.8483
 1311SOL    HW2 8781   9.656   0.693   2.176 -1.8665  2.2912 -0.5340
 1312SOL     OW 8782   2.078   8.242   7.493  0.1310  0.1192  0.7483
 1312SOL    HW1 8783   2.042   8.331   7.499  0.4209  0.1520  2.5352
 1312SOL    HW2 8784   2.173   8.255   7.493  0.1922 -0.2190  2.1548
 1313SOL     OW 8785   2.181   9.383   6.533 -0.7157  0.0261  0.2509
 1313SOL    HW1 8786   2.229   9.305   6.505  0.9820  0.7926  0.9160
 1313SOL    HW2 8787   2.118   9.351   6.598  1.2318 -0.5651  1.9197
 1314SOL     OW 8788   8.790   1.157   8.295 -0.2975 -0.2028 -0.3780
 1314SOL    HW1 8789   8.720   1.101   8.329  0.3081 -0.2394  0.8322
 1314SOL    HW2 8790   8.769   1.167   8.202 -1.3741 -1.0045 -0.2378
 1315SOL     OW 8791   3.038   0.773   8.700  0.3057  0.1833  0.0447
 1315SOL    HW1 8792   3.075   0.837   8.760 -1.2235 -0.2576  1.5155
 1315SOL    HW2 8793   3.057   0.688   8.741  0.7343 -0.2338 -0.9737
 1316SOL     OW 8794   1.550   0.939   9.612  0.2365 -0.1662 -0.3085
 1316SOL    HW1 8795   1.469   0.988   9.599 -0.3377 -1.0971 -0.2435
 1316SOL    HW2 8796   1.615   1.007   9.634 -0.2885  0.6957 -1.3239
 1317SOL     OW 8797   8.602   0.822   7.550 -0.0811  0.5147  0.0703
 1317SOL    HW1 8798   8.558   0.748   7.590  0.9693 -0.4442 -0.4968
 1317SOL    HW2 8799   8.535   0.890   7.544 -0.4376  0.4958  2.8388
 1318SOL     OW 8800   9.255   1.022   9.437 -0.5459  1.3064 -1.0887
 1318SOL    HW1 8801   9.252   1.103   9.488  0.7466  0.0900  1.0705
 1318SOL    HW2 8802   9.342   0.986   9.454 -0.7221 -0.0748 -2.7819
 1319SOL     OW 8803   0.717   1.567   8.489  0.7357  0.0777  0.9434
 1319SOL    HW1 8804   0.672   1.620   8.422  1.4602  0.0409  0.4156
 1319SOL    HW2 8805   0.661   1.574   8.566 -0.9602 -1.1605 -0.1047
 1320SOL     OW 8806   7.986   9.820   6.146  0.2362 -0.0069  0.0946
 1320SOL    HW1 8807   8.071   9.860   6.167  1.3771 -1.6993 -0.9916
 1320SOL    HW2 8808   8.002   9.771   6.065 -2.4998  1.7195 -1.6257
 1321SOL     OW 8809   2.570   1.502   9.319 -0.2808  0.7015  0.1548
 1321SOL    HW1 8810   2.480   1.475   9.298 -0.8092 -0.1878  3.0819
 1321SOL    HW2 8811   2.625   1.449   9.261 -1.5898 -0.1451 -0.3782
 1322SOL     OW 8812   8.919   8.239   0.266 -0.0312  0.2828  0.5828
 1322SOL    HW1 8813   8.934   8.323   0.222  2.1139 -1.8414 -3.2579
 1322SOL    HW2 8814   8.992   8.231   0.328  0.4951  0.7231  0.0318
 1323SOL     OW 8815   9.794   9.842   8.189 -0.1670 -0.2506  0.3549
 1323SOL    HW1 8816   9.794   9.748   8.208 -0.9128  0.2098  3.2139
 1323SOL    HW2 8817   9.709   9.860   8.151 -0.3493 -0.6334  0.5793
 1324SOL     OW 8818   0.624   2.244   1.908 -0.3145 -0.0981 -0.0669
 1324SOL    HW1 8819   0.717   2.239   1.890 -0.3892  0.9706 -0.8433
 1324SOL    HW2 8820   0.590   2.307   1.844 -0.9805  2.1628  2.3043
 1325SOL     OW 8821   9.358   0.472   7.813  0.1036  0.2773 -0.1614
 1325SOL    HW1 8822   9.334   0.428   7.732 -2.1399  1.1568 -0.0675
 1325SOL    HW2 8823   9.377   0.562   7.788 -0.5679  0.5468  0.2468
 1326SOL     OW 8824   1.912   0.796   9.693 -0.1042  0.0956  0.0917
 1326SOL    HW1 8825   1.985   0.775   9.751  0.3582  1.3052 -0.0070
 1326SOL    HW2 8826   1.874   0.876   9.730 -0.1678  0.5577 -0.9153
 1327SOL     OW 8827   0.009   8.407   9.767  0.5862 -0.4882  0.5266
 1327SOL    HW1 8828  -0.021   8.474   9.829  0.3415 -0.0825 -0.0272
 1327SOL    HW2 8829  -0.028   8.433   9.683  2.8468  0.2813 -0.2814
 1328SOL     OW 8830   2.134   9.844   9.193  0.3299  0.1378  0.2294
 1328SOL    HW1 8831   2.109   9.920   9.246  0.0268 -0.1716  0.5341
 1328SOL    HW2 8832   2.173   9.783   9.256 -0.4986 -0.4457  0.1910
 1329SOL     OW 8833   1.395   0.202   8.297 -0.2955 -1.0528 -1.0595
 1329SOL    HW1 8834   1.378   0.284   8.343 -0.4658 -2.7729  2.2757
 1329SOL    HW2 8835   1.322   0.193   8.235 -0.6797  0.9095 -0.9290
 1330SOL     OW 8836   9.237   0.722   9.291 -0.4641 -0.4544 -0.4108
 1330SOL    HW1 8837   9.283   0.788   9.239 -1.4164  0.8042  0.2736
 1330SOL    HW2 8838   9.291   0.643   9.284  1.6493  0.8651  0.1243
 1331SOL     OW 8839   9.539   0.640   8.317 -0.4357  0.0740  0.5701
 1331SOL    HW1 8840   9.486   0.697   8.262 -0.7289 -1.5219 -0.9211
 1331SOL    HW2 8841   9.628   0.674   8.308 -0.7323  0.8404  0.4730
 1332SOL     OW 8842   2.076   1.454   7.975  0.4807 -0.2858  0.0306
 1332SOL    HW1 8843   2.107   1.502   7.899 -0.5934 -0.6554 -0.6608
 1332SOL    HW2 8844   2.040   1.373   7.939  0.3155 -0.6397  0.9698
 1333SOL     OW 8845   0.425   8.523   7.356  0.3267  0.2792 -0.2930
 1333SOL    HW1 8846   0.483   8.450   7.334 -1.3358 -0.6610 -1.8164
 1333SOL    HW2 8847   0.337   8.484   7.357 -0.3122  1.5791  2.2385
 1334SOL     OW 8848   1.325   8.989   8.506  0.0035 -0.4063  0.3709
 1334SOL    HW1 8849   1.294   9.049   8.438  2.1696  2.2172  1.4698
 1334SOL    HW2 8850   1.404   8.950   8.470 -0.3340 -1.1131  0.3874
 1335SOL     OW 8851   8.982   1.247   6.147 -0.6101  0.3830 -0.1514
 1335SOL    HW1 8852   8.969   1.337   6.174  2.4927  0.9255 -0.1371
 1335SOL    HW2 8853   9.038   1.252   6.070 -0.6533 -1.5119 -0.3703
 1336SOL     OW 8854   1.126   2.379   7.694 -0.2447 -0.3122 -1.1005
 1336SOL    HW1 8855   1.123   2.461   7.744 -2.4443 -1.4286  0.7887
 1336SOL    HW2 8856   1.219   2.367   7.674  0.0811  2.9491 -2.0840
 1337SOL     OW 8857   0.621   9.330   0.218  0.1151  0.2594  0.3897
 1337SOL    HW1 8858   0.565   9.357   0.291  3.1046  1.0447  2.5703
 1337SOL    HW2 8859   0.660   9.247   0.246  2.7269  1.4659  0.6354
 1338SOL     OW 8860   3.948   2.824   7.590 -0.1732 -0.0176  0.4325
 1338SOL    HW1 8861   3.917   2.892   7.530  2.3105  1.9074  1.1587
 1338SOL    HW2 8862   4.035   2.800   7.557  0.7340  0.2051  2.4827
 1339SOL     OW 8863   0.626   1.189   0.465 -0.5606 -0.6788  0.0999
 1339SOL    HW1 8864   0.617   1.145   0.550  0.4511 -0.7131  0.1980
 1339SOL    HW2 8865   0.538   1.221   0.446 -1.1945 -2.1723  0.3324
 1340SOL     OW 8866   3.804   2.271   9.342  0.5274 -0.1003  0.1908
 1340SOL    HW1 8867   3.840   2.260   9.430  1.4531  0.0454 -0.1551
 1340SOL    HW2 8868   3.759   2.356   9.345  0.7187 -0.0079  0.4691
 1341SOL     OW 8869   1.589   1.228   9.642  0.5443 -0.1252 -0.0405
 1341SOL    HW1 8870   1.532   1.243   9.718  0.4497  0.8993 -0.3039
 1341SOL    HW2 8871   1.670   1.192   9.680 -0.8180 -3.2451  0.1973
 1342SOL     OW 8872   1.802   1.513   9.481 -0.3518  0.3690 -0.6697
 1342SOL    HW1 8873   1.829   1.423   9.496  0.5959  0.6498 -0.5923
 1342SOL    HW2 8874   1.756   1.538   9.561 -0.9464 -0.1540 -0.8403
 1343SOL     OW 8875   9.519   0.380   8.240  0.4820 -0.2276  0.0200
 1343SOL    HW1 8876   9.498   0.465   8.280 -0.8728 -0.3480 -0.3731
 1343SOL    HW2 8877   9.613   0.384   8.223  0.4879  1.1025  0.2428
 1344SOL     OW 8878   1.769   0.368   1.151 -0.3144  0.5126 -0.2781
 1344SOL    HW1 8879   1.684   0.329   1.167 -0.4061 -0.5925 -2.9662
 1344SOL    HW2 8880   1.764   0.401   1.061  1.6957  1.5040 -0.0853
 1345SOL     OW 8881   2.170   1.806   9.511  0.2384 -0.6751 -0.2945
 1345SOL    HW1 8882   2.085   1.795   9.553  0.1551  0.0404 -0.2679
 1345SOL    HW2 8883   2.229   1.749   9.560  0.2160  0.3705  0.9986
 1346SOL     OW 8884   1.865   1.991   3.155  0.0940 -0.2681  0.1048
 1346SOL    HW1 8885   1.868   1.906   3.111  1.5602 -0.6645  0.9081
 1346SOL    HW2 8886   1.886   2.054   3.086 -1.5468 -0.4620 -0.6264
 1347SOL     OW 8887   1.427   1.297   9.851 -0.5947  0.5145 -0.6385
 1347SOL    HW1 8888   1.331   1.303   9.854 -0.6024  0.2865  1.3527
 1347SOL    HW2 8889   1.452   1.280   9.942  1.4161  1.5206 -0.9527
 1348SOL     OW 8890   1.115   8.719   0.931 -0.3378 -0.2856 -0.2648
 1348SOL    HW1 8891   1.153   8.692   0.848 -0.5003  0.6205 -0.6425
 1348SOL    HW2 8892   1.097   8.812   0.920 -2.0401 -0.5264  0.1187
 1349SOL     OW 8893   1.166   3.505   1.690 -0.2820 -0.0705  0.6467
 1349SOL    HW1 8894   1.075   3.533   1.690 -0.0440  0.7356 -0.1172
 1349SOL    HW2 8895   1.215   3.580   1.724  0.3097  0.3090 -0.9595
 1350SOL     OW 8896   9.668   1.040   9.837  0.2960  0.4267 -0.1745
 1350SOL    HW1 8897   9.744   0.983   9.846  1.3460  1.6380 -0.9660
 1350SOL    HW2 8898   9.598   0.994   9.882  1.3319 -1.0314  0.0177
 1351SOL     OW 8899   0.385   9.767   8.866 -0.5323  0.4295 -0.2684
 1351SOL    HW1 8900   0.365   9.821   8.790  3.5527  0.7590 -1.3318
 1351SOL    HW2 8901   0.415   9.683   8.829 -0.2767 -0.0923  1.0663
 1352SOL     OW 8902   2.306   2.045   8.803 -0.3113 -0.1335  0.3691
 1352SOL    HW1 8903   2.297   2.140   8.797  0.9129 -0.0243 -0.0827
 1352SOL    HW2 8904   2.378   2.031   8.864  0.4706 -0.7074 -0.6413
 1353SOL     OW 8905   8.488   9.680   8.904 -0.1503  0.3465 -0.5168
 1353SOL    HW1 8906   8.535   9.623   8.844 -0.6758  0.0880 -0.6857
 1353SOL    HW2 8907   8.426   9.623   8.948  0.7037  0.3936  0.7992
 1354SOL     OW 8908   9.706   0.739   8.563  0.0940  0.1537 -0.1053
 1354SOL    HW1 8909   9.742   0.709   8.479 -0.1716 -1.5227  0.3562
 1354SOL    HW2 8910   9.644   0.807   8.539  0.8897  0.5366 -1.1748
 1355SOL     OW 8911   9.593   0.613   1.522  0.0622 -0.3376 -0.4808
 1355SOL    HW1 8912   9.655   0.599   1.594  1.3291 -1.2326 -1.7060
 1355SOL    HW2 8913   9.521   0.662   1.562  1.5764  0.8080  0.9747
 1356SOL     OW 8914   2.376   2.121   9.321 -0.0644  0.4572  0.0970
 1356SOL    HW1 8915   2.370   2.213   9.344  0.3150  0.7703 -0.9597
 1356SOL    HW2 8916   2.450   2.087   9.372 -0.5532  0.6007  0.8953
 1357SOL     OW 8917   1.143   1.415   7.872 -0.2781  0.3216  0.0471
 1357SOL    HW1 8918   1.201   1.440   7.800  0.9472  0.4799  1.0568
 1357SOL    HW2 8919   1.180   1.333   7.905 -1.9395 -0.7832 -0.6825
 1358SOL     OW 8920   1.882   1.830   9.587 -0.0077  0.0291  0.4937
 1358SOL    HW1 8921   1.901   1.916   9.548  2.2579 -0.8368 -0.5214
 1358SOL    HW2 8922   1.804   1.800   9.541  0.8406  0.3548 -1.2651
 1359SOL     OW 8923   1.055   6.927   1.464  0.7250 -0.6349 -0.5236
 1359SOL    HW1 8924   1.027   6.865   1.397  0.0753 -1.0038  0.0776
 1359SOL    HW2 8925   1.135   6.890   1.501  0.4410 -1.0215 -0.2961
 1360SOL     OW 8926   1.945   8.895   1.461  0.1970  0.4240  0.5318
 1360SOL    HW1 8927   1.926   8.968   1.402 -0.2518 -0.6454 -0.7012
 1360SOL    HW2 8928   1.950   8.935   1.548 -2.4728  1.6036  0.2643
 1361SOL     OW 8929   9.691   0.800   9.263  0.2702  0.3274  0.4252
 1361SOL    HW1 8930   9.730   0.882   9.234  0.7451  0.3461  1.0988
 1361SOL    HW2 8931   9.749   0.767   9.331 -1.0690  0.5589  1.7405
 1362SOL     OW 8932   0.102   0.908   8.086  0.5090 -0.4672 -0.1505
 1362SOL    HW1 8933   0.084   0.826   8.040 -0.1053 -0.2707 -0.2675
 1362SOL    HW2 8934   0.072   0.976   8.026  0.6504 -0.1708  0.1139
 1363SOL     OW 8935   1.672   1.404   1.240 -0.1348 -0.6436  0.4636
 1363SOL    HW1 8936   1.651   1.342   1.310  0.0330  0.2881  1.3602
 1363SOL    HW2 8937   1.730   1.468   1.281 -1.0621  0.6458 -0.1658
 1364SOL     OW 8938   0.622   1.203   9.175  0.4742 -0.1373  0.4215
 1364SOL    HW1 8939   0.634   1.117   9.133  0.8100 -0.0363  0.3075
 1364SOL    HW2 8940   0.582   1.182   9.260  0.2049 -0.3763  0.2387
 1365SOL     OW 8941   2.496   9.628   8.555  0.0538  0.0795 -0.0924
 1365SOL    HW1 8942   2.530   9.539   8.544 -2.7095 -0.9486 -1.2264
 1365SOL    HW2 8943   2.552   9.682   8.499 -0.1864 -1.5295 -1.9975
 1366SOL     OW 8944   0.962   2.957   0.504 -0.4077 -0.6269  0.1826
 1366SOL    HW1 8945   0.913   2.918   0.577  0.6680 -2.4782 -0.0192
 1366SOL    HW2 8946   0.958   2.891   0.435  1.1474 -0.2135 -0.3406
 1367SOL     OW 8947   0.625   2.048   9.010  0.3842  0.2005 -0.3012
 1367SOL    HW1 8948   0.541   2.077   8.974 -0.0593 -0.7682 -0.0868
 1367SOL    HW2 8949   0.604   2.015   9.097  1.1924  1.0487  0.2339
 1368SOL     OW 8950   1.784   9.624   8.795  0.3280  0.1732 -0.9747
 1368SOL    HW1 8951   1.779   9.656   8.705 -1.1309 -1.0395 -1.3767
 1368SOL    HW2 8952   1.711   9.562   8.802  1.2169 -0.7591  0.6391
 1369SOL     OW 8953   0.630   2.110   6.929  0.5743 -0.3813  0.4353
 1369SOL    HW1 8954   0.654   2.033   6.981 -0.5524 -0.6680  0.5594
 1369SOL    HW2 8955   0.676   2.098   6.846 -1.5404 -2.5759 -0.5745
 1370SOL     OW 8956   1.747   1.431   8.728 -0.4027 -0.3988  0.2740
 1370SOL    HW1 8957   1.829   1.481   8.729  1.2170 -2.7721 -1.8217
 1370SOL    HW2 8958   1.691   1.478   8.667  0.7985 -0.6286 -1.0570
 1371SOL     OW 8959   9.582   0.757   9.678  0.1899 -0.0672  0.1380
 1371SOL    HW1 8960   9.532   0.711   9.746  0.9008  0.7311  1.2443
 1371SOL    HW2 8961   9.667   0.772   9.718  0.3614  1.1205 -0.6440
 1372SOL     OW 8962   9.514   0.977   9.532 -0.0202  0.0763  0.5737
 1372SOL    HW1 8963   9.596   1.025   9.525  0.4193 -0.7466  0.0036
 1372SOL    HW2 8964   9.536   0.899   9.582  0.1752 -1.4684 -1.7717
 1373SOL     OW 8965   0.033   2.133   2.165 -0.1896 -0.3540  0.3753
 1373SOL    HW1 8966  -0.053   2.098   2.144 -0.0830 -0.8403  0.7310
 1373SOL    HW2 8967   0.090   2.056   2.167 -0.2282 -0.3940  2.7003
 1374SOL     OW 8968   0.994   0.941   0.672 -0.2272 -0.6503 -0.5579
 1374SOL    HW1 8969   0.916   0.964   0.621 -0.7328  0.7974  0.7865
 1374SOL    HW2 8970   1.054   1.014   0.657 -0.1313 -0.5253  0.3942
 1375SOL     OW 8971   9.595   1.649   1.531 -0.0399  0.4073  0.1602
 1375SOL    HW1 8972   9.535   1.598   1.477 -1.0864  1.5201  0.2328
 1375SOL    HW2 8973   9.650   1.583   1.574 -0.2363 -0.5676 -1.0187
 1376SOL     OW 8974   1.448   2.190   9.834  0.0437  0.2138  0.1159
 1376SOL    HW1 8975   1.447   2.114   9.776  0.2270  0.5205 -0.3001
 1376SOL    HW2 8976   1.375   2.244   9.804  0.3298  0.5224 -0.0355
 1377SOL     OW 8977   1.852   1.565   7.623 -0.4417  0.6744 -0.1551
 1377SOL    HW1 8978   1.781   1.502   7.641 -0.6484  0.3086 -2.0291
 1377SOL    HW2 8979   1.906   1.522   7.557  0.3632  1.8055 -0.2620
 1378SOL     OW 8980   1.169   2.088   9.446  0.0062  0.2015 -0.4661
 1378SOL    HW1 8981   1.123   2.081   9.363  1.0276  2.5369 -1.3258
 1378SOL    HW2 8982   1.120   2.155   9.494 -0.1531 -0.6175  0.5425
 1379SOL     OW 8983   2.337   2.661   0.309 -0.1485 -0.1206  0.2893
 1379SOL    HW1 8984   2.302   2.721   0.374 -3.7178  0.6034 -1.9950
 1379SOL    HW2 8985   2.294   2.577   0.328  1.0853 -0.7048  0.5850
 1380SOL     OW 8986   2.721   1.643   1.232  0.4692 -0.3141 -0.5258
 1380SOL    HW1 8987   2.671   1.675   1.157 -0.0412 -1.4047 -0.6707
 1380SOL    HW2 8988   2.741   1.552   1.210 -1.5313 -1.3620  1.5714
 1381SOL     OW 8989   1.663   2.351   0.173  0.0345 -0.2690 -0.2891
 1381SOL    HW1 8990   1.688   2.379   0.261 -1.8690 -1.2556  0.6306
 1381SOL    HW2 8991   1.599   2.417   0.144  0.4945 -0.0659 -0.8469
 1382SOL     OW 8992   1.003   1.794   8.824  0.2938 -0.0080  0.5610
 1382SOL    HW1 8993   0.965   1.707   8.841  1.0781 -0.3849  0.4273
 1382SOL    HW2 8994   1.024   1.793   8.731 -0.1819  0.5315  0.4435
 1383SOL     OW 8995   1.337   9.592   1.501  0.1066  0.2161 -0.0775
 1383SOL    HW1 8996   1.373   9.637   1.578 -1.0723 -0.2203  0.7428
 1383SOL    HW2 8997   1.320   9.503   1.531 -1.9494  0.4853 -0.3303
 1384SOL     OW 8998   3.726   2.261   0.196  0.2070 -0.1514  0.2041
 1384SOL    HW1 8999   3.729   2.172   0.231 -0.9326 -0.0270  0.6406
 1384SOL    HW2 9000   3.717   2.317   0.273  2.6585  0.5108  0.0972
 1385SOL     OW 9001   3.148   1.901   9.437 -0.2268 -0.1780  0.3285
 1385SOL    HW1 9002   3.127   1.857   9.519  0.4343  3.1468  2.5012
 1385SOL    HW2 9003   3.082   1.970   9.430 -0.8845 -0.9867 -2.5684
 1386SOL     OW 9004   9.155   0.669   0.348 -0.7868  0.2555  0.5083
 1386SOL    HW1 9005   9.080   0.729   0.354  0.8981  2.3108  2.2811
 1386SOL    HW2 9006   9.231   0.726   0.344  0.8647 -1.7959  1.2968
 1387SOL     OW 9007   9.712   8.632   9.009 -0.0943  0.1813 -0.2283
 1387SOL    HW1 9008   9.671   8.696   9.068  1.0796  1.1063 -0.3804
 1387SOL    HW2 9009   9.639   8.582   8.973 -0.9896  0.9883  0.4203
 1388SOL     OW 9010   1.292   1.001   8.559  0.3139 -0.1036  0.1772
 1388SOL    HW1 9011   1.380   0.966   8.555  0.5095  0.2768  0.9174
 1388SOL    HW2 9012   1.302   1.096   8.548  0.0377 -0.0184  0.6235
 1389SOL     OW 9013   1.301   2.356   9.679  0.0774  0.2859 -0.2107
 1389SOL    HW1 9014   1.209   2.361   9.706  0.3768 -0.2317  0.9677
 1389SOL    HW2 9015   1.310   2.424   9.613 -1.1195  0.4387 -0.2449
 1390SOL     OW 9016   9.416   0.000   1.470 -0.3888  0.0034  0.4986
 1390SOL    HW1 9017   9.463   0.074   1.509  0.2646  0.5002 -1.1592
 1390SOL    HW2 9018   9.484  -0.064   1.450 -0.0646  1.1856 -2.9706
 1391SOL     OW 9019   0.473   8.943   8.275  0.1535  1.0247  0.2436
 1391SOL    HW1 9020   0.559   8.906   8.261 -0.9202 -2.5083  1.8630
 1391SOL    HW2 9021   0.420   8.909   8.203 -0.1049  2.5254 -0.3039
 1392SOL     OW 9022   2.064   1.924   0.515 -0.6163 -0.5090 -0.3425
 1392SOL    HW1 9023   2.051   1.840   0.559  0.7227  0.3097  1.7706
 1392SOL    HW2 9024   2.003   1.984   0.558  0.9949  0.3989  0.7946
 1393SOL     OW 9025   0.476   0.110   9.555  0.2174 -0.5108  0.9506
 1393SOL    HW1 9026   0.497   0.090   9.463  0.4452  1.1023  0.6276
 1393SOL    HW2 9027   0.558   0.144   9.591 -0.3290  0.4598  1.2801
 1394SOL     OW 9028   2.276   1.336   8.797 -0.5092 -0.4992  0.2855
 1394SOL    HW1 9029   2.210   1.306   8.860  0.6775 -0.2920  1.7062
 1394SOL    HW2 9030   2.356   1.344   8.850  0.3680  0.3839 -1.1264
 1395SOL     OW 9031   9.597   7.982   8.456  0.1746  0.7556 -0.0909
 1395SOL    HW1 9032   9.681   7.986   8.501 -0.2458  1.7354  0.6620
 1395SOL    HW2 9033   9.620   7.979   8.363  1.0440  1.1345  0.0961
 1396SOL     OW 9034   9.704   8.364   8.446 -0.3712 -0.2179 -0.5219
 1396SOL    HW1 9035   9.752   8.299   8.497  0.6090  0.7520 -0.1801
 1396SOL    HW2 9036   9.732   8.349   8.356 -1.3769 -1.3038 -0.6787
 1397SOL     OW 9037   0.833   9.741   9.371  0.0372 -0.2214 -0.7897
 1397SOL    HW1 9038   0.814   9.654   9.337 -1.2429  0.0123 -0.7468
 1397SOL    HW2 9039   0.806   9.737   9.462  1.2994 -0.1765 -0.4040
 1398SOL     OW 9040   9.464   1.488   9.433 -0.0317 -0.4117  0.1972
 1398SOL    HW1 9041   9.394   1.501   9.498 -1.3995 -0.1872 -1.2432
 1398SOL    HW2 9042   9.534   1.546   9.461 -0.3420 -0.7684  1.7912
 1399SOL     OW 9043   1.405   1.299   0.894 -0.0487 -0.2138  0.3221
 1399SOL    HW1 9044   1.343   1.267   0.959  0.0941 -0.1124  0.5095
 1399SOL    HW2 9045   1.365   1.379   0.859  0.5309  0.5282  1.3145
 1400SOL     OW 9046   0.185   4.079   0.180 -0.2972 -0.2058  0.5781
 1400SOL    HW1 9047   0.194   4.077   0.275  1.1268  0.8214  0.4973
 1400SOL    HW2 9048   0.253   4.019   0.149 -0.5111 -0.2549  0.1954
 1401SOL     OW 9049   1.163   3.394   9.554 -0.6924  0.2888  0.3722
 1401SOL    HW1 9050   1.158   3.357   9.642 -1.0305  1.4841  0.8676
 1401SOL    HW2 9051   1.136   3.485   9.564 -0.9037  0.4006 -0.9991
 1402SOL     OW 9052   1.647   9.128   1.040  0.1939 -0.0206 -0.1241
 1402SOL    HW1 9053   1.713   9.097   1.102  0.2061  0.1664 -0.0431
 1402SOL    HW2 9054   1.600   9.197   1.087 -0.4975 -0.6012  0.0580
 1403SOL     OW 9055   0.933   3.226   0.652  0.8609  0.6548 -0.5266
 1403SOL    HW1 9056   0.961   3.137   0.674  2.7400  1.3926  0.2505
 1403SOL    HW2 9057   0.872   3.214   0.579  0.8361 -1.2816 -0.2423
 1404SOL     OW 9058   1.495   1.959   0.570  0.1809  0.1289 -0.2082
 1404SOL    HW1 9059   1.426   1.895   0.553 -1.6430  2.0412 -0.4149
 1404SOL    HW2 9060   1.476   1.993   0.658  0.3741  1.2379 -0.5770
 1405SOL     OW 9061   0.946   2.588   2.469 -0.2155  0.3343 -0.4193
 1405SOL    HW1 9062   0.884   2.532   2.516  0.6912 -0.6299 -0.3287
 1405SOL    HW2 9063   0.907   2.600   2.383 -1.0645  0.6793  0.0056
 1406SOL     OW 9064   9.107   2.773   1.211 -0.2131 -0.0494  0.4156
 1406SOL    HW1 9065   9.183   2.827   1.232  0.5157 -0.9633  0.1831
 1406SOL    HW2 9066   9.097   2.714   1.285  0.3167 -1.0262 -0.2662
 1407SOL     OW 9067   1.904   0.970   2.549  0.3682 -0.2067  0.2672
 1407SOL    HW1 9068   1.814   0.938   2.556  0.8124 -1.3488  1.0998
 1407SOL    HW2 9069   1.957   0.904   2.595  1.6752  0.2473 -0.5195
 1408SOL     OW 9070   9.759   1.266   0.277  0.3226  0.2596  0.8614
 1408SOL    HW1 9071   9.709   1.262   0.195  0.2315 -0.2443  0.9356
 1408SOL    HW2 9072   9.768   1.359   0.295  3.5435  0.6431 -1.6780
 1409SOL     OW 9073   0.534   2.228   0.549  0.6847 -0.1277  0.2976
 1409SOL    HW1 9074   0.630   2.237   0.550  0.7964 -1.2740  0.7301
 1409SOL    HW2 9075   0.515   2.189   0.464  0.8585 -2.2784  1.1907
 1410SOL     OW 9076   2.062   3.452   1.292 -0.3464 -0.4337 -0.0673
 1410SOL    HW1 9077   2.087   3.430   1.202  0.0085 -1.6852  0.3163
 1410SOL    HW2 9078   1.989   3.514   1.282  0.4274  0.3306 -1.2020
 1411SOL     OW 9079   3.119   0.686   1.900  0.2743  0.1198 -0.1557
 1411SOL    HW1 9080   3.137   0.770   1.857 -1.3986  0.9477  0.6828
 1411SOL    HW2 9081   3.054   0.644   1.843 -0.1440  0.1557  0.2880
 1412SOL     OW 9082   0.473   2.801   7.380  0.2752 -0.3845  0.1064
 1412SOL    HW1 9083   0.407   2.746   7.339 -0.5879  1.1810 -0.7242
 1412SOL    HW2 9084   0.450   2.890   7.352  2.6991  0.2318 -0.1727
 1413SOL     OW 9085   9.332   1.620   1.344  0.2981  0.2927  0.0761
 1413SOL    HW1 9086   9.273   1.679   1.391  0.0320 -0.2418  0.4238
 1413SOL    HW2 9087   9.327   1.538   1.393  1.8886  0.4458  0.5378
 1414SOL     OW 9088   1.759   5.875   3.049  0.2429  0.5869  0.6503
 1414SOL    HW1 9089   1.734   5.827   2.970 -3.0827 -0.6671  2.2594
 1414SOL    HW2 9090   1.808   5.950   3.017  1.0134 -1.0359 -2.3918
 1415SOL     OW 9091   0.809   1.894   0.224 -0.3414 -0.0672  0.3198
 1415SOL    HW1 9092   0.725   1.874   0.266 -1.6336  2.0185 -1.0268
 1415SOL    HW2 9093   0.803   1.850   0.139 -1.6373  2.7269 -1.1626
 1416SOL     OW 9094   0.498   8.817   1.557 -0.1857  0.5625  0.1146
 1416SOL    HW1 9095   0.576   8.764   1.576  0.3855  0.4426 -2.2997
 1416SOL    HW2 9096   0.532   8.896   1.516 -1.1987  1.8984  1.6957
 1417SOL     OW 9097   2.164   1.033   9.235 -0.3954 -0.5936 -0.1662
 1417SOL    HW1 9098   2.162   1.068   9.146 -1.3591 -0.3271 -0.0513
 1417SOL    HW2 9099   2.072   1.021   9.259 -0.1491 -0.7799  0.7467
 1418SOL     OW 9100   1.590   4.070   9.082  0.5474 -0.3846 -0.4258
 1418SOL    HW1 9101   1.576   4.000   9.019  2.0129 -0.5395 -0.6150
 1418SOL    HW2 9102   1.637   4.138   9.033 -0.8292  0.7573 -0.2458
 1419SOL     OW 9103   9.297   1.351   7.983 -0.1080 -0.3772 -0.5516
 1419SOL    HW1 9104   9.366   1.403   8.024 -0.5294  0.2264 -0.5807
 1419SOL    HW2 9105   9.297   1.268   8.031 -0.8006  0.4238  0.9359
 1420SOL     OW 9106   2.783   2.493   1.211 -0.3170 -0.8226  0.1285
 1420SOL    HW1 9107   2.853   2.428   1.220  0.7434  0.3955  1.0392
 1420SOL    HW2 9108   2.734   2.465   1.134  0.9711 -1.8965 -0.3384
 1421SOL     OW 9109   0.794   2.221   2.816  0.4020  0.4149  0.2497
 1421SOL    HW1 9110   0.777   2.244   2.725 -0.0165 -2.3443 -0.4795
 1421SOL    HW2 9111   0.713   2.179   2.846  1.4640 -1.2741  0.9189
 1422SOL     OW 9112   9.075   3.427   1.662 -0.4565  0.0044 -0.0181
 1422SOL    HW1 9113   9.036   3.342   1.642  0.2923 -0.4942  0.5514
 1422SOL    HW2 9114   9.105   3.419   1.752  0.4469  0.5516 -0.2536
 1423SOL     OW 9115   0.589   3.703   9.432 -0.1017  0.2590  0.0512
 1423SOL    HW1 9116   0.602   3.798   9.424 -1.9221  0.5005 -0.3956
 1423SOL    HW2 9117   0.593   3.671   9.341  1.2915 -0.2495  0.2535
 1424SOL     OW 9118   0.405   7.739   1.290 -0.0049 -0.3420 -0.5444
 1424SOL    HW1 9119   0.431   7.647   1.286  2.9474  0.2439  1.8384
 1424SOL    HW2 9120   0.466   7.784   1.231 -1.4832  0.1518 -1.7667
 1425SOL     OW 9121   0.511   2.918   0.614  0.0582  0.0336 -0.0882
 1425SOL    HW1 9122   0.594   2.899   0.571  0.0242 -2.1357  0.6460
 1425SOL    HW2 9123   0.496   2.841   0.670 -2.1800  0.6199  0.1909
 1426SOL     OW 9124   0.416   1.934   7.215  0.0360  0.3843 -0.3176
 1426SOL    HW1 9125   0.354   1.991   7.261 -2.0031 -1.4850 -0.5915
 1426SOL    HW2 9126   0.399   1.950   7.123 -0.0536 -0.1540 -0.3943
 1427SOL     OW 9127   8.338   2.473   1.076 -0.3456 -0.3523 -0.3100
 1427SOL    HW1 9128   8.258   2.441   1.034 -0.1744  0.1489 -1.0324
 1427SOL    HW2 9129   8.311   2.493   1.166 -0.5264 -2.2053  0.1022
 1428SOL     OW 9130   9.799   0.408   2.244 -0.5539  0.0120  0.1356
 1428SOL    HW1 9131   9.814   0.315   2.224 -1.3606 -0.2721  0.8000
 1428SOL    HW2 9132   9.880   0.451   2.216  0.3848 -1.0776  1.0406
 1429SOL     OW 9133   3.807   2.058   1.728  0.3510  0.2652  0.6125
 1429SOL    HW1 9134   3.717   2.072   1.758 -0.0832 -0.5120 -0.3071
 1429SOL    HW2 9135   3.807   1.970   1.691  1.4282  0.3639  0.3512
 1430SOL     OW 9136   1.740   2.862   9.476  0.0414  0.1325  0.0923
 1430SOL    HW1 9137   1.781   2.797   9.418 -0.8297 -0.5212  0.1855
 1430SOL    HW2 9138   1.737   2.942   9.424  1.1547  0.1199 -0.0166
 1431SOL     OW 9139   2.161   3.342   2.277  0.1682  0.1596  1.1612
 1431SOL    HW1 9140   2.252   3.347   2.306 -0.2399 -0.5924  2.7430
 1431SOL    HW2 9141   2.114   3.304   2.352 -1.7434  2.0554  1.0210
 1432SOL     OW 9142   0.683   5.193   2.717  0.4339 -0.6269 -0.1513
 1432SOL    HW1 9143   0.727   5.207   2.801  0.3620  1.1652 -0.3687
 1432SOL    HW2 9144   0.590   5.203   2.737  0.3217 -1.5287 -0.2114
 1433SOL     OW 9145   1.621   1.606   8.538  0.0644 -0.2182 -0.0903
 1433SOL    HW1 9146   1.529   1.629   8.528  0.3024 -0.1505 -2.6884
 1433SOL    HW2 9147   1.664   1.687   8.563 -0.4405 -0.0514  0.2462
 1434SOL     OW 9148   3.443   1.171   0.593 -0.2100  0.3084  0.3518
 1434SOL    HW1 9149   3.358   1.127   0.584 -1.1071  2.0477 -0.2380
 1434SOL    HW2 9150   3.422   1.264   0.590  1.8612  0.8098 -1.3620
 1435SOL     OW 9151   1.963   2.352   7.545  0.4907  0.3341 -0.2311
 1435SOL    HW1 9152   1.922   2.343   7.459  1.1981  0.8881 -0.6428
 1435SOL    HW2 9153   2.056   2.334   7.530  0.5148 -0.2426  0.5530
 1436SOL     OW 9154   9.747   3.548   0.363  0.3176  0.6528 -0.4605
 1436SOL    HW1 9155   9.826   3.602   0.360  1.3281 -0.7801 -2.5650
 1436SOL    HW2 9156   9.779   3.461   0.388 -1.0225  0.5874  1.2126
 1437SOL     OW 9157   9.072   2.929   0.899 -0.1392 -0.2510  0.5227
 1437SOL    HW1 9158   9.119   2.848   0.921  0.5815 -0.2661 -0.9890
 1437SOL    HW2 9159   9.123   2.968   0.828 -0.1728  1.8270  1.5712
 1438SOL     OW 9160   2.777   1.216   0.687  0.2063 -0.4118  0.4056
 1438SOL    HW1 9161   2.852   1.159   0.697  0.7795  0.4732  1.2811
 1438SOL    HW2 9162   2.748   1.202   0.597  1.4309 -0.7442  0.0513
 1439SOL     OW 9163   0.850   4.986   0.465 -0.6022  0.2355  0.3869
 1439SOL    HW1 9164   0.915   5.052   0.440 -1.3040  0.5449 -0.7141
 1439SOL    HW2 9165   0.802   5.025   0.538 -1.0940  1.0327 -0.3342
 1440SOL     OW 9166   0.358   3.647   2.654  0.2644  0.3180  0.4407
 1440SOL    HW1 9167   0.446   3.617   2.679 -0.0714  0.1815  1.4920
 1440SOL    HW2 9168   0.353   3.736   2.686 -0.6151 -0.2691  2.0275
 1441SOL     OW 9169   1.082   2.529   9.681 -0.0545 -0.1791 -0.4232
 1441SOL    HW1 9170   1.152   2.590   9.699 -0.3348  0.0447 -0.0872
 1441SOL    HW2 9171   1.002   2.581   9.689 -0.4422 -1.0385  1.9896
 1442SOL     OW 9172   0.456   4.625   0.116 -0.6762  0.0942 -0.4922
 1442SOL    HW1 9173   0.365   4.651   0.129 -0.1091  1.2001  1.8752
 1442SOL    HW2 9174   0.507   4.701   0.144  0.9998 -0.4998 -1.7542
 1443SOL     OW 9175   9.485   2.401   1.421 -0.3432  0.1811  0.0467
 1443SOL    HW1 9176   9.445   2.338   1.360  1.4232  0.5981 -1.6120
 1443SOL    HW2 9177   9.455   2.486   1.390 -2.1749  0.2927  1.8865
 1444SOL     OW 9178   1.535   4.395   2.114  0.0630 -0.0189  0.1279
 1444SOL    HW1 9179   1.601   4.434   2.171 -0.8740 -0.1209  1.3190
 1444SOL    HW2 9180   1.487   4.469   2.078  1.2549  0.0952 -1.3349
 1445SOL     OW 9181   6.144   3.533   1.290  0.1683  0.8058  0.2128
 1445SOL    HW1 9182   6.147   3.446   1.250  0.2940  0.3253  1.2332
 1445SOL    HW2 9183   6.196   3.524   1.370  0.1237  1.8056  0.3624
 1446SOL     OW 9184   9.401   5.197   0.596 -0.2608  0.1413  0.1413
 1446SOL    HW1 9185   9.406   5.266   0.662 -2.6570  0.2696  0.2749
 1446SOL    HW2 9186   9.428   5.118   0.642  0.0901  0.5718  0.6851
 1447SOL     OW 9187   9.219   3.906   8.874 -0.4151 -0.4504  0.1267
 1447SOL    HW1 9188   9.243   3.947   8.957 -0.5148 -0.8795  0.3668
 1447SOL    HW2 9189   9.195   3.980   8.818 -2.4669 -0.2720  1.1493
 1448SOL     OW 9190   2.088   2.637   0.127 -0.3694  0.6872 -0.1112
 1448SOL    HW1 9191   2.077   2.604   0.216  0.4563  2.0469  0.5335
 1448SOL    HW2 9192   2.100   2.731   0.138  3.5901  0.5232 -1.2326
 1449SOL     OW 9193   0.716   8.860   0.861 -0.3997 -0.1347  0.3017
 1449SOL    HW1 9194   0.648   8.895   0.803 -0.7447 -2.1803 -0.6265
 1449SOL    HW2 9195   0.788   8.837   0.801  0.4863  0.5479  1.0846
 1450SOL     OW 9196   9.435   2.587   2.149  0.2470  0.1973 -0.1728
 1450SOL    HW1 9197   9.471   2.636   2.224 -0.1916  1.3221 -0.6769
 1450SOL    HW2 9198   9.446   2.495   2.174 -0.7635  0.5273  1.7018
 1451SOL     OW 9199   1.846   4.208   9.765 -0.3723 -0.3038  0.2419
 1451SOL    HW1 9200   1.861   4.285   9.821  1.5828  0.6676 -1.5041
 1451SOL    HW2 9201   1.755   4.218   9.736 -0.3219  1.0496  0.4798
 1452SOL     OW 9202   2.809   2.297   4.102  0.4520  0.4350  1.1160
 1452SOL    HW1 9203   2.806   2.311   4.008 -0.8545  0.5838  1.1645
 1452SOL    HW2 9204   2.752   2.365   4.139  0.1297 -0.2480  1.9240
 1453SOL     OW 9205   1.733   0.382   8.419 -0.1194 -0.5618  0.0757
 1453SOL    HW1 9206   1.677   0.388   8.496  1.2125 -0.9758  1.1129
 1453SOL    HW2 9207   1.748   0.473   8.392 -0.0400 -0.3827  0.7230
 1454SOL     OW 9208   0.132   7.951   9.732 -0.5200 -0.3932 -0.2887
 1454SOL    HW1 9209   0.093   7.923   9.649  1.3276  1.3935 -1.8597
 1454SOL    HW2 9210   0.113   8.045   9.737  0.5981 -0.1943  0.5996
 1455SOL     OW 9211   7.866   3.323   2.876  0.1351  0.0250 -0.3261
 1455SOL    HW1 9212   7.931   3.279   2.930  1.0422 -0.2375 -1.5817
 1455SOL    HW2 9213   7.807   3.365   2.938  0.5196 -1.1452  0.8702
 1456SOL     OW 9214   1.899   2.517   2.780  0.2120  0.5937  0.3087
 1456SOL    HW1 9215   1.966   2.448   2.778  0.2500  0.6050 -1.7919
 1456SOL    HW2 9216   1.825   2.479   2.733 -0.3544  1.4148  0.5276
 1457SOL     OW 9217   8.104   3.877   9.116  0.8933 -0.4768 -0.9176
 1457SOL    HW1 9218   8.084   3.794   9.073  1.4267 -0.9116 -0.3421
 1457SOL    HW2 9219   8.196   3.894   9.093  0.7135  0.0812 -1.2358
 1458SOL     OW 9220   1.308   2.237   0.671 -0.2775  0.0242 -0.2893
 1458SOL    HW1 9221   1.308   2.147   0.703 -1.7455  1.0951  3.2278
 1458SOL    HW2 9222   1.215   2.263   0.673 -0.0462  1.3046 -2.4260
 1459SOL     OW 9223   2.550   2.195   1.549 -0.1044 -0.3422  0.3745
 1459SOL    HW1 9224   2.528   2.122   1.491 -2.4351 -0.0015  0.7530
 1459SOL    HW2 9225   2.477   2.256   1.540  1.9806  2.2490 -0.3096
 1460SOL     OW 9226   1.361   3.514   0.710 -0.3488  0.0559  0.0169
 1460SOL    HW1 9227   1.412   3.435   0.730 -0.2397 -0.1706 -1.0854
 1460SOL    HW2 9228   1.276   3.481   0.683 -0.1328  0.2743 -0.9677
 1461SOL     OW 9229   1.292   2.060   1.439 -0.0277  0.2954 -0.2387
 1461SOL    HW1 9230   1.314   1.968   1.456  1.0343  0.5763 -0.0310
 1461SOL    HW2 9231   1.354   2.110   1.492  0.5696  1.1543 -1.6916
 1462SOL     OW 9232   1.430   2.814   0.635  0.0155 -0.2520  0.2725
 1462SOL    HW1 9233   1.495   2.829   0.566  1.2703  0.6854  1.5938
 1462SOL    HW2 9234   1.352   2.784   0.589  0.6902  0.7119 -1.5867
 1463SOL     OW 9235   9.757   2.725   0.019  0.5460  0.6854 -0.3889
 1463SOL    HW1 9236   9.681   2.733  -0.039  1.0301  3.4863 -0.7879
 1463SOL    HW2 9237   9.819   2.789  -0.014  2.0618  0.2714  1.4821
 1464SOL     OW 9238   0.186   1.357   1.446 -0.3583 -0.1790 -0.7973
 1464SOL    HW1 9239   0.280   1.348   1.456 -0.0818  1.7575 -1.2378
 1464SOL    HW2 9240   0.149   1.288   1.501  1.2963 -0.3349  0.1805
 1465SOL     OW 9241   9.821   2.734   0.855 -0.0540 -0.1986  0.5201
 1465SOL    HW1 9242   9.910   2.730   0.819 -0.1978  1.3264 -0.0750
 1465SOL    HW2 9243   9.824   2.808   0.916 -1.0667  0.2611  0.0270
 1466SOL     OW 9244   0.339   0.777   2.411  0.8243  0.6648  0.2950
 1466SOL    HW1 9245   0.320   0.812   2.498  1.5710 -1.1009  1.2090
 1466SOL    HW2 9246   0.382   0.849   2.366 -1.8821  2.5439  0.4061
 1467SOL     OW 9247   2.742   3.850   2.658  0.5653 -0.0874 -0.0269
 1467SOL    HW1 9248   2.724   3.905   2.734 -0.2477 -0.5289  0.1167
 1467SOL    HW2 9249   2.789   3.775   2.693  0.0642 -0.3611  0.0776
 1468SOL     OW 9250   9.525   0.913   1.515 -0.0972 -0.1842 -0.3862
 1468SOL    HW1 9251   9.605   0.923   1.566 -0.1234  0.2707 -0.4302
 1468SOL    HW2 9252   9.475   0.846   1.563  0.0379 -0.0260 -0.0188
 1469SOL     OW 9253   1.289   2.138   0.238  0.3579 -0.0316 -0.2738
 1469SOL    HW1 9254   1.228   2.076   0.199  0.0038  0.3525 -0.3296
 1469SOL    HW2 9255   1.234   2.207   0.275  0.5277 -1.2074  2.4439
 1470SOL     OW 9256   9.730   5.490   0.642  0.0997 -0.5923  0.0023
 1470SOL    HW1 9257   9.639   5.493   0.672 -0.1498 -0.9539 -0.6912
 1470SOL    HW2 9258   9.755   5.582   0.635 -1.0820 -0.3753 -2.3140
 1471SOL     OW 9259   2.962   2.701   8.303 -0.4866  0.3121 -0.3756
 1471SOL    HW1 9260   2.913   2.689   8.383  1.6565  1.5822  1.2489
 1471SOL    HW2 9261   3.033   2.637   8.308 -0.6275  0.0259 -1.5646
 1472SOL     OW 9262   1.341   4.992   1.509  0.2083  0.4518  0.1967
 1472SOL    HW1 9263   1.255   4.987   1.550 -0.5618  0.8487 -1.3489
 1472SOL    HW2 9264   1.388   5.058   1.560 -0.5290  0.5252  0.7980
 1473SOL     OW 9265   8.209   2.369   0.220  0.6454 -0.4375  0.6291
 1473SOL    HW1 9266   8.131   2.421   0.236  1.0026  0.3607 -0.1335
 1473SOL    HW2 9267   8.219   2.371   0.124  1.4211 -0.7972  0.6971
 1474SOL     OW 9268   0.306   1.459   2.050 -0.5243 -0.0465 -0.1041
 1474SOL    HW1 9269   0.321   1.495   2.137  2.0020 -0.7754 -0.1449
 1474SOL    HW2 9270   0.326   1.531   1.990  0.1536 -0.2329 -0.1081
 1475SOL     OW 9271   1.572   3.069   1.647  0.5569 -0.1985 -0.6961
 1475SOL    HW1 9272   1.632   3.140   1.623  0.0338 -0.4032 -2.7951
 1475SOL    HW2 9273   1.485   3.110   1.642  0.4332  0.0034  1.9640
 1476SOL     OW 9274   1.076   2.326   0.020  0.4897 -0.4500 -0.7660
 1476SOL    HW1 9275   1.045   2.380  -0.052  0.8053 -0.1745 -0.7007
 1476SOL    HW2 9276   1.040   2.239   0.003 -1.1222  0.0589 -0.1702
 1477SOL     OW 9277   1.794   3.499   1.978  0.0178 -0.3212  0.2559
 1477SOL    HW1 9278   1.798   3.459   1.891 -1.5547 -0.7245  0.3405
 1477SOL    HW2 9279   1.716   3.555   1.975  1.2789  1.5342  0.6583
 1478SOL     OW 9280   1.863   2.811   3.799 -0.6644 -0.1987  0.1137
 1478SOL    HW1 9281   1.854   2.746   3.868 -1.3678 -1.1305 -0.8093
 1478SOL    HW2 9282   1.774   2.832   3.774 -0.4273  0.5687 -0.1158
 1479SOL     OW 9283   0.544   2.886   2.453 -0.1509 -0.0532  0.3876
 1479SOL    HW1 9284   0.585   2.859   2.371  0.3624  2.7423 -0.4018
 1479SOL    HW2 9285   0.487   2.813   2.477  1.6802 -2.0671 -1.0137
 1480SOL     OW 9286   1.058   4.852   9.242  0.1422 -0.4596 -0.5685
 1480SOL    HW1 9287   0.991   4.911   9.208  0.4465 -0.1664 -0.6732
 1480SOL    HW2 9288   1.013   4.770   9.259 -0.7891  0.4342  1.6312
 1481SOL     OW 9289   1.896   1.912   1.786  0.0453  0.2923  0.2340
 1481SOL    HW1 9290   1.949   1.920   1.706  0.2381 -0.6710  0.2568
 1481SOL    HW2 9291   1.960   1.919   1.857 -0.2839  2.5694  0.3846
 1482SOL     OW 9292   9.026   4.941   0.289  0.0126 -0.0339 -0.2431
 1482SOL    HW1 9293   8.999   4.852   0.313 -0.0198  0.3175  1.0806
 1482SOL    HW2 9294   8.957   4.997   0.324 -0.8172  0.4526 -2.4583
 1483SOL     OW 9295   1.204   4.213   9.141 -0.1662 -0.2972  0.0874
 1483SOL    HW1 9296   1.189   4.203   9.235  2.4358  0.3594  0.6481
 1483SOL    HW2 9297   1.282   4.161   9.122 -1.8382 -2.2156 -2.2204
 1484SOL     OW 9298   0.730   1.427   0.669 -0.1300 -0.3419 -0.5481
 1484SOL    HW1 9299   0.685   1.350   0.703  0.2520 -0.1588  0.3917
 1484SOL    HW2 9300   0.661   1.493   0.662  0.1198  0.2335  1.7992
 1485SOL     OW 9301   1.451   2.518   0.095 -0.1415  0.4421 -0.3787
 1485SOL    HW1 9302   1.401   2.592   0.132  1.4163  0.1645  2.5851
 1485SOL    HW2 9303   1.394   2.442   0.107 -0.6828  0.7355 -1.0031
 1486SOL     OW 9304   1.154   2.585   1.191  0.2154 -0.4301 -0.3192
 1486SOL    HW1 9305   1.143   2.593   1.097 -2.3559 -1.2677 -0.1770
 1486SOL    HW2 9306   1.081   2.529   1.219  0.4168  0.4607  2.2661
 1487SOL     OW 9307   2.592   0.804   9.515 -0.1189  0.4112 -0.0432
 1487SOL    HW1 9308   2.525   0.789   9.448  1.1905 -0.9424 -1.1127
 1487SOL    HW2 9309   2.548   0.782   9.597 -0.0336 -4.5382 -0.9954
 1488SOL     OW 9310   0.336   5.623   3.319  0.4992 -0.0346  0.4979
 1488SOL    HW1 9311   0.275   5.550   3.308  1.7721 -1.0139 -0.4449
 1488SOL    HW2 9312   0.283   5.701   3.301 -0.4358 -0.8616 -0.5202
 1489SOL     OW 9313   1.376   1.912   4.248 -0.2668  0.3473 -0.0892
 1489SOL    HW1 9314   1.445   1.856   4.284 -0.7163  0.8326  1.5760
 1489SOL    HW2 9315   1.308   1.851   4.220 -1.3240 -0.0136  2.8866
 1490SOL     OW 9316   2.777   3.951   2.922 -0.0236 -0.4166 -0.2390
 1490SOL    HW1 9317   2.834   3.890   2.967  0.3586  0.8869  1.1046
 1490SOL    HW2 9318   2.829   4.030   2.912 -1.1820  0.4002 -0.0640
 1491SOL     OW 9319   0.595   2.900   2.786  0.0195  0.0455 -0.6569
 1491SOL    HW1 9320   0.554   2.871   2.705  2.4040 -3.1091 -0.9167
 1491SOL    HW2 9321   0.656   2.968   2.759  0.9085 -1.0856 -1.5762
 1492SOL     OW 9322   7.626   4.126   1.538 -0.2115 -0.4443 -0.2426
 1492SOL    HW1 9323   7.693   4.191   1.516 -1.5995  1.2945  0.4060
 1492SOL    HW2 9324   7.624   4.068   1.462 -0.3211  1.4932 -1.8226
 1493SOL     OW 9325   9.665   2.197   1.230 -0.3527  0.3750 -0.5484
 1493SOL    HW1 9326   9.640   2.159   1.314 -1.6850 -2.4579 -2.0636
 1493SOL    HW2 9327   9.750   2.157   1.209  0.6489  2.1112 -0.0231
 1494SOL     OW 9328   0.779   0.855   9.295 -0.4945  0.1923  0.0042
 1494SOL    HW1 9329   0.830   0.914   9.350 -2.0134  1.9605 -0.4109
 1494SOL    HW2 9330   0.779   0.772   9.343  0.5783  0.8864  1.2628
 1495SOL     OW 9331   9.496   1.834   1.207 -0.1604  0.2414 -0.6515
 1495SOL    HW1 9332   9.578   1.827   1.254 -0.6802 -1.3141  0.0791
 1495SOL    HW2 9333   9.433   1.785   1.260 -1.6444  1.6507 -1.0295
 1496SOL     OW 9334   8.253   3.202   2.827 -0.0103  0.3162 -0.6523
 1496SOL    HW1 9335   8.253   3.197   2.923 -0.4269 -1.6354 -0.7114
 1496SOL    HW2 9336   8.340   3.234   2.805  0.5313 -0.4135  0.3433
 1497SOL     OW 9337   1.435   8.946   9.171  0.1756 -0.1267 -0.2038
 1497SOL    HW1 9338   1.342   8.937   9.190 -0.0793 -0.0309 -1.3356
 1497SOL    HW2 9339   1.476   8.873   9.217 -0.0706  1.3505  2.5843
 1498SOL     OW 9340   1.450   2.841   3.443 -0.4028  0.8200  0.4815
 1498SOL    HW1 9341   1.409   2.826   3.358 -1.7708  1.1528  1.0670
 1498SOL    HW2 9342   1.496   2.758   3.462 -0.8680  0.4087 -0.1491
 1499SOL     OW 9343   1.344   1.536   0.309  0.6846  0.2490  0.4575
 1499SOL    HW1 9344   1.313   1.626   0.319  0.5799  0.1450  1.1543
 1499SOL    HW2 9345   1.361   1.526   0.216 -2.3013  0.0310 -0.1701
 1500SOL     OW 9346   1.981   4.582   0.384  0.4562 -0.4943  0.3852
 1500SOL    HW1 9347   1.932   4.556   0.306  0.0822 -1.6393  0.9894
 1500SOL    HW2 9348   2.072   4.584   0.354  0.1221  1.5677 -0.7163
 1501SOL     OW 9349   1.222   3.874   2.427 -0.0071  0.0165 -0.1983
 1501SOL    HW1 9350   1.221   3.782   2.403 -1.1457 -0.2396  0.7643
 1501SOL    HW2 9351   1.243   3.874   2.521  3.3216  0.9311 -0.7818
 1502SOL     OW 9352   9.012   2.944   0.460  0.0590 -0.0850 -0.4186
 1502SOL    HW1 9353   9.081   3.007   0.438  0.2152  0.0155  0.3232
 1502SOL    HW2 9354   9.008   2.886   0.385  0.4665  0.3335 -0.7742
 1503SOL     OW 9355   1.815   2.128   0.319 -0.2254  0.5793 -0.6349
 1503SOL    HW1 9356   1.890   2.137   0.261  0.8519  1.6993  0.8395
 1503SOL    HW2 9357   1.809   2.212   0.364 -1.3125 -0.0743  0.5067
 1504SOL     OW 9358   1.005   2.272   9.186 -0.6986 -0.1933 -0.1199
 1504SOL    HW1 9359   1.001   2.183   9.221 -0.0708 -0.6643 -1.1932
 1504SOL    HW2 9360   0.925   2.281   9.135 -0.3395 -0.4835 -0.7519
 1505SOL     OW 9361   1.938   3.547   2.415 -0.4325 -0.8728 -0.6017
 1505SOL    HW1 9362   1.894   3.516   2.336 -2.8604  0.1165  0.2807
 1505SOL    HW2 9363   1.867   3.565   2.477  1.3847 -2.1558  2.0407
 1506SOL     OW 9364   1.135   0.491   1.600 -0.1709  0.0283  0.1157
 1506SOL    HW1 9365   1.081   0.552   1.550  2.4324  0.8313 -1.9438
 1506SOL    HW2 9366   1.213   0.541   1.623  0.1414 -1.3036  2.2847
 1507SOL     OW 9367   0.879   9.226   0.877 -0.4809  1.3804 -0.4264
 1507SOL    HW1 9368   0.887   9.189   0.966  0.9769 -1.1707 -1.5051
 1507SOL    HW2 9369   0.790   9.261   0.874 -0.0791  2.9880  2.5056
 1508SOL     OW 9370   9.676   3.543   9.618  0.3358  0.0558 -0.3402
 1508SOL    HW1 9371   9.653   3.459   9.657  2.7064 -0.2638  0.5432
 1508SOL    HW2 9372   9.771   3.551   9.633  0.5874  1.8401 -2.4236
 1509SOL     OW 9373   0.173   4.539   1.433  0.3999  0.1591  0.4644
 1509SOL    HW1 9374   0.141   4.492   1.356 -2.3544  2.4831  0.0439
 1509SOL    HW2 9375   0.159   4.478   1.506  0.5170 -1.0627 -0.4985
 1510SOL     OW 9376   0.368   4.036   1.883  1.0012  0.4538 -0.4120
 1510SOL    HW1 9377   0.309   4.089   1.829 -1.3765 -0.2319  1.3156
 1510SOL    HW2 9378   0.382   3.956   1.832  1.0673  0.9384 -1.1699
 1511SOL     OW 9379   7.584   3.741   1.537 -0.3572  0.0453  0.3660
 1511SOL    HW1 9380   7.647   3.690   1.589 -1.8205 -1.8656  0.3776
 1511SOL    HW2 9381   7.619   3.738   1.448  0.2207  0.1046  0.5856
 1512SOL     OW 9382   0.693   3.830   1.716  0.0471 -0.3810 -0.0161
 1512SOL    HW1 9383   0.703   3.890   1.790  0.7732 -2.2067  1.4496
 1512SOL    HW2 9384   0.782   3.804   1.694 -0.2661 -0.9943 -0.5782
 1513SOL     OW 9385   7.648   1.626   3.356 -0.0527  0.0490 -0.1436
 1513SOL    HW1 9386   7.735   1.665   3.353 -0.0672  0.0562 -0.6455
 1513SOL    HW2 9387   7.627   1.620   3.449  0.3696  0.3005 -0.0299
 1514SOL     OW 9388   3.049   1.097   9.746 -0.1010  0.2192  0.2803
 1514SOL    HW1 9389   3.142   1.118   9.746  0.2885 -1.4053  1.1078
 1514SOL    HW2 9390   3.044   1.006   9.773 -1.8297 -0.2669 -1.4025
 1515SOL     OW 9391   2.365   4.929   0.942  0.3711  0.8504  0.0799
 1515SOL    HW1 9392   2.338   4.837   0.936 -1.4591  1.3550 -0.0517
 1515SOL    HW2 9393   2.448   4.927   0.990 -0.8715 -0.6773  2.2890
 1516SOL     OW 9394   9.234   3.572   1.095 -0.3192  0.1243  0.3447
 1516SOL    HW1 9395   9.233   3.489   1.049  1.5850  1.3128 -2.0483
 1516SOL    HW2 9396   9.326   3.597   1.099 -0.6635  1.3038  2.6344
 1517SOL     OW 9397   1.994   4.229   0.635 -0.4062  0.1025  0.5187
 1517SOL    HW1 9398   2.007   4.289   0.562  1.1562  0.6129  1.1961
 1517SOL    HW2 9399   1.899   4.220   0.641 -0.6830  2.2346  0.1854
 1518SOL     OW 9400   1.390   2.812   9.187  0.7689  0.3398 -0.2881
 1518SOL    HW1 9401   1.358   2.826   9.276  0.4102 -2.3739  0.1007
 1518SOL    HW2 9402   1.399   2.900   9.151  2.4379  1.6630  2.9192
 1519SOL     OW 9403   0.492   4.094   0.884  0.2739 -0.3356  0.1139
 1519SOL    HW1 9404   0.443   4.022   0.926  0.3434 -0.8189 -0.6192
 1519SOL    HW2 9405   0.572   4.052   0.852 -0.1952 -0.1821 -1.3189
 1520SOL     OW 9406   5.889   3.299   0.652  0.7216 -0.3424 -0.3156
 1520SOL    HW1 9407   5.970   3.314   0.604  0.0579 -0.3531 -1.4572
 1520SOL    HW2 9408   5.823   3.279   0.585 -0.2716 -0.1682  0.5681
 1521SOL     OW 9409   0.059   3.074   0.851 -0.0664  0.0363  0.5760
 1521SOL    HW1 9410   0.111   3.010   0.802  1.1878  1.5978 -0.2331
 1521SOL    HW2 9411   0.117   3.104   0.921  1.1767  3.4759 -1.6660
 1522SOL     OW 9412   1.675   3.077   0.620  0.6402  0.4471  0.6582
 1522SOL    HW1 9413   1.607   3.103   0.682  0.4424  1.1939  0.1466
 1522SOL    HW2 9414   1.708   3.160   0.585  0.4628  0.0343 -0.5261
 1523SOL     OW 9415   0.206   3.166   0.002  0.3626 -0.2821  0.1674
 1523SOL    HW1 9416   0.146   3.239   0.015  0.6839 -0.0939  0.6116
 1523SOL    HW2 9417   0.267   3.196  -0.065 -0.3180 -0.6488 -0.6259
 1524SOL     OW 9418   1.406   3.833   1.274  0.4921  0.4981 -1.0692
 1524SOL    HW1 9419   1.451   3.910   1.240  1.7991 -0.4302 -1.5558
 1524SOL    HW2 9420   1.470   3.790   1.331 -0.6927  0.4914  0.3097
 1525SOL     OW 9421   0.535   1.981   0.274 -0.5766  0.5134 -0.4895
 1525SOL    HW1 9422   0.500   1.981   0.185  0.7550  0.0693 -1.0406
 1525SOL    HW2 9423   0.465   1.944   0.328 -0.5442 -1.4784 -1.7321
 1526SOL     OW 9424   1.190   2.823   2.112 -0.2045  0.1976 -0.1215
 1526SOL    HW1 9425   1.156   2.766   2.043  0.5195  1.3456 -1.4663
 1526SOL    HW2 9426   1.254   2.769   2.158 -0.2770 -0.4039 -0.7148
 1527SOL     OW 9427   2.172   3.237   0.041 -0.0765  0.1943 -0.3391
 1527SOL    HW1 9428   2.228   3.186  -0.017 -2.6067 -2.5445 -0.5947
 1527SOL    HW2 9429   2.098   3.263  -0.014 -0.6846  0.8234  0.7474
 1528SOL     OW 9430   0.797   2.871   0.705 -0.5606  0.4886  0.0065
 1528SOL    HW1 9431   0.747   2.791   0.687 -0.3080  0.1661  0.6998
 1528SOL    HW2 9432   0.775   2.893   0.796  0.8819  0.0868  0.4901
 1529SOL     OW 9433   1.482   2.115   2.607  0.3730 -0.6078 -0.7659
 1529SOL    HW1 9434   1.446   2.043   2.658 -1.7902  0.2468 -0.9617
 1529SOL    HW2 9435   1.524   2.172   2.671 -0.7723 -0.4340 -0.1385
 1530SOL     OW 9436   0.184   2.080   9.563  0.4751 -0.0022 -0.1385
 1530SOL    HW1 9437   0.197   1.987   9.581  1.2140  0.3037  1.0373
 1530SOL    HW2 9438   0.111   2.106   9.620 -0.8529 -0.1820 -1.6606
 1531SOL     OW 9439   2.233   2.782   1.178  0.3003 -0.0108  0.4407
 1531SOL    HW1 9440   2.223   2.688   1.193  0.5554 -0.1777 -0.3995
 1531SOL    HW2 9441   2.153   2.820   1.212  1.4038 -0.1851  3.5908
 1532SOL     OW 9442   1.688   1.622   9.753 -0.2126 -0.0502 -0.1794
 1532SOL    HW1 9443   1.677   1.602   9.846  0.1854 -3.5331 -0.7201
 1532SOL    HW2 9444   1.599   1.615   9.716 -0.0189 -1.4729 -0.4357
 1533SOL     OW 9445   1.772   2.368   0.438  0.4294 -0.0069 -0.5236
 1533SOL    HW1 9446   1.731   2.436   0.492 -0.1130  0.1962 -1.1883
 1533SOL    HW2 9447   1.857   2.406   0.413  1.0215 -0.4034  0.7933
 1534SOL     OW 9448   0.266   2.177   1.090  0.2516 -0.3206  0.6552
 1534SOL    HW1 9449   0.314   2.193   1.171  0.4163 -1.2036  0.7375
 1534SOL    HW2 9450   0.254   2.265   1.052  1.7112 -0.0377  0.7586
 1535SOL     OW 9451   0.668   2.808   0.385  0.2212 -0.7324  0.1252
 1535SOL    HW1 9452   0.682   2.729   0.437  0.3077 -2.1512 -1.9487
 1535SOL    HW2 9453   0.751   2.821   0.338  0.6817  1.3901  1.3692
 1536SOL     OW 9454   9.165   4.079   2.491 -0.1880 -0.0887 -0.0879
 1536SOL    HW1 9455   9.236   4.106   2.433 -0.1113 -0.7835 -0.3135
 1536SOL    HW2 9456   9.153   4.154   2.550  2.0735 -0.6642  1.2409
 1537SOL     OW 9457   0.385   4.298   0.240  0.4555 -0.0704  0.8402
 1537SOL    HW1 9458   0.470   4.271   0.274  1.2435  0.3377 -0.6835
 1537SOL    HW2 9459   0.339   4.217   0.219  1.2662 -0.3035 -0.1193
 1538SOL     OW 9460   9.074   5.217   2.015  0.1777  0.5360  0.0503
 1538SOL    HW1 9461   9.104   5.219   1.924  0.0642  0.1565 -0.0012
 1538SOL    HW2 9462   9.105   5.299   2.053 -0.7974  1.2538 -0.6588
 1539SOL     OW 9463   8.861   4.538   1.976  0.6060 -0.1196 -0.4548
 1539SOL    HW1 9464   8.777   4.496   1.994  1.2810 -0.3514  2.7146
 1539SOL    HW2 9465   8.926   4.470   1.995  1.5683  0.6244 -1.0074
 1540SOL     OW 9466   9.279   1.518   2.030 -0.2581  0.1928 -0.2189
 1540SOL    HW1 9467   9.333   1.572   2.088  0.3285 -1.4918  0.9141
 1540SOL    HW2 9468   9.225   1.465   2.090 -1.0550 -0.2273 -1.2692
 1541SOL     OW 9469   9.263   2.067   0.829  0.5792  0.0388 -0.2717
 1541SOL    HW1 9470   9.300   2.032   0.748  0.2603  0.2713 -0.5190
 1541SOL    HW2 9471   9.338   2.074   0.888  0.7217 -0.6634 -0.3513
 1542SOL     OW 9472   9.265   3.021   0.696 -0.5799 -0.5422  0.1993
 1542SOL    HW1 9473   9.231   3.044   0.609  2.7054  2.0868 -0.6246
 1542SOL    HW2 9474   9.275   3.105   0.741  1.5048 -1.4181  1.5400
 1543SOL     OW 9475   0.628   1.986   1.811  0.0837  0.0816  0.4297
 1543SOL    HW1 9476   0.635   1.943   1.896  1.0440  0.5975  0.6212
 1543SOL    HW2 9477   0.648   2.078   1.828 -0.2998  0.3012 -0.2539
 1544SOL     OW 9478   0.804   3.703   9.597 -0.3633 -0.2276 -0.4016
 1544SOL    HW1 9479   0.803   3.758   9.675 -0.5836 -2.9071  1.6313
 1544SOL    HW2 9480   0.727   3.731   9.547 -2.4424 -0.8159  2.2214
 1545SOL     OW 9481   0.213   1.527   1.733 -0.1680  0.2934 -0.1125
 1545SOL    HW1 9482   0.289   1.471   1.714 -0.8141 -0.6429 -0.0340
 1545SOL    HW2 9483   0.243   1.616   1.715  0.7094 -0.1341 -0.8364
 1546SOL     OW 9484   1.216   3.210   9.826 -0.3393 -0.0488  0.0341
 1546SOL    HW1 9485   1.173   3.150   9.765  0.0428 -1.9657  1.5819
 1546SOL    HW2 9486   1.309   3.191   9.818 -0.1185  0.9840 -0.0814
 1547SOL     OW 9487   8.586   4.750   3.375  0.1656  0.1718 -0.1442
 1547SOL    HW1 9488   8.575   4.661   3.411  0.1737  0.3451  0.2954
 1547SOL    HW2 9489   8.646   4.793   3.436  1.1262  0.1103 -1.0071
 1548SOL     OW 9490   9.163   4.031   1.359 -0.3477  0.4872 -0.1821
 1548SOL    HW1 9491   9.207   4.099   1.308 -1.7940  0.5388 -1.4351
 1548SOL    HW2 9492   9.115   4.079   1.426  1.8001  0.4027  1.5421
 1549SOL     OW 9493   2.316   2.414   2.061 -0.0018  0.3747  0.0177
 1549SOL    HW1 9494   2.391   2.412   2.120 -0.7362 -0.5450  0.9407
 1549SOL    HW2 9495   2.348   2.372   1.981  0.5611  0.2793  0.2872
 1550SOL     OW 9496   3.020   3.089   3.679 -0.4571  0.1522 -0.2203
 1550SOL    HW1 9497   2.926   3.097   3.663 -0.5805  1.3489  0.9421
 1550SOL    HW2 9498   3.054   3.177   3.668  0.4607 -0.1959 -0.2137
 1551SOL     OW 9499   9.857   3.410   0.736 -0.6451 -0.0830  0.0782
 1551SOL    HW1 9500   9.903   3.350   0.794  1.3178  1.1254 -0.1192
 1551SOL    HW2 9501   9.874   3.378   0.648  0.1041  0.5202 -0.0097
 1552SOL     OW 9502   2.497   1.480   0.998  0.0544  0.0166 -0.0513
 1552SOL    HW1 9503   2.538   1.430   0.927  1.8106  1.8696 -0.4645
 1552SOL    HW2 9504   2.519   1.431   1.078  1.5966 -0.0195 -0.4546
 1553SOL     OW 9505   3.193   3.985   3.644  0.2088 -0.1869  0.5476
 1553SOL    HW1 9506   3.219   3.988   3.552 -1.3403  1.2648  0.1130
 1553SOL    HW2 9507   3.112   4.035   3.648 -1.2313 -2.4193  2.2542
 1554SOL     OW 9508   4.638   1.692   4.456 -0.0955  0.2897  0.3612
 1554SOL    HW1 9509   4.696   1.682   4.381 -0.2610  1.4671  0.0643
 1554SOL    HW2 9510   4.555   1.720   4.419 -1.0714 -1.9538  0.7216
 1555SOL     OW 9511   1.754   1.240   3.862 -0.6982  0.4214 -0.0054
 1555SOL    HW1 9512   1.783   1.332   3.860  0.4965  0.0854  0.7438
 1555SOL    HW2 9513   1.659   1.245   3.865 -0.6822  1.6233 -0.5795
 1556SOL     OW 9514   2.455   2.337   9.051  0.0357  0.2403  0.2293
 1556SOL    HW1 9515   2.368   2.342   9.013 -0.0870 -0.3939  0.4173
 1556SOL    HW2 9516   2.504   2.280   8.992  1.0827  2.5315 -1.2743
 1557SOL     OW 9517   8.731   3.276   7.798  0.2036  0.5505 -0.2352
 1557SOL    HW1 9518   8.747   3.222   7.875 -0.7087  0.4677 -0.0921
 1557SOL    HW2 9519   8.791   3.350   7.808  0.6215  0.1615  0.1696
 1558SOL     OW 9520   1.256   0.838   8.869 -0.0150  0.2767  0.3084
 1558SOL    HW1 9521   1.205   0.878   8.939 -0.5854  1.6528 -0.8558
 1558SOL    HW2 9522   1.347   0.844   8.900 -0.1883  1.5183  0.6355
 1559SOL     OW 9523   9.590   3.476   2.173 -0.4151 -0.4062  0.0401
 1559SOL    HW1 9524   9.571   3.451   2.263 -1.3707 -0.3665 -0.1392
 1559SOL    HW2 9525   9.610   3.393   2.129 -1.5377 -0.6322 -0.0729
 1560SOL     OW 9526   0.341   4.361   9.806  0.2132  0.6248 -0.3668
 1560SOL    HW1 9527   0.383   4.348   9.891 -3.6635  0.2554  1.7531
 1560SOL    HW2 9528   0.339   4.456   9.794  0.8137  0.6747 -0.0610
 1561SOL     OW 9529   1.375   1.950   1.922 -0.5039  0.1217 -0.1443
 1561SOL    HW1 9530   1.439   2.005   1.878  0.5539 -0.9245  0.0518
 1561SOL    HW2 9531   1.340   2.006   1.992  0.0050  0.7835 -0.4055
 1562SOL     OW 9532   0.856   2.546   0.756 -0.3340  0.0116 -0.3354
 1562SOL    HW1 9533   0.784   2.560   0.695 -0.8986  0.9823  0.5094
 1562SOL    HW2 9534   0.813   2.531   0.840  0.3776 -2.5261 -0.3502
 1563SOL     OW 9535   8.940   2.132   1.386 -0.0797  0.0936  0.2823
 1563SOL    HW1 9536   8.844   2.130   1.379  0.0388 -0.5119 -2.0542
 1563SOL    HW2 9537   8.959   2.209   1.438 -1.8826 -0.6601  2.1758
 1564SOL     OW 9538   1.788   5.124   8.161 -0.2956  0.4294 -0.0353
 1564SOL    HW1 9539   1.694   5.131   8.175 -0.5577 -0.0233 -1.3889
 1564SOL    HW2 9540   1.815   5.047   8.211 -0.8962 -0.2211 -0.6930
 1565SOL     OW 9541   9.072   1.579   1.456  0.3038  0.2174 -0.3833
 1565SOL    HW1 9542   9.083   1.504   1.515 -0.6177 -0.5843 -1.2010
 1565SOL    HW2 9543   9.005   1.633   1.498 -1.0965 -0.8620 -1.1388
 1566SOL     OW 9544   0.251   3.834   0.617 -0.0689  0.6210  1.0179
 1566SOL    HW1 9545   0.185   3.765   0.626 -0.2746  0.8004  0.9004
 1566SOL    HW2 9546   0.265   3.865   0.706 -0.3099  0.7335  1.0185
 1567SOL     OW 9547   2.210   9.243   1.078 -0.6893 -0.4886  0.5910
 1567SOL    HW1 9548   2.299   9.232   1.112 -0.5945 -1.1435  0.1472
 1567SOL    HW2 9549   2.217   9.317   1.018 -1.0902  1.4331  2.7643
 1568SOL     OW 9550   9.514   3.393   2.440 -0.7580 -0.3576 -0.7198
 1568SOL    HW1 9551   9.450   3.457   2.473  0.3529 -0.8131  2.6837
 1568SOL    HW2 9552   9.487   3.310   2.478  1.3307 -0.7048  0.1383
 1569SOL     OW 9553   9.715   2.816   1.394  0.3153 -0.3768  0.6856
 1569SOL    HW1 9554   9.740   2.731   1.430  0.5623 -1.3889 -1.7021
 1569SOL    HW2 9555   9.771   2.828   1.318 -0.0216  1.7616  0.7024
 1570SOL     OW 9556   9.275   3.351   4.180  0.2121 -0.1127  0.4598
 1570SOL    HW1 9557   9.329   3.284   4.138  0.4649 -0.1446  0.8221
 1570SOL    HW2 9558   9.194   3.305   4.202  0.2846 -0.2363  0.4764
 1571SOL     OW 9559   9.752   9.221   9.085  0.1488  0.1105 -0.0970
 1571SOL    HW1 9560   9.712   9.301   9.119  1.8147  0.9334  0.0191
 1571SOL    HW2 9561   9.756   9.162   9.160  1.9066  1.1575  0.7065
 1572SOL     OW 9562   1.850   1.643   0.751 -0.6009  0.8877 -0.0508
 1572SOL    HW1 9563   1.838   1.593   0.832  0.0524  1.1256  0.2008
 1572SOL    HW2 9564   1.818   1.731   0.772 -1.9084  0.5631 -0.5442
 1573SOL     OW 9565   0.043   0.634   1.542 -0.0526  0.0895  0.5347
 1573SOL    HW1 9566   0.130   0.595   1.541  0.1224  0.4749  0.3678
 1573SOL    HW2 9567  -0.013   0.567   1.580  0.2221 -0.3614  0.1628
 1574SOL     OW 9568   9.014   4.523   9.289  0.0860  0.5584 -0.1804
 1574SOL    HW1 9569   8.963   4.453   9.249 -1.3392  1.4194  0.0671
 1574SOL    HW2 9570   8.969   4.603   9.263  0.0551  1.2326  1.7848
 1575SOL     OW 9571   0.204   6.124   9.722 -0.3276  0.0820  0.7051
 1575SOL    HW1 9572   0.283   6.079   9.753  0.4678  0.9177 -0.0553
 1575SOL    HW2 9573   0.150   6.055   9.685  0.1395 -0.4775  1.0456
 1576SOL     OW 9574   9.337   3.701   2.030 -0.0682  0.0530 -0.3075
 1576SOL    HW1 9575   9.322   3.793   2.051 -1.6990 -0.7436  2.5407
 1576SOL    HW2 9576   9.400   3.670   2.096  0.0209 -1.0172 -0.8585
 1577SOL     OW 9577   0.840   3.713   3.407 -0.3351 -0.6705  0.2217
 1577SOL    HW1 9578   0.777   3.653   3.448 -0.6327 -2.3359 -2.4764
 1577SOL    HW2 9579   0.912   3.657   3.381 -1.3960 -0.3655 -4.0147
 1578SOL     OW 9580   0.495   2.208   2.911  0.2537 -0.3593  0.4051
 1578SOL    HW1 9581   0.560   2.224   2.979 -0.7439  0.3468  1.2235
 1578SOL    HW2 9582   0.433   2.147   2.951  0.1714 -0.6810 -0.2057
 1579SOL     OW 9583   9.143   4.785   4.836 -0.2170 -0.3385  0.1403
 1579SOL    HW1 9584   9.115   4.847   4.768 -1.0542 -1.0860 -0.2116
 1579SOL    HW2 9585   9.160   4.840   4.913 -1.8006  0.2641  0.0971
 1580SOL     OW 9586   2.591   4.429   5.382  0.3243  0.0106 -0.5229
 1580SOL    HW1 9587   2.525   4.385   5.329  1.3998  1.2250 -3.0280
 1580SOL    HW2 9588   2.551   4.512   5.407  0.9361  0.9039 -2.3421
 1581SOL     OW 9589   2.744   3.752   2.158  0.0168  0.3744 -0.1367
 1581SOL    HW1 9590   2.794   3.787   2.232 -0.5176  1.5957 -0.3210
 1581SOL    HW2 9591   2.810   3.733   2.091  0.4166  0.1197  0.3273
 1582SOL     OW 9592   1.345   2.511   4.473  0.0860  0.0375  0.6700
 1582SOL    HW1 9593   1.293   2.446   4.426  0.9852 -0.0715 -0.2126
 1582SOL    HW2 9594   1.297   2.526   4.555 -2.7551  1.8285 -1.1315
 1583SOL     OW 9595   0.456   2.053   2.167  0.5458  0.0581 -0.3636
 1583SOL    HW1 9596   0.532   2.000   2.145  0.2396  0.4964 -2.8100
 1583SOL    HW2 9597   0.382   1.992   2.166  0.3280  0.2786 -2.2442
 1584SOL     OW 9598   9.424   3.078   2.759  0.0342 -0.4498  0.0115
 1584SOL    HW1 9599   9.474   3.158   2.773  0.2798 -0.4185 -0.9908
 1584SOL    HW2 9600   9.358   3.079   2.828  1.7715 -0.8111  1.7539
 1585SOL     OW 9601   9.764   0.201   1.005  0.0264 -0.4051 -0.2181
 1585SOL    HW1 9602   9.679   0.218   1.047  0.3579 -2.2901  1.3224
 1585SOL    HW2 9603   9.817   0.277   1.029 -1.0036  0.4956 -0.6771
 1586SOL     OW 9604   9.279   4.175   2.872  0.0960  0.0348  0.1851
 1586SOL    HW1 9605   9.197   4.143   2.911  0.7404 -0.4224  1.2162
 1586SOL    HW2 9606   9.251   4.235   2.802 -1.1333 -2.0134 -1.1653
 1587SOL     OW 9607   9.228   2.840   2.857  0.4920 -0.6492  0.4719
 1587SOL    HW1 9608   9.231   2.935   2.871  0.1803 -0.0863 -2.5769
 1587SOL    HW2 9609   9.151   2.811   2.906 -0.2039  0.9233  0.3623
 1588SOL     OW 9610   0.090   2.279   4.075 -0.2487  0.1324  0.6105
 1588SOL    HW1 9611   0.109   2.187   4.096 -1.7847 -0.5501 -0.8099
 1588SOL    HW2 9612   0.143   2.297   3.998  1.5472  1.1104  1.9705
 1589SOL     OW 9613   9.345   2.192   1.326 -0.5053 -0.4384 -0.1999
 1589SOL    HW1 9614   9.362   2.129   1.255  0.5758  2.0286 -2.2832
 1589SOL    HW2 9615   9.255   2.222   1.309  0.3922  1.5501 -1.8118
 1590SOL     OW 9616   1.289   1.469   4.172 -0.3402 -0.4531 -0.0619
 1590SOL    HW1 9617   1.349   1.394   4.179 -0.0708 -0.1125  2.3767
 1590SOL    HW2 9618   1.299   1.500   4.083  0.6391 -2.4348 -0.7029
 1591SOL     OW 9619   0.629   5.066   3.144 -0.1952 -0.5660  0.0785
 1591SOL    HW1 9620   0.534   5.065   3.138 -0.0865 -0.2538 -2.7685
 1591SOL    HW2 9621   0.651   4.981   3.181 -1.5228 -1.6872 -1.5601
 1592SOL     OW 9622   0.018   3.037   2.244 -0.6330  0.1375 -0.4592
 1592SOL    HW1 9623   0.020   2.944   2.219 -0.0176  0.3277 -1.1191
 1592SOL    HW2 9624  -0.051   3.041   2.311  0.5447 -1.1352  0.9265
 1593SOL     OW 9625   9.691   2.787   1.665 -0.5177  0.2353 -0.7444
 1593SOL    HW1 9626   9.677   2.804   1.572 -0.2952 -1.7465 -1.1896
 1593SOL    HW2 9627   9.752   2.714   1.667 -2.8108 -1.8220  0.8477
 1594SOL     OW 9628   0.627   2.285   1.405 -0.1625 -0.9113  0.5944
 1594SOL    HW1 9629   0.622   2.230   1.327  0.0084 -0.1810  0.0521
 1594SOL    HW2 9630   0.721   2.294   1.422 -0.0755  0.7374 -0.4664
 1595SOL     OW 9631   0.659   3.574   3.555  0.1850  0.0783 -0.0255
 1595SOL    HW1 9632   0.586   3.574   3.618 -1.1138 -0.6632 -1.4526
 1595SOL    HW2 9633   0.733   3.538   3.603 -0.9233 -0.9820  0.9344
 1596SOL     OW 9634   9.413   3.016   4.095 -0.3011 -0.1811 -0.3118
 1596SOL    HW1 9635   9.412   2.956   4.020 -0.3451  2.3374 -2.4618
 1596SOL    HW2 9636   9.492   3.068   4.082 -1.1925  1.4246  0.4708
 1597SOL     OW 9637   3.972   5.430   3.937 -0.2154  0.0022 -0.2931
 1597SOL    HW1 9638   3.979   5.484   3.858 -0.8233 -0.8963 -0.9766
 1597SOL    HW2 9639   3.913   5.478   3.995 -1.6235 -0.4334 -1.3373
 1598SOL     OW 9640   0.290   1.920   1.405 -0.5599 -0.5817 -0.5667
 1598SOL    HW1 9641   0.342   1.996   1.431  0.3078 -1.6949  1.1336
 1598SOL    HW2 9642   0.326   1.895   1.319  1.1469 -0.7967  0.1647
 1599SOL     OW 9643   0.308   3.892   2.474  0.5775 -0.4277  0.2670
 1599SOL    HW1 9644   0.385   3.936   2.511 -0.7688  1.0912  1.3846
 1599SOL    HW2 9645   0.253   3.873   2.549 -0.2058 -1.4242 -0.5310
 1600SOL     OW 9646   0.658   2.972   4.838  0.3403 -0.3145 -0.3006
 1600SOL    HW1 9647   0.741   3.006   4.872  0.3869 -0.5185 -0.2097
 1600SOL    HW2 9648   0.620   3.045   4.789  1.2730 -0.6406 -1.5812
 1601SOL     OW 9649   0.594   1.709   5.099  0.2819 -0.0071 -0.0062
 1601SOL    HW1 9650   0.607   1.796   5.135  0.0090  0.1852 -0.3609
 1601SOL    HW2 9651   0.505   1.685   5.124 -0.2982  0.5706 -1.4340
 1602SOL     OW 9652   3.168   2.292   3.601  0.4949 -0.4093 -0.6116
 1602SOL    HW1 9653   3.093   2.284   3.660  0.0704  1.9968 -0.7202
 1602SOL    HW2 9654   3.130   2.289   3.513  0.4545  0.9592 -0.6669
 1603SOL     OW 9655   8.048   3.271   2.072 -0.4690 -0.2428  0.4963
 1603SOL    HW1 9656   8.090   3.322   2.003 -2.0063  1.1217  0.5272
 1603SOL    HW2 9657   8.119   3.252   2.134  0.2041  1.6718  0.3662
 1604SOL     OW 9658   0.646   4.156   3.513  0.5545  0.0892 -0.3910
 1604SOL    HW1 9659   0.585   4.088   3.543  0.7951  0.2696  0.5349
 1604SOL    HW2 9660   0.731   4.112   3.511  0.6811  0.3166  0.0324
 1605SOL     OW 9661   0.675   3.373   3.813 -0.3454 -0.3485 -0.1557
 1605SOL    HW1 9662   0.707   3.309   3.877 -2.2181 -0.2313  0.9738
 1605SOL    HW2 9663   0.596   3.409   3.853  0.3071  2.2617 -1.0326
 1606SOL     OW 9664   1.944   2.102   4.309 -0.3198 -0.0692  0.0228
 1606SOL    HW1 9665   1.954   2.007   4.317  1.2575  0.1613  1.0766
 1606SOL    HW2 9666   1.882   2.126   4.378 -1.9386 -0.4785 -1.2199
 1607SOL     OW 9667   2.638   3.593   4.639  0.3341 -0.0633 -0.3508
 1607SOL    HW1 9668   2.569   3.625   4.698  0.8848 -0.5862  0.6018
 1607SOL    HW2 9669   2.602   3.514   4.600  0.6567 -0.7579  0.7193
 1608SOL     OW 9670   1.377   3.137   1.942 -0.0404 -0.3150  0.0812
 1608SOL    HW1 9671   1.451   3.087   1.908  2.0637  1.5038  1.7372
 1608SOL    HW2 9672   1.306   3.072   1.946  0.9282 -1.7831 -2.9081
 1609SOL     OW 9673   1.669   9.691   0.884 -0.2397  0.2731  0.2673
 1609SOL    HW1 9674   1.647   9.784   0.887 -0.3619  0.2309  1.3612
 1609SOL    HW2 9675   1.692   9.674   0.793 -0.6463  1.2729 -0.0381
 1610SOL     OW 9676   1.144   2.195   4.550 -0.8028 -0.2268  0.1970
 1610SOL    HW1 9677   1.057   2.192   4.589 -0.5681  1.4372  0.9183
 1610SOL    HW2 9678   1.155   2.285   4.521 -0.0604 -0.8616 -1.6829
 1611SOL     OW 9679   3.455   4.913   2.939 -0.0798 -0.0338  0.0599
 1611SOL    HW1 9680   3.383   4.963   2.977  1.1159  2.9030 -1.2570
 1611SOL    HW2 9681   3.425   4.890   2.851  0.2715  0.5082 -0.2060
 1612SOL     OW 9682   0.854   2.200   4.287  0.0890 -0.0530  0.4553
 1612SOL    HW1 9683   0.837   2.175   4.378  1.1048 -0.2094  0.6227
 1612SOL    HW2 9684   0.882   2.292   4.292 -2.8226  0.9744 -0.0674
 1613SOL     OW 9685   2.074   3.526   3.938 -0.0396 -0.0162  0.1295
 1613SOL    HW1 9686   1.997   3.561   3.893 -0.3819 -1.1385 -0.1948
 1613SOL    HW2 9687   2.148   3.568   3.894 -0.4333  0.2586 -0.2791
 1614SOL     OW 9688   8.499   2.197   2.721  0.1642  0.2832 -0.0045
 1614SOL    HW1 9689   8.404   2.210   2.716 -0.4510 -3.4052 -0.5856
 1614SOL    HW2 9690   8.512   2.150   2.803  1.9295  2.8160  1.3081
 1615SOL     OW 9691   9.531   1.453   2.856 -0.3999  0.1713 -0.3392
 1615SOL    HW1 9692   9.483   1.445   2.939 -0.6105  0.6719 -0.4053
 1615SOL    HW2 9693   9.581   1.372   2.849  1.9035  1.3143  1.7236
 1616SOL     OW 9694   7.233   5.401   4.595  0.4478  0.1055 -0.2223
 1616SOL    HW1 9695   7.313   5.444   4.565  0.0931  0.7281 -0.2893
 1616SOL    HW2 9696   7.233   5.316   4.550  0.6297  0.4565 -0.8961
 1617SOL     OW 9697   0.781   1.063   1.269  0.5677  0.4341 -0.2084
 1617SOL    HW1 9698   0.721   1.059   1.343 -0.3427  0.1368 -0.9467
 1617SOL    HW2 9699   0.727   1.041   1.193  1.2979  1.5403 -1.0766
 1618SOL     OW 9700   1.194   1.937   4.461 -0.2467  0.0449  0.0215
 1618SOL    HW1 9701   1.271   1.940   4.404 -0.8405  0.9367 -0.7793
 1618SOL    HW2 9702   1.159   2.026   4.458 -1.6151 -0.4758 -0.0767
 1619SOL     OW 9703   9.162   3.750   2.314 -0.4695  0.3666 -0.1148
 1619SOL    HW1 9704   9.201   3.667   2.287 -0.6621 -0.6302  2.3322
 1619SOL    HW2 9705   9.218   3.781   2.385 -0.6060  2.1765 -0.7584
 1620SOL     OW 9706   0.546   1.280   3.367 -0.0874 -0.4463 -0.6444
 1620SOL    HW1 9707   0.466   1.269   3.419 -1.4538 -0.7044 -2.6706
 1620SOL    HW2 9708   0.553   1.375   3.354  0.5072 -0.3441  0.3320
 1621SOL     OW 9709   9.632   3.780   1.964 -0.4661  0.1064 -0.3174
 1621SOL    HW1 9710   9.595   3.694   1.945  1.9105 -0.9959 -0.3375
 1621SOL    HW2 9711   9.612   3.795   2.057  0.0084 -0.9999 -0.0172
 1622SOL     OW 9712   2.439   1.420   3.079  0.2864  1.1150  0.1429
 1622SOL    HW1 9713   2.434   1.340   3.026 -0.2206  1.9351 -1.1084
 1622SOL    HW2 9714   2.358   1.467   3.058  1.1682  2.5657 -0.1854
 1623SOL     OW 9715   9.792   2.700   3.682 -0.4836 -0.3126 -0.4117
 1623SOL    HW1 9716   9.785   2.677   3.775 -1.7429 -1.5012 -0.7643
 1623SOL    HW2 9717   9.703   2.692   3.649  0.0459 -0.5067 -1.8498
 1624SOL     OW 9718   0.346   3.222   1.749  0.0381 -0.2498  0.3344
 1624SOL    HW1 9719   0.285   3.155   1.718 -0.3734  0.0198  0.5432
 1624SOL    HW2 9720   0.404   3.238   1.674 -0.8869  0.3361 -0.2788
 1625SOL     OW 9721   0.590   1.673   3.051 -0.6320  0.4359  0.2336
 1625SOL    HW1 9722   0.597   1.635   3.139 -0.3976  1.7098  0.8005
 1625SOL    HW2 9723   0.532   1.614   3.004 -0.6054 -0.3850  1.1934
 1626SOL     OW 9724   0.775   3.151   2.200  0.2155 -0.3096  0.3424
 1626SOL    HW1 9725   0.688   3.184   2.175  1.0060  1.4607 -0.2294
 1626SOL    HW2 9726   0.832   3.227   2.193  2.2683 -1.9058 -1.4566
 1627SOL     OW 9727   1.749   2.361   0.973 -0.1625 -0.0078  0.2138
 1627SOL    HW1 9728   1.686   2.333   1.039 -0.8792 -0.8956 -0.7923
 1627SOL    HW2 9729   1.704   2.344   0.890  0.7649  0.9326 -0.4984
 1628SOL     OW 9730   1.098   4.247   1.680  0.0354  0.3624 -0.0165
 1628SOL    HW1 9731   1.186   4.277   1.704 -0.3686  2.2670 -0.8013
 1628SOL    HW2 9732   1.039   4.302   1.731 -0.7576 -1.4054  1.0767
 1629SOL     OW 9733   1.838   1.133   0.605 -0.6358 -0.0917  0.1437
 1629SOL    HW1 9734   1.926   1.124   0.568 -0.5649  0.4156  0.1814
 1629SOL    HW2 9735   1.780   1.127   0.529 -0.5715 -0.4056  0.1162
 1630SOL     OW 9736   7.691   4.732   2.467 -0.5271  1.0101 -0.1594
 1630SOL    HW1 9737   7.727   4.767   2.386 -1.0274  0.1160 -0.7856
 1630SOL    HW2 9738   7.755   4.668   2.497 -1.1520  0.0697 -0.7959
 1631SOL     OW 9739   1.445   2.990   2.696  0.3265 -0.2286  0.3677
 1631SOL    HW1 9740   1.396   2.980   2.615 -0.2522  0.0903  0.6739
 1631SOL    HW2 9741   1.530   3.025   2.669 -0.2182  0.8550 -0.0230
 1632SOL     OW 9742   2.504   2.810   3.234 -0.1361  0.4582  0.1570
 1632SOL    HW1 9743   2.464   2.895   3.256 -0.4073  0.6581 -1.0552
 1632SOL    HW2 9744   2.449   2.775   3.164 -0.3751 -1.0168  1.0433
 1633SOL     OW 9745   9.225   2.109   2.732 -0.4564 -0.5199 -0.4935
 1633SOL    HW1 9746   9.301   2.059   2.761 -0.4742  0.5003  1.4276
 1633SOL    HW2 9747   9.150   2.053   2.753 -0.3554 -0.6899 -0.5804
 1634SOL     OW 9748   2.221   1.077   4.431  0.6995  0.2169 -0.2900
 1634SOL    HW1 9749   2.132   1.105   4.411  1.3733  2.3450 -0.5333
 1634SOL    HW2 9750   2.276   1.126   4.370  2.0018 -1.8283 -0.8666
 1635SOL     OW 9751   1.031   2.234   0.625  0.6317  0.6702  0.1398
 1635SOL    HW1 9752   0.999   2.211   0.713  2.9169 -0.6645  0.7090
 1635SOL    HW2 9753   0.955   2.274   0.582 -2.0053 -2.7406  1.1484
 1636SOL     OW 9754   1.885   0.081   3.720  0.4880  0.4735 -0.2609
 1636SOL    HW1 9755   1.830   0.114   3.791 -0.3883 -0.2614 -0.5906
 1636SOL    HW2 9756   1.921   0.160   3.680  0.5382  0.9188  0.6370
 1637SOL     OW 9757   8.040   4.214   2.559 -0.6024 -0.4956 -0.1152
 1637SOL    HW1 9758   8.114   4.188   2.614 -2.1428 -1.8965  1.3893
 1637SOL    HW2 9759   8.040   4.310   2.562  0.9582 -0.4672  0.0636
 1638SOL     OW 9760   7.497   1.851   1.141 -0.1825  0.4030 -0.2749
 1638SOL    HW1 9761   7.439   1.873   1.214  0.0813 -0.2087  0.1308
 1638SOL    HW2 9762   7.457   1.773   1.102  0.5523 -0.2416  0.2342
 1639SOL     OW 9763   1.196   2.131   0.961  0.2730  0.3513 -0.0095
 1639SOL    HW1 9764   1.104   2.146   0.938  0.9401  3.3137 -1.2466
 1639SOL    HW2 9765   1.229   2.074   0.892 -0.0509  1.3746 -1.0288
 1640SOL     OW 9766   8.660   4.965   3.213  0.0574  0.3865 -0.3117
 1640SOL    HW1 9767   8.694   5.053   3.223 -2.6595  1.4327  0.7675
 1640SOL    HW2 9768   8.645   4.935   3.303 -0.6326 -0.4824 -0.7046
 1641SOL     OW 9769   0.186   2.989   1.687  0.2272  0.2281  0.3914
 1641SOL    HW1 9770   0.207   2.898   1.708  1.8332  0.7336  1.1908
 1641SOL    HW2 9771   0.124   3.015   1.755  0.0913 -0.1410  0.4146
 1642SOL     OW 9772   2.768   2.785   1.163 -0.1960  0.2960  0.0121
 1642SOL    HW1 9773   2.796   2.694   1.162 -0.9266  0.0716 -0.8961
 1642SOL    HW2 9774   2.691   2.788   1.106  1.6150  2.0518 -2.5885
 1643SOL     OW 9775   0.154   1.490   0.382 -0.3734  0.3557 -0.6193
 1643SOL    HW1 9776   0.185   1.577   0.408  0.4641  0.5230 -2.0590
 1643SOL    HW2 9777   0.059   1.497   0.383 -0.3212  1.0585 -0.0061
 1644SOL     OW 9778   0.342   4.651   4.045  0.4337 -0.3736 -0.1329
 1644SOL    HW1 9779   0.254   4.643   4.082 -0.0713 -1.4990 -1.4791
 1644SOL    HW2 9780   0.393   4.692   4.114 -0.7476 -1.2605  1.3285
 1645SOL     OW 9781   0.793   3.447   0.204  0.1440 -0.1280  0.2676
 1645SOL    HW1 9782   0.827   3.363   0.173  1.9329  0.5333  0.3346
 1645SOL    HW2 9783   0.810   3.508   0.133 -2.1623  0.0210 -0.2434
 1646SOL     OW 9784   2.150   8.634   3.913  0.3398  0.5043 -0.1383
 1646SOL    HW1 9785   2.147   8.601   3.823  0.5538 -1.4507  0.5045
 1646SOL    HW2 9786   2.204   8.713   3.909  0.9192  0.0590 -1.6256
 1647SOL     OW 9787   1.627   3.158   3.896 -0.4491  0.7030 -0.0347
 1647SOL    HW1 9788   1.632   3.130   3.987 -0.7763  0.0194 -0.2250
 1647SOL    HW2 9789   1.534   3.181   3.883 -0.2836  1.4226 -0.0198
 1648SOL     OW 9790   0.100   3.870   2.647  0.6934 -0.2640 -0.6655
 1648SOL    HW1 9791   0.065   3.854   2.735 -1.2547 -1.3714 -1.5869
 1648SOL    HW2 9792   0.025   3.900   2.596  1.0844 -2.2949 -2.6213
 1649SOL     OW 9793   0.087   1.799   1.898 -0.1258  0.5993  0.0050
 1649SOL    HW1 9794   0.160   1.800   1.960 -1.4327 -0.8756  1.6900
 1649SOL    HW2 9795   0.103   1.723   1.842 -0.3700  0.2476  0.4055
 1650SOL     OW 9796   9.199   2.884   3.219 -0.0995  0.3671 -0.4211
 1650SOL    HW1 9797   9.263   2.870   3.289 -0.2418  0.1886 -0.3254
 1650SOL    HW2 9798   9.145   2.957   3.251  0.9227  1.4727 -1.1203
 1651SOL     OW 9799   1.578   3.289   2.375  0.2962 -0.3404 -0.6456
 1651SOL    HW1 9800   1.639   3.273   2.303 -1.2238 -0.7733 -1.8839
 1651SOL    HW2 9801   1.558   3.383   2.369 -1.0401 -0.6729 -1.8252
 1652SOL     OW 9802   9.671   3.936   1.167 -0.0593  0.5038 -0.0554
 1652SOL    HW1 9803   9.710   3.896   1.089 -2.7444  0.9252 -1.7261
 1652SOL    HW2 9804   9.720   3.898   1.240  1.2074 -1.4973 -1.8248
 1653SOL     OW 9805   0.434   9.664   2.111 -0.5525  0.3825 -0.1924
 1653SOL    HW1 9806   0.415   9.721   2.185 -1.7491 -0.5545  0.2627
 1653SOL    HW2 9807   0.493   9.714   2.055 -0.1920  1.3637  1.0551
 1654SOL     OW 9808   0.228   0.485   2.554 -0.1060  0.4732  0.1083
 1654SOL    HW1 9809   0.220   0.456   2.645  0.8787 -1.1336 -0.2591
 1654SOL    HW2 9810   0.287   0.561   2.558  0.3156  0.1253  0.7856
 1655SOL     OW 9811   1.143   3.987   3.380  0.5604  0.2611 -0.1018
 1655SOL    HW1 9812   1.137   3.905   3.428  0.4545  0.2021 -0.2147
 1655SOL    HW2 9813   1.226   3.982   3.332  0.3568  0.0405 -0.4362
 1656SOL     OW 9814   8.173   3.900   1.217  0.3102  0.4992 -0.4686
 1656SOL    HW1 9815   8.171   3.961   1.143  0.1088  0.8433 -0.1842
 1656SOL    HW2 9816   8.263   3.906   1.249  0.6450 -0.2952 -1.2044
 1657SOL     OW 9817   8.238   3.827   2.237 -0.3642 -0.0121  0.3269
 1657SOL    HW1 9818   8.239   3.749   2.291 -3.0957 -0.9104 -0.7618
 1657SOL    HW2 9819   8.235   3.900   2.299 -1.4476 -0.9281  1.3859
 1658SOL     OW 9820   0.613   3.059   5.137  0.1947  0.7189 -0.0433
 1658SOL    HW1 9821   0.628   3.049   5.043 -0.4937  1.8495 -0.2952
 1658SOL    HW2 9822   0.684   3.114   5.168 -0.3804  1.5683 -0.1985
 1659SOL     OW 9823   0.814   0.394   4.067 -0.2382 -0.3163  0.1655
 1659SOL    HW1 9824   0.771   0.422   3.987 -0.3400  0.1950  0.3969
 1659SOL    HW2 9825   0.748   0.408   4.136  0.5405  1.2448  0.6469
 1660SOL     OW 9826   9.573   3.173   3.571 -0.0729  0.0487 -0.1107
 1660SOL    HW1 9827   9.653   3.219   3.545  0.8073 -2.2971 -2.0362
 1660SOL    HW2 9828   9.601   3.113   3.640  0.4328 -2.1430 -2.0683
 1661SOL     OW 9829   9.816   2.894   3.436 -0.3181  0.1550  0.0041
 1661SOL    HW1 9830   9.866   2.972   3.415 -0.4679  0.1206 -0.4992
 1661SOL    HW2 9831   9.881   2.831   3.468 -0.1600  0.3890  0.1450
 1662SOL     OW 9832   0.021   5.329   4.285 -0.0410 -0.1110 -0.0214
 1662SOL    HW1 9833  -0.074   5.315   4.294 -0.1579  0.2408 -0.6270
 1662SOL    HW2 9834   0.058   5.241   4.285 -0.4385 -0.2831 -0.4922
 1663SOL     OW 9835   2.233   3.946   4.648 -0.4196  0.1080  0.2705
 1663SOL    HW1 9836   2.253   3.889   4.574  0.2328  0.6580  0.0153
 1663SOL    HW2 9837   2.245   4.035   4.615 -1.4455  0.4126  0.6610
 1664SOL     OW 9838   0.629   3.220   3.346  0.2519 -0.4236 -0.1723
 1664SOL    HW1 9839   0.609   3.247   3.436  0.7292 -0.7473  0.0364
 1664SOL    HW2 9840   0.544   3.218   3.302 -0.1709 -1.5814  0.6345
 1665SOL     OW 9841   0.339   4.612   2.297 -0.0155 -0.0365  0.6348
 1665SOL    HW1 9842   0.379   4.526   2.308 -0.6695 -0.7346 -1.7923
 1665SOL    HW2 9843   0.407   4.674   2.323  1.3750 -1.2615  0.0574
 1666SOL     OW 9844   9.609   3.932   3.276 -0.3162 -0.4466 -0.1270
 1666SOL    HW1 9845   9.676   3.928   3.207 -0.6961 -3.8759 -0.4725
 1666SOL    HW2 9846   9.658   3.952   3.356  0.3974  1.6633 -1.0184
 1667SOL     OW 9847   0.250   4.535   3.559  0.5467 -0.4568 -0.0258
 1667SOL    HW1 9848   0.302   4.468   3.603 -1.8889 -0.4596  3.2907
 1667SOL    HW2 9849   0.181   4.486   3.513 -0.0819 -0.3368  0.7627
 1668SOL     OW 9850   0.092   1.050   3.162 -0.7056  0.0962  0.6040
 1668SOL    HW1 9851   0.108   1.027   3.071  1.3420 -0.5461  1.0770
 1668SOL    HW2 9852   0.098   0.967   3.209  1.0315  0.7513  1.6372
 1669SOL     OW 9853   0.851   3.040   2.725  0.1293 -0.2076 -0.3523
 1669SOL    HW1 9854   0.860   3.135   2.738  1.0862 -0.3749  0.2993
 1669SOL    HW2 9855   0.889   3.025   2.639 -0.5919  0.0768 -0.7291
 1670SOL     OW 9856   3.063   1.160   3.943  0.9139  0.2055 -0.2160
 1670SOL    HW1 9857   3.112   1.240   3.961  0.7267  0.1747  0.4556
 1670SOL    HW2 9858   3.034   1.169   3.853  0.8813  0.9027 -0.1379
 1671SOL     OW 9859   8.960   4.001   3.702 -0.5288  0.2239 -0.0171
 1671SOL    HW1 9860   8.955   3.909   3.727 -1.8382  0.5508  1.0477
 1671SOL    HW2 9861   8.989   4.046   3.781 -0.7658  0.8178 -0.2591
 1672SOL     OW 9862   9.675   1.975   2.234 -0.0689 -0.3872 -0.2497
 1672SOL    HW1 9863   9.605   1.926   2.278  0.9864 -1.9157 -0.2101
 1672SOL    HW2 9864   9.645   2.066   2.235 -1.0861 -0.7040  1.6377
 1673SOL     OW 9865   0.486   3.628   4.545  0.0704  0.3141 -0.2290
 1673SOL    HW1 9866   0.523   3.639   4.458  0.0188  0.1739 -0.2688
 1673SOL    HW2 9867   0.516   3.542   4.573  0.3844  0.5075  0.0371
 1674SOL     OW 9868   9.677   3.178   1.704 -0.0895 -0.5383  0.1767
 1674SOL    HW1 9869   9.703   3.093   1.739 -0.8098  0.4160  3.3974
 1674SOL    HW2 9870   9.584   3.167   1.684  0.3910 -1.1745 -1.9615
 1675SOL     OW 9871   0.197   2.186   1.638  0.1771 -0.2024  0.2986
 1675SOL    HW1 9872   0.289   2.160   1.636 -0.2404 -1.8445  0.8747
 1675SOL    HW2 9873   0.191   2.247   1.712  0.7310 -0.4097  0.5215
 1676SOL     OW 9874   9.679   4.352   2.930  0.3426 -0.0130  0.1047
 1676SOL    HW1 9875   9.764   4.370   2.889  0.2290 -2.3376 -1.3276
 1676SOL    HW2 9876   9.615   4.385   2.867  0.1674  0.6444  0.6218
 1677SOL     OW 9877   0.709   3.266   1.932  0.2898  0.0223 -0.5428
 1677SOL    HW1 9878   0.652   3.279   1.856 -0.5068 -0.6310 -0.0665
 1677SOL    HW2 9879   0.660   3.208   1.990  0.7408  0.8056  0.6511
 1678SOL     OW 9880   8.340   0.503   5.315  0.1343 -0.7675 -0.2461
 1678SOL    HW1 9881   8.366   0.577   5.369  0.9297  0.3859 -2.1213
 1678SOL    HW2 9882   8.421   0.456   5.297 -0.0312 -0.8255 -0.8702
 1679SOL     OW 9883   0.272   2.037   2.977  0.5945  0.4626 -0.3569
 1679SOL    HW1 9884   0.321   1.970   3.025  0.5658  0.1538 -0.7493
 1679SOL    HW2 9885   0.191   2.047   3.026  0.2520 -0.3742 -0.7286
 1680SOL     OW 9886   1.892   3.511   4.506 -0.3291  0.5210 -0.9666
 1680SOL    HW1 9887   1.926   3.450   4.571  1.4192  2.9055  0.5082
 1680SOL    HW2 9888   1.850   3.580   4.557 -0.8415  1.3775 -2.4790
 1681SOL     OW 9889   0.768   2.107   3.984 -0.1933  0.0378 -0.5310
 1681SOL    HW1 9890   0.766   2.203   3.978  0.1527 -0.0073 -1.5623
 1681SOL    HW2 9891   0.705   2.086   4.053  0.0816  1.0317  0.0453
 1682SOL     OW 9892   1.308   1.339   2.698 -0.0495 -0.4351 -0.1616
 1682SOL    HW1 9893   1.350   1.387   2.626  0.1266  0.1411  0.3099
 1682SOL    HW2 9894   1.363   1.262   2.709 -0.2292 -0.6647 -0.8151
 1683SOL     OW 9895   1.912   2.649   5.305 -0.5188  0.1504  0.5201
 1683SOL    HW1 9896   1.943   2.733   5.338 -0.4993  0.4371 -0.2146
 1683SOL    HW2 9897   1.828   2.669   5.264  0.8196  0.4087 -2.3251
 1684SOL     OW 9898   2.312   2.203   4.591 -0.7262  0.0987 -0.1224
 1684SOL    HW1 9899   2.404   2.200   4.564 -0.1739  1.6639  1.4003
 1684SOL    HW2 9900   2.314   2.185   4.685 -2.0988 -0.7067 -0.2281
 1685SOL     OW 9901   1.683   3.915   2.698  0.1583  0.0332  0.0776
 1685SOL    HW1 9902   1.665   3.837   2.751 -0.4183 -0.7475 -1.2197
 1685SOL    HW2 9903   1.603   3.966   2.704  0.0786 -0.0740 -0.0769
 1686SOL     OW 9904   1.462   0.952   0.965 -0.1174 -0.0309 -0.5204
 1686SOL    HW1 9905   1.445   0.988   1.052  0.8659 -1.3229  0.2302
 1686SOL    HW2 9906   1.480   1.029   0.910 -0.4907  0.7761  0.4733
 1687SOL     OW 9907   2.009   2.583   3.734  0.3985 -0.3845  0.0058
 1687SOL    HW1 9908   1.942   2.641   3.697  1.5868  1.3688  0.5003
 1687SOL    HW2 9909   1.969   2.547   3.813 -0.5196 -0.6141 -0.5463
 1688SOL     OW 9910   2.817   3.097   0.879 -0.2200 -0.0444 -0.1555
 1688SOL    HW1 9911   2.816   3.002   0.881 -0.3142 -0.0567 -0.5919
 1688SOL    HW2 9912   2.900   3.119   0.836 -0.0340  0.0777  0.2660
 1689SOL     OW 9913   0.275   3.866   2.946  0.2436 -0.4736  0.0256
 1689SOL    HW1 9914   0.298   3.880   2.855 -1.5079 -0.4239 -0.4447
 1689SOL    HW2 9915   0.349   3.816   2.982  2.1182  1.5925 -0.7305
 1690SOL     OW 9916   2.471   2.137   3.011 -0.4730  0.5269  0.5443
 1690SOL    HW1 9917   2.444   2.228   3.024 -0.6049  1.0449 -2.4820
 1690SOL    HW2 9918   2.457   2.122   2.917  0.9696 -2.1526  0.6740
 1691SOL     OW 9919   2.106   2.157   5.371  0.0770 -0.9095  0.1557
 1691SOL    HW1 9920   2.066   2.103   5.439 -0.3056 -1.4361 -0.4742
 1691SOL    HW2 9921   2.073   2.245   5.388 -1.2985 -1.3083 -0.2790
 1692SOL     OW 9922   0.958   2.018   2.029  0.4275  0.2102 -0.4239
 1692SOL    HW1 9923   0.950   2.095   1.973  1.3692  0.4333 -0.2739
 1692SOL    HW2 9924   1.003   2.050   2.107 -1.6664  0.1063  0.9035
 1693SOL     OW 9925   0.672   4.166   1.775 -0.2184 -0.6134  0.0884
 1693SOL    HW1 9926   0.671   4.132   1.864 -0.8423 -0.9053 -0.0240
 1693SOL    HW2 9927   0.763   4.155   1.746  0.5264  1.4792  1.4293
 1694SOL     OW 9928   0.655   4.249   2.538  0.1336  0.4133 -0.2626
 1694SOL    HW1 9929   0.597   4.319   2.509  1.2238  2.2931  1.8585
 1694SOL    HW2 9930   0.605   4.169   2.522 -1.8583  1.7572 -1.1595
 1695SOL     OW 9931   7.786   2.945   3.173  0.2454  0.0198 -0.0647
 1695SOL    HW1 9932   7.863   2.893   3.196 -0.2338 -0.9890 -0.6495
 1695SOL    HW2 9933   7.782   3.014   3.239  2.5970  1.1302 -0.9667
 1696SOL     OW 9934   0.398   3.956   3.935 -0.7435 -0.1412 -0.2752
 1696SOL    HW1 9935   0.334   3.983   4.001  0.6885  1.7851  0.4038
 1696SOL    HW2 9936   0.432   3.872   3.968 -1.6736 -0.3369  0.2250
 1697SOL     OW 9937   0.221   3.117   3.904  1.0112 -0.1239  0.0543
 1697SOL    HW1 9938   0.206   3.131   3.811  0.3842 -0.7392  0.0580
 1697SOL    HW2 9939   0.262   3.031   3.910  1.8784  0.2828  0.2899
 1698SOL     OW 9940   9.733   2.597   5.126 -0.2644 -0.1050  0.4525
 1698SOL    HW1 9941   9.792   2.661   5.086 -0.4510  0.4015  0.9737
 1698SOL    HW2 9942   9.708   2.636   5.210  1.0676 -1.6948  1.6412
 1699SOL     OW 9943   9.404   3.256   1.553 -0.6784  0.1612  0.2870
 1699SOL    HW1 9944   9.344   3.200   1.504 -1.9589  0.6421  1.2464
 1699SOL    HW2 9945   9.442   3.314   1.487  0.0688 -1.2716 -0.5968
 1700SOL     OW 9946   1.087   3.581   3.396 -0.5085  0.1769 -0.7219
 1700SOL    HW1 9947   1.059   3.534   3.317 -1.0401 -1.1479  0.2254
 1700SOL    HW2 9948   1.151   3.645   3.364 -0.9616 -0.0932 -2.2663
 1701SOL     OW 9949   1.124   3.901   1.169  0.7398  0.1857  0.4759
 1701SOL    HW1 9950   1.214   3.903   1.202  0.9428 -0.5825 -0.0101
 1701SOL    HW2 9951   1.104   3.808   1.157  0.7397  0.4033 -1.6737
 1702SOL     OW 9952   9.479   4.030   4.294 -0.4256 -0.0111 -0.0993
 1702SOL    HW1 9953   9.498   3.938   4.276  0.5780  0.3861 -1.1949
 1702SOL    HW2 9954   9.564   4.074   4.287 -1.1354  1.2617 -1.2961
 1703SOL     OW 9955   1.612   1.785   3.235  0.7521 -0.4529  0.6013
 1703SOL    HW1 9956   1.601   1.790   3.140 -2.7702  0.9346  0.9304
 1703SOL    HW2 9957   1.625   1.876   3.262  0.9764 -0.7508  1.5225
 1704SOL     OW 9958   3.327   2.876   1.441 -0.8065 -0.2847  0.3121
 1704SOL    HW1 9959   3.394   2.808   1.436 -0.8989 -0.3900  0.4944
 1704SOL    HW2 9960   3.277   2.866   1.360 -0.0413  0.3898 -0.2572
 1705SOL     OW 9961   3.518   4.135   1.193  0.3526  0.8000 -0.9908
 1705SOL    HW1 9962   3.508   4.105   1.102  1.8930  0.5240 -1.1037
 1705SOL    HW2 9963   3.585   4.203   1.188  1.2093  0.0608  0.0612
 1706SOL     OW 9964   1.799   2.013   2.793 -0.4299 -0.4029 -0.2109
 1706SOL    HW1 9965   1.841   1.964   2.863 -0.9293  1.5859  1.5909
 1706SOL    HW2 9966   1.791   2.102   2.827  1.4903  1.3160 -3.7333
 1707SOL     OW 9967   8.241   4.141   1.872  0.4944  0.0550  0.5540
 1707SOL    HW1 9968   8.271   4.156   1.962 -0.8279  2.8717  0.6254
 1707SOL    HW2 9969   8.285   4.209   1.821 -0.8494  0.2208 -0.4373
 1708SOL     OW 9970   1.958   3.925   3.479  0.5581 -0.3030 -0.7271
 1708SOL    HW1 9971   1.957   3.973   3.396 -0.8084  0.3569 -0.3522
 1708SOL    HW2 9972   2.003   3.983   3.540  0.0397 -0.0456 -0.5879
 1709SOL     OW 9973   3.047   2.238   3.358  0.5176  0.4799  0.2143
 1709SOL    HW1 9974   2.982   2.282   3.304  0.9629  1.4439  0.4333
 1709SOL    HW2 9975   3.129   2.247   3.309  0.6277 -0.0630  0.2930
 1710SOL     OW 9976   4.039   5.122   3.264  0.3135 -0.0250  0.0075
 1710SOL    HW1 9977   4.058   5.140   3.357  0.1742 -1.9750  0.4456
 1710SOL    HW2 9978   4.125   5.109   3.225  0.4281  1.5832 -0.3525
 1711SOL     OW 9979   9.812   5.225   2.895 -0.3014 -0.4902  0.4329
 1711SOL    HW1 9980   9.886   5.189   2.943  0.6545  0.5455 -0.2302
 1711SOL    HW2 9981   9.797   5.162   2.824  0.8329 -0.0423 -0.2324
 1712SOL     OW 9982   0.979   4.109   2.957 -0.7542  0.4185  0.1120
 1712SOL    HW1 9983   1.003   4.185   3.009  0.8345  0.1936 -0.2314
 1712SOL    HW2 9984   1.031   4.037   2.995  0.1738  0.1805 -1.5153
 1713SOL     OW 9985   8.901   3.880   2.818 -0.0957 -0.6465 -0.1785
 1713SOL    HW1 9986   8.963   3.884   2.745 -1.0091  0.5654 -0.9182
 1713SOL    HW2 9987   8.815   3.889   2.778 -0.5854  0.9265  1.1052
 1714SOL     OW 9988   0.107   2.896   9.812  0.1252  0.2931 -0.1905
 1714SOL    HW1 9989   0.174   2.858   9.870 -0.1016  0.9820  0.5306
 1714SOL    HW2 9990   0.135   2.986   9.799 -0.0393  0.2523 -0.8447
 1715SOL     OW 9991   9.118   3.608   3.785 -0.1150 -0.1639  0.6074
 1715SOL    HW1 9992   9.195   3.633   3.836  0.3086 -2.0242  0.9569
 1715SOL    HW2 9993   9.047   3.661   3.820  0.9753  1.6047  0.2714
 1716SOL     OW 9994   0.642   3.146   1.068  0.3183 -0.1882  0.0470
 1716SOL    HW1 9995   0.662   3.055   1.047 -1.8086 -0.4392 -1.2046
 1716SOL    HW2 9996   0.665   3.194   0.989 -0.2263  0.0790  0.0454
 1717SOL     OW 9997   9.687   5.275   1.895 -0.5484  0.4272  0.6831
 1717SOL    HW1 9998   9.592   5.288   1.894 -0.4704  1.2344  1.8093
 1717SOL    HW2 9999   9.704   5.233   1.980  0.1936  1.0965  0.8683
 1718SOL     OW10000   2.222   2.746   3.338 -0.1952 -0.2748 -0.1182
 1718SOL    HW110001   2.258   2.833   3.325  1.3802 -0.6475  1.3062
 1718SOL    HW210002   2.254   2.695   3.264  1.0578 -0.2459  0.3865
 1719SOL     OW10003   0.925   2.829   2.262 -0.0374 -0.3025 -0.2743
 1719SOL    HW110004   0.919   2.742   2.300  0.2523  1.0935  3.4126
 1719SOL    HW210005   1.018   2.842   2.244  0.6106  0.5226  3.0134
 1720SOL     OW10006   9.837   0.386   2.580 -0.1926  0.4582 -0.2080
 1720SOL    HW110007   9.922   0.369   2.538 -1.1888 -0.3873 -2.0039
 1720SOL    HW210008   9.812   0.301   2.617  0.8346  1.2624  2.5959
 1721SOL     OW10009   1.571   5.240   2.893 -0.0508  0.4722 -0.0589
 1721SOL    HW110010   1.492   5.292   2.910  0.3285  2.4182 -3.4601
 1721SOL    HW210011   1.641   5.291   2.935 -0.1344  0.7597 -0.2636
 1722SOL     OW10012   1.879   2.930   4.269 -0.2789  1.0529  0.0329
 1722SOL    HW110013   1.965   2.889   4.263  0.1498  1.8674  0.5391
 1722SOL    HW210014   1.822   2.860   4.301  0.2491  0.5939  0.0015
 1723SOL     OW10015   1.335   2.953   2.446 -0.2009  0.1477  0.4221
 1723SOL    HW110016   1.412   2.911   2.406 -0.4874  1.4668 -1.6345
 1723SOL    HW210017   1.267   2.885   2.443  0.6731 -0.8396  1.7295
 1724SOL     OW10018   2.108   2.539   5.149 -0.1379  0.2696 -0.1438
 1724SOL    HW110019   2.051   2.513   5.076 -4.2249  3.4216  1.4990
 1724SOL    HW210020   2.055   2.523   5.227  2.8551 -0.1230  1.9490
 1725SOL     OW10021   0.305   2.291   1.353  0.0713  0.1016  0.1369
 1725SOL    HW110022   0.310   2.369   1.298 -1.5523 -0.1328 -0.3748
 1725SOL    HW210023   0.373   2.305   1.420  1.2131  0.9733 -1.1426
 1726SOL     OW10024   1.464   5.243   3.996  0.7218  0.2730 -0.5224
 1726SOL    HW110025   1.383   5.199   4.024  0.3857  1.6758  0.8393
 1726SOL    HW210026   1.474   5.218   3.905 -1.6409  0.6021 -0.9522
 1727SOL     OW10027   0.737   4.103   0.537 -0.2760 -0.5400  0.0971
 1727SOL    HW110028   0.819   4.099   0.586 -0.3614 -0.9368  0.2166
 1727SOL    HW210029   0.712   4.011   0.526 -1.6638 -0.3987  1.6698
 1728SOL     OW10030   1.751   3.121   3.180  0.5052 -0.0184  0.8320
 1728SOL    HW110031   1.814   3.089   3.244 -0.5231 -1.0837  1.3440
 1728SOL    HW210032   1.721   3.043   3.134  1.4020  0.7493 -1.1721
 1729SOL     OW10033   0.247   1.107   1.612 -0.4524 -0.2885  0.2128
 1729SOL    HW110034   0.216   1.017   1.605 -1.7374  0.1286  0.3514
 1729SOL    HW210035   0.332   1.100   1.655  0.6796 -1.6461 -2.0492
 1730SOL     OW10036   1.115   0.768   3.830 -0.3267 -0.4431 -0.1707
 1730SOL    HW110037   1.104   0.713   3.908 -0.2806 -0.2870 -0.0531
 1730SOL    HW210038   1.137   0.706   3.760 -2.4214 -0.8355 -0.5421
 1731SOL     OW10039   7.970   2.590   1.171 -0.0353  0.4485 -0.0586
 1731SOL    HW110040   8.033   2.526   1.136 -0.9938  0.0951 -1.1850
 1731SOL    HW210041   7.982   2.668   1.116  0.4209  0.8953  0.6613
 1732SOL     OW10042   2.537   3.566   0.337 -0.0722  0.4199 -0.8240
 1732SOL    HW110043   2.586   3.637   0.294  1.4115 -0.9730 -1.5306
 1732SOL    HW210044   2.586   3.549   0.418  0.1130 -0.3816 -1.0993
 1733SOL     OW10045   9.640   3.130   5.166 -0.1158  0.6704 -0.8541
 1733SOL    HW110046   9.699   3.055   5.158 -0.3300  0.7072 -3.2500
 1733SOL    HW210047   9.695   3.206   5.152 -0.0891  0.9538  0.6008
 1734SOL     OW10048   2.284   3.605   1.751 -0.0333 -0.1705 -0.0003
 1734SOL    HW110049   2.312   3.621   1.661  2.4466 -2.8297  0.1735
 1734SOL    HW210050   2.233   3.524   1.746  1.6486 -1.3734  1.1203
 1735SOL     OW10051   0.329   1.757   4.621 -0.5320  0.0095  0.2132
 1735SOL    HW110052   0.253   1.772   4.565  1.1512  0.4369 -2.1456
 1735SOL    HW210053   0.380   1.690   4.574  1.2793  0.8654  0.8626
 1736SOL     OW10054   0.576   4.355   2.089 -0.4469  0.3922  0.2014
 1736SOL    HW110055   0.521   4.386   2.017 -1.2867 -0.6884  0.3610
 1736SOL    HW210056   0.583   4.430   2.148  2.6754  2.3757 -2.2934
 1737SOL     OW10057   0.860   1.989   3.399 -0.5193 -0.5320 -0.4078
 1737SOL    HW110058   0.889   1.919   3.457 -0.1087 -0.7445 -0.8607
 1737SOL    HW210059   0.916   2.063   3.421 -2.0463  0.2108  1.2391
 1738SOL     OW10060   2.180   2.284   4.330 -0.0943  0.5191  0.1334
 1738SOL    HW110061   2.250   2.250   4.386  0.3401 -2.1681 -1.8369
 1738SOL    HW210062   2.104   2.230   4.352 -0.0474 -0.2298 -1.4156
 1739SOL     OW10063   3.201   0.698   3.282  0.8348  0.2033  0.7481
 1739SOL    HW110064   3.245   0.783   3.283 -1.3942  1.4213  1.0764
 1739SOL    HW210065   3.165   0.690   3.194 -1.0330  0.7968  1.3996
 1740SOL     OW10066   2.332   2.880   1.941  0.1428  0.1527 -0.0942
 1740SOL    HW110067   2.286   2.937   2.002  1.7684  1.6344 -0.1773
 1740SOL    HW210068   2.276   2.803   1.933 -2.4738  1.9803 -0.5083
 1741SOL     OW10069   1.370   1.815   3.809  0.2431 -0.2294  0.1408
 1741SOL    HW110070   1.325   1.893   3.842  1.5819  0.4268  0.4919
 1741SOL    HW210071   1.457   1.847   3.784  1.3255 -1.8634  1.5897
 1742SOL     OW10072   9.470   4.467   1.575  0.1021 -0.2200 -0.5090
 1742SOL    HW110073   9.501   4.556   1.596 -0.6524  0.3081 -1.5456
 1742SOL    HW210074   9.375   4.473   1.580  0.0628 -1.4080  0.9952
 1743SOL     OW10075   0.237   3.010   3.463  0.2272 -0.1684  0.4006
 1743SOL    HW110076   0.288   2.935   3.434  2.0339  1.6479 -1.5607
 1743SOL    HW210077   0.252   3.076   3.395 -0.1514  2.4249  2.6590
 1744SOL     OW10078   0.688   2.918   4.145 -0.1589  0.0927 -0.0382
 1744SOL    HW110079   0.709   2.880   4.060 -0.1183 -1.2582  0.5508
 1744SOL    HW210080   0.613   2.974   4.128 -1.3749 -1.6310 -0.6712
 1745SOL     OW10081   0.954   3.351   2.707  0.4360  0.4808  0.0926
 1745SOL    HW110082   1.013   3.327   2.778 -1.0195 -1.3874  0.7481
 1745SOL    HW210083   0.893   3.413   2.745  1.0403  1.2645 -0.1857
 1746SOL     OW10084   0.586   2.107   5.669 -0.0486  0.7593 -0.0573
 1746SOL    HW110085   0.674   2.130   5.700  0.1433  0.3061 -0.2529
 1746SOL    HW210086   0.527   2.143   5.735  0.4453 -2.6122  2.4542
 1747SOL     OW10087   0.715   2.987   3.822 -0.2983 -0.1807 -0.1510
 1747SOL    HW110088   0.645   2.995   3.757  0.0978  0.5422 -0.4987
 1747SOL    HW210089   0.709   2.896   3.852 -1.8576  0.0728  0.3834
 1748SOL     OW10090   1.721   1.289   3.296  0.6445  0.7020  0.8010
 1748SOL    HW110091   1.630   1.302   3.325  0.5766  2.5797 -0.0696
 1748SOL    HW210092   1.713   1.260   3.206  0.9061  0.3876  0.8787
 1749SOL     OW10093   1.759   2.638   3.988 -0.8517 -0.6088 -0.0947
 1749SOL    HW110094   1.744   2.545   4.008  0.0739 -0.5791  0.8109
 1749SOL    HW210095   1.710   2.686   4.054 -0.1376 -0.4759  0.3479
 1750SOL     OW10096   0.122   2.222   4.720  0.5664  0.3760 -0.1568
 1750SOL    HW110097   0.054   2.201   4.657 -0.9447  0.3369  1.4218
 1750SOL    HW210098   0.081   2.283   4.781  2.0086  0.5286  0.7235
 1751SOL     OW10099   0.632   2.616   2.642 -0.5061 -0.0459 -0.1481
 1751SOL    HW110100   0.725   2.638   2.638 -0.4677 -0.1492  0.1741
 1751SOL    HW210101   0.630   2.520   2.646 -0.5520  0.0007  1.7441
 1752SOL     OW10102   0.510   3.212   2.128 -0.4966 -0.9457  0.4386
 1752SOL    HW110103   0.416   3.192   2.123 -0.7878  0.3771 -0.0355
 1752SOL    HW210104   0.514   3.308   2.121  0.8348 -0.8996  1.4843
 1753SOL     OW10105   9.414   2.608   2.763 -0.2101  0.3135 -0.0162
 1753SOL    HW110106   9.341   2.547   2.758  3.0765 -4.1665  0.2669
 1753SOL    HW210107   9.426   2.624   2.857 -0.4444  0.5522 -0.0264
 1754SOL     OW10108   0.688   0.086   0.526 -0.0283 -0.1035 -0.3003
 1754SOL    HW110109   0.674   0.122   0.614  2.4660  0.1958  0.0448
 1754SOL    HW210110   0.622   0.129   0.472  0.7658  2.6067  0.7160
 1755SOL     OW10111   3.108   2.286   4.494 -0.8553 -0.3167  0.5454
 1755SOL    HW110112   3.036   2.251   4.546 -1.7296  0.3776 -0.1757
 1755SOL    HW210113   3.177   2.220   4.502 -1.2346 -0.5811  1.9543
 1756SOL     OW10114   1.205   2.622   3.999 -0.2954  0.3570  0.3951
 1756SOL    HW110115   1.156   2.702   3.985 -1.7145 -0.3044  1.4073
 1756SOL    HW210116   1.158   2.555   3.949 -0.9055 -0.4400  1.9769
 1757SOL     OW10117   9.237   3.513   1.414 -0.0290  0.1947  0.0855
 1757SOL    HW110118   9.330   3.495   1.400 -0.4009 -0.7589 -1.2646
 1757SOL    HW210119   9.218   3.474   1.499  0.4070 -1.2017 -0.4278
 1758SOL     OW10120   0.813   3.889   4.321  0.1605 -0.4148  0.3800
 1758SOL    HW110121   0.755   3.813   4.316 -0.0814 -0.2618  0.8563
 1758SOL    HW210122   0.816   3.923   4.232  0.9772 -1.5067 -0.0336
 1759SOL     OW10123   2.579   8.325   5.634 -0.2572 -0.2475  0.1461
 1759SOL    HW110124   2.538   8.272   5.565 -0.5305  0.9628 -0.6589
 1759SOL    HW210125   2.550   8.414   5.615  0.5398  0.2518  1.2143
 1760SOL     OW10126   2.882   1.775   4.705 -0.0957 -0.3241  0.8077
 1760SOL    HW110127   2.886   1.839   4.775 -0.7655 -0.8899  1.3763
 1760SOL    HW210128   2.821   1.708   4.736  2.1296 -2.3337  1.1532
 1761SOL     OW10129   0.606   2.604   4.126  0.3330 -0.7755 -0.0085
 1761SOL    HW110130   0.557   2.674   4.170  0.6652 -0.7096  0.2572
 1761SOL    HW210131   0.558   2.524   4.148 -1.0105 -0.4834 -1.6493
 1762SOL     OW10132   0.464   0.851   4.657 -0.6360  0.1350 -0.0936
 1762SOL    HW110133   0.417   0.934   4.665  0.9520  1.1722 -1.0980
 1762SOL    HW210134   0.404   0.794   4.608 -1.3178  1.0145 -0.3053
 1763SOL     OW10135   3.789   4.424   4.579  0.2176 -0.2219 -0.2841
 1763SOL    HW110136   3.794   4.413   4.674 -3.0697  2.2678  0.3372
 1763SOL    HW210137   3.761   4.338   4.547 -0.2800 -0.6473  1.1954
 1764SOL     OW10138   9.386   3.095   5.037  0.2819  0.3184  0.0219
 1764SOL    HW110139   9.330   3.061   5.107  0.8416 -0.0736  0.2868
 1764SOL    HW210140   9.472   3.106   5.078  0.8201 -0.6522 -0.7840
 1765SOL     OW10141   0.349   1.493   6.287  0.7410 -0.7013  0.0427
 1765SOL    HW110142   0.394   1.457   6.211  0.9244  0.8841 -0.6291
 1765SOL    HW210143   0.370   1.586   6.286 -0.7488 -0.3183  0.9820
 1766SOL     OW10144   1.042   2.197   3.367  0.4819  0.1655  0.4368
 1766SOL    HW110145   0.998   2.234   3.290  1.4667  0.9660  0.2483
 1766SOL    HW210146   1.054   2.270   3.426  1.1104 -0.1485  0.7045
 1767SOL     OW10147   1.772   1.717   6.769  0.3931 -0.3253  0.7879
 1767SOL    HW110148   1.754   1.717   6.863  0.8970 -0.2288  0.8851
 1767SOL    HW210149   1.742   1.631   6.739  0.3984 -0.4264  1.0668
 1768SOL     OW10150   9.226   2.644   7.222  0.4246 -0.0248 -0.3772
 1768SOL    HW110151   9.265   2.649   7.135 -1.0552 -0.7244 -1.1237
 1768SOL    HW210152   9.294   2.606   7.278  1.3116  0.2236 -1.2790
 1769SOL     OW10153   8.690   1.816   4.856  0.0463 -0.2948 -0.7253
 1769SOL    HW110154   8.778   1.782   4.839  0.1450 -0.7911  0.6188
 1769SOL    HW210155   8.636   1.780   4.785  0.9032 -0.0559 -1.5131
 1770SOL     OW10156   1.535   0.139   6.133  0.0887  0.3358  0.2484
 1770SOL    HW110157   1.563   0.230   6.133 -1.5001  0.8586 -1.2268
 1770SOL    HW210158   1.615   0.089   6.149  1.0468  1.9505  0.6397
 1771SOL     OW10159   1.528   2.920   5.379  0.1811  0.6342  0.2099
 1771SOL    HW110160   1.492   3.007   5.362  0.9212  0.7565 -0.8049
 1771SOL    HW210161   1.470   2.883   5.445 -1.3248  1.1245 -0.8038
 1772SOL     OW10162   0.011   2.587   5.743 -0.1319 -0.3627  0.6446
 1772SOL    HW110163  -0.015   2.507   5.698  0.5747 -0.1015 -0.2464
 1772SOL    HW210164  -0.021   2.658   5.686  0.6351 -0.0298  0.6151
 1773SOL     OW10165   0.971   3.616   6.315  0.8475  0.0164 -0.0343
 1773SOL    HW110166   0.983   3.523   6.334  1.3932 -0.1683 -1.2489
 1773SOL    HW210167   0.888   3.620   6.268 -0.0823  0.3817  1.5400
 1774SOL     OW10168   9.485   4.754   4.216 -0.2691 -0.2272 -0.2619
 1774SOL    HW110169   9.481   4.758   4.121  2.1023  0.3084 -0.4070
 1774SOL    HW210170   9.563   4.703   4.235 -0.6865 -0.3131  1.4007
 1775SOL     OW10171   1.585   1.592   4.014 -0.1101  0.0105  0.3822
 1775SOL    HW110172   1.574   1.515   4.068 -0.7787 -1.0047 -1.1221
 1775SOL    HW210173   1.495   1.618   3.990  0.0920  1.3252  0.9336
 1776SOL     OW10174   1.627   4.118   5.205 -0.2455 -0.3064  0.0999
 1776SOL    HW110175   1.604   4.054   5.274 -0.5658  1.1031  1.3500
 1776SOL    HW210176   1.551   4.119   5.148  0.6866 -2.7573 -1.3457
 1777SOL     OW10177   2.816   4.190   2.711 -0.0842  0.5038 -0.6805
 1777SOL    HW110178   2.821   4.132   2.636 -1.5234  1.0643 -1.2497
 1777SOL    HW210179   2.764   4.265   2.681 -0.6568  0.7650  0.8400
 1778SOL     OW10180   2.372   4.153   4.314 -0.1710  0.0586  0.0446
 1778SOL    HW110181   2.431   4.078   4.306 -1.5333 -1.1911  1.0313
 1778SOL    HW210182   2.374   4.176   4.407  0.6324  1.6286 -0.3277
 1779SOL     OW10183   2.556   4.084   3.408 -0.0919  0.4284 -0.2321
 1779SOL    HW110184   2.551   4.138   3.487 -1.6323 -0.1293  0.0856
 1779SOL    HW210185   2.470   4.043   3.401  0.4565 -0.6032 -1.4546
 1780SOL     OW10186   2.675   3.030   3.059  0.4381 -0.2344 -0.8808
 1780SOL    HW110187   2.682   2.936   3.075 -0.1852 -0.2239 -0.5344
 1780SOL    HW210188   2.765   3.061   3.063  0.5841 -0.7089 -0.3521
 1781SOL     OW10189   0.765   1.720   6.980 -0.5168 -0.2309 -0.3766
 1781SOL    HW110190   0.740   1.643   6.928  0.8219 -0.8430 -0.1425
 1781SOL    HW210191   0.860   1.723   6.974 -0.4325  0.4324  1.0037
 1782SOL     OW10192   9.378   1.668   6.274 -0.1579 -0.6493  0.1545
 1782SOL    HW110193   9.413   1.754   6.296  1.2328 -0.9197 -0.8462
 1782SOL    HW210194   9.393   1.615   6.353 -1.0319 -0.0077  0.7771
 1783SOL     OW10195   0.662   1.876   4.546 -0.5348 -0.0965 -0.2501
 1783SOL    HW110196   0.577   1.910   4.516  0.2255  0.9845 -1.2806
 1783SOL    HW210197   0.652   1.865   4.640 -1.9033 -0.2495 -0.3927
 1784SOL     OW10198   9.000   3.256   6.646  0.0618 -0.1091  0.0352
 1784SOL    HW110199   8.983   3.252   6.740  0.0284  1.4086  0.1187
 1784SOL    HW210200   9.087   3.218   6.636  0.6166  0.8885  0.8602
 1785SOL     OW10201   3.070   2.640   2.973  0.0800 -0.4719  0.3905
 1785SOL    HW110202   3.032   2.634   3.061  1.3338 -0.1374  0.9783
 1785SOL    HW210203   3.038   2.562   2.927 -0.8389 -0.4905  1.0279
 1786SOL     OW10204   0.590   5.394   5.185 -0.0758  0.8548 -0.2889
 1786SOL    HW110205   0.622   5.418   5.098  1.8665  1.9717  0.6541
 1786SOL    HW210206   0.644   5.319   5.211  0.3780  1.4265  0.4852
 1787SOL     OW10207   0.325   1.569   4.848 -0.0025 -0.1090  0.1485
 1787SOL    HW110208   0.371   1.488   4.828  2.1823  1.0848  0.0626
 1787SOL    HW210209   0.343   1.627   4.774  0.5405  1.2583  1.2868
 1788SOL     OW10210   2.767   1.304   4.918 -1.2895 -0.3037  0.3060
 1788SOL    HW110211   2.785   1.276   5.008 -1.4405  1.1216  0.7978
 1788SOL    HW210212   2.829   1.254   4.865 -1.0588 -1.0092  1.2182
 1789SOL     OW10213   0.822   1.576   4.987  0.4764  0.3165  0.1053
 1789SOL    HW110214   0.882   1.649   4.999  0.9863  1.1817 -5.1871
 1789SOL    HW210215   0.735   1.614   4.999  0.8057  1.2125 -0.2887
 1790SOL     OW10216   1.318   1.222   3.603 -0.3289 -0.5176 -0.2620
 1790SOL    HW110217   1.273   1.147   3.641 -0.2385  0.6170  2.2854
 1790SOL    HW210218   1.278   1.298   3.646  1.9613  0.6863 -0.1012
 1791SOL     OW10219   3.527   3.021   4.873 -0.5774  0.0342  0.1796
 1791SOL    HW110220   3.528   3.020   4.777 -0.5663  0.5845  0.1729
 1791SOL    HW210221   3.438   2.995   4.896 -0.4386 -0.5961  0.0307
 1792SOL     OW10222   8.030   1.385   6.011 -0.3110 -0.3475  0.0745
 1792SOL    HW110223   8.060   1.311   6.065 -0.3106 -0.7192 -0.4304
 1792SOL    HW210224   7.964   1.428   6.064 -0.9324 -1.2214  0.0253
 1793SOL     OW10225   2.564   0.689   5.244  0.3188 -0.1605  0.5564
 1793SOL    HW110226   2.612   0.670   5.324 -0.4792 -0.6705  0.9212
 1793SOL    HW210227   2.530   0.778   5.256 -0.0448 -0.3451  0.9149
 1794SOL     OW10228   8.798   0.585   4.817  0.1431  0.3792 -0.0748
 1794SOL    HW110229   8.807   0.678   4.797 -0.2850  0.5464  0.4866
 1794SOL    HW210230   8.716   0.579   4.866 -0.8512 -0.5545 -1.7483
 1795SOL     OW10231   1.108   2.859   4.411 -0.1081 -0.5487 -0.5124
 1795SOL    HW110232   1.175   2.891   4.471 -0.9015  1.0786 -0.4222
 1795SOL    HW210233   1.028   2.857   4.463 -0.9104  1.3396 -1.5737
 1796SOL     OW10234   8.170   4.310   5.026 -0.1962  0.7768  0.1892
 1796SOL    HW110235   8.189   4.343   5.114 -1.6607 -1.2026  1.3291
 1796SOL    HW210236   8.210   4.224   5.023 -0.6877  0.5658 -0.8562
 1797SOL     OW10237   0.420   4.666   3.783  0.4926 -0.0718  0.3049
 1797SOL    HW110238   0.328   4.683   3.763  0.6247  0.5491  0.1880
 1797SOL    HW210239   0.426   4.678   3.878  0.5312  0.2962  0.2583
 1798SOL     OW10240   0.186   1.835   3.237  0.2205 -0.1082  0.0501
 1798SOL    HW110241   0.145   1.749   3.234  0.3114 -0.1152 -2.3631
 1798SOL    HW210242   0.118   1.895   3.205  0.0401  0.8211  2.0182
 1799SOL     OW10243   1.586   1.618   7.385 -0.5012  0.6136  0.2133
 1799SOL    HW110244   1.562   1.595   7.295  0.8261 -0.7630  0.1614
 1799SOL    HW210245   1.508   1.660   7.421 -0.9234  1.5722 -1.6984
 1800SOL     OW10246   2.493   9.736   2.442 -0.0320 -0.1492 -0.0547
 1800SOL    HW110247   2.471   9.825   2.470 -0.4063 -0.2012 -0.1793
 1800SOL    HW210248   2.538   9.747   2.359 -0.5993 -0.1055 -0.3648
 1801SOL     OW10249   9.793   0.468   1.067  0.9606 -0.1047 -0.3022
 1801SOL    HW110250   9.741   0.501   1.140 -3.4544  0.5342 -3.3712
 1801SOL    HW210251   9.859   0.536   1.052 -0.2064  1.3830  1.0189
 1802SOL     OW10252   1.120   3.443   3.659 -0.0620 -0.2087  0.1409
 1802SOL    HW110253   1.139   3.430   3.566  0.4645 -0.2773  0.2505
 1802SOL    HW210254   1.176   3.379   3.704 -2.4770 -2.3187  0.3859
 1803SOL     OW10255   1.867   2.519   7.742  0.1864  0.1599 -0.0400
 1803SOL    HW110256   1.897   2.470   7.666  0.2740  0.6014 -0.2903
 1803SOL    HW210257   1.948   2.555   7.780  0.1477 -0.0809  0.2812
 1804SOL     OW10258   1.107   3.594   6.755  0.2034 -0.0617  0.1437
 1804SOL    HW110259   1.148   3.592   6.841 -1.1123 -0.4135  0.7818
 1804SOL    HW210260   1.061   3.510   6.749 -0.7680  0.4878 -0.3635
 1805SOL     OW10261   0.227   3.983   3.184 -0.2329  0.1995 -0.2584
 1805SOL    HW110262   0.135   3.961   3.192 -0.3449  0.7215 -0.1227
 1805SOL    HW210263   0.253   3.947   3.099  0.3857 -3.2679  1.2271
 1806SOL     OW10264   0.934   1.874   6.159 -0.2383 -0.0591 -0.6844
 1806SOL    HW110265   0.970   1.906   6.076  0.2890  0.8694 -0.1262
 1806SOL    HW210266   0.862   1.934   6.179  0.1785  0.2587 -0.0729
 1807SOL     OW10267   0.410   4.082   6.334  0.0533 -0.2523  0.0996
 1807SOL    HW110268   0.463   4.093   6.255 -0.2656  2.5338  0.1796
 1807SOL    HW210269   0.326   4.122   6.311 -0.9028 -1.6418  1.0631
 1808SOL     OW10270   0.718   2.749   3.090 -0.5551  0.1604  0.4480
 1808SOL    HW110271   0.770   2.697   3.151 -0.9360 -1.6812 -0.7005
 1808SOL    HW210272   0.715   2.837   3.128  0.4627 -0.5566  2.2745
 1809SOL     OW10273   9.213   9.141   5.065 -0.3403  0.2734  0.3957
 1809SOL    HW110274   9.141   9.204   5.070 -0.2592  0.4373 -0.4105
 1809SOL    HW210275   9.215   9.114   4.973  0.8462  0.5362  0.3264
 1810SOL     OW10276   2.489   3.338   6.049  0.1819  0.1967  0.2114
 1810SOL    HW110277   2.570   3.292   6.070 -0.5915 -1.1384  0.4137
 1810SOL    HW210278   2.424   3.302   6.110 -0.4526  1.6570  0.4550
 1811SOL     OW10279   9.273   4.215   4.242  0.1289 -0.3791  0.0578
 1811SOL    HW110280   9.340   4.151   4.266  0.0430  0.1236  1.7447
 1811SOL    HW210281   9.323   4.293   4.219  0.1602 -0.2450  0.5649
 1812SOL     OW10282   0.886   0.180   6.057  0.0315  0.5034 -0.1886
 1812SOL    HW110283   0.823   0.108   6.061  1.1469 -0.4222  1.8512
 1812SOL    HW210284   0.917   0.191   6.147  3.8462 -0.0820 -1.2398
 1813SOL     OW10285   9.192   4.255   3.430  0.1802 -0.5522  0.3636
 1813SOL    HW110286   9.100   4.282   3.434  0.2962 -0.1538  0.3230
 1813SOL    HW210287   9.242   4.335   3.446  0.5084 -1.1140  2.3413
 1814SOL     OW10288   0.976   2.754   4.133 -0.9887  0.3691 -0.1911
 1814SOL    HW110289   0.914   2.805   4.185  0.4799  1.4999  0.5227
 1814SOL    HW210290   1.056   2.753   4.185  0.1289  0.3966 -1.8419
 1815SOL     OW10291   2.631   1.594   3.821 -0.1296  0.3938 -0.3064
 1815SOL    HW110292   2.584   1.516   3.794  1.6237 -0.7853 -0.0931
 1815SOL    HW210293   2.723   1.569   3.819  0.4194  2.1415  0.7705
 1816SOL     OW10294   1.703   1.706   5.288  0.4025 -0.0022 -0.4075
 1816SOL    HW110295   1.788   1.692   5.329  0.0290  0.2285  0.4696
 1816SOL    HW210296   1.675   1.618   5.260  1.1111 -0.0202 -1.1098
 1817SOL     OW10297   1.565   0.942   5.510  0.0880 -0.3711  0.1201
 1817SOL    HW110298   1.622   0.949   5.434  0.5225  0.9137  0.5443
 1817SOL    HW210299   1.618   0.897   5.576 -0.0483 -0.8505 -0.0894
 1818SOL     OW10300   0.391   0.580   7.021  0.2816  0.1587 -0.0587
 1818SOL    HW110301   0.327   0.637   7.063  0.8419  1.4876 -0.9238
 1818SOL    HW210302   0.380   0.495   7.064 -0.5759  0.9142  1.2888
 1819SOL     OW10303   1.065   1.545   5.370  0.4393  0.1966 -1.0326
 1819SOL    HW110304   0.990   1.600   5.393 -1.0471 -1.8932 -0.6345
 1819SOL    HW210305   1.064   1.543   5.274 -0.0852  0.1255 -1.0322
 1820SOL     OW10306   2.401   4.851   6.029  0.2433  0.1465 -0.6163
 1820SOL    HW110307   2.421   4.903   6.107 -1.1352  1.5628 -1.1371
 1820SOL    HW210308   2.361   4.771   6.063 -0.9645  1.0355  0.1583
 1821SOL     OW10309   0.461   1.723   3.585  0.3628  0.5451  0.1569
 1821SOL    HW110310   0.420   1.802   3.550  0.7472  0.8598  0.4264
 1821SOL    HW210311   0.405   1.698   3.659  1.7633  2.1192  1.8117
 1822SOL     OW10312   0.295   1.408   5.889  0.2408 -0.4617  0.1356
 1822SOL    HW110313   0.367   1.383   5.831 -0.1224  0.0346 -0.5452
 1822SOL    HW210314   0.335   1.413   5.976  0.6295 -1.9603  0.0645
 1823SOL     OW10315   0.385   3.371   5.120  0.6057 -0.4502  0.4265
 1823SOL    HW110316   0.434   3.289   5.127  0.7255 -0.2603  2.5666
 1823SOL    HW210317   0.294   3.344   5.108  1.0942 -0.8087 -3.9363
 1824SOL     OW10318   1.957   9.249   3.584  0.2936  0.0984  0.5212
 1824SOL    HW110319   2.035   9.283   3.540 -1.5465  3.9580 -0.1187
 1824SOL    HW210320   1.900   9.219   3.513  0.5861 -1.4963  0.9136
 1825SOL     OW10321   0.575   2.150   5.398 -0.1022 -0.0758 -0.0008
 1825SOL    HW110322   0.496   2.152   5.345 -0.7274  1.4947  0.9198
 1825SOL    HW210323   0.543   2.146   5.489  0.7299  2.9510  0.5262
 1826SOL     OW10324   3.030   9.761   5.770  0.1443 -0.3442  0.0581
 1826SOL    HW110325   3.041   9.692   5.704 -0.2186 -1.7841  1.4470
 1826SOL    HW210326   3.112   9.759   5.820 -0.3854 -0.6499  0.9156
 1827SOL     OW10327   1.590   1.783   4.419 -0.4231 -0.0942 -0.4880
 1827SOL    HW110328   1.678   1.757   4.393  0.5133  2.1318  0.1556
 1827SOL    HW210329   1.538   1.704   4.409  1.4104 -1.2305 -1.8795
 1828SOL     OW10330   1.022   9.494   5.596  0.2155 -0.2465  0.7172
 1828SOL    HW110331   1.020   9.583   5.632  2.3804  0.3143 -0.3827
 1828SOL    HW210332   0.938   9.456   5.621 -1.5827  2.7275 -0.2722
 1829SOL     OW10333   2.666   4.378   2.553  0.0514  0.2580  0.2105
 1829SOL    HW110334   2.578   4.340   2.561 -1.0778  2.9379  2.4165
 1829SOL    HW210335   2.677   4.394   2.460 -1.8346 -0.0668 -0.1126
 1830SOL     OW10336   1.004   1.166   6.341  0.2435  0.2381  0.6585
 1830SOL    HW110337   0.975   1.179   6.251  0.7140  0.2194  0.5055
 1830SOL    HW210338   1.017   1.255   6.375 -1.0997  0.2962  1.0973
 1831SOL     OW10339   1.076   2.821   2.872  0.0937  0.1398  0.4236
 1831SOL    HW110340   1.062   2.915   2.876 -0.5890  0.3120 -3.0796
 1831SOL    HW210341   1.143   2.804   2.939  1.1711  3.2856  0.3149
 1832SOL     OW10342   0.904   4.181   4.753  0.4777 -0.1841  0.6873
 1832SOL    HW110343   0.958   4.169   4.831  0.4644 -1.9590  0.4672
 1832SOL    HW210344   0.822   4.217   4.786  1.2650  1.2077  1.1963
 1833SOL     OW10345   2.157   0.608   4.126 -0.6017 -0.1249  0.5404
 1833SOL    HW110346   2.232   0.574   4.174 -1.1935 -1.4918  0.5536
 1833SOL    HW210347   2.102   0.531   4.110 -2.1964  0.8915  0.8850
 1834SOL     OW10348   3.054   4.265   3.847  0.0509 -0.3909 -0.4465
 1834SOL    HW110349   3.099   4.342   3.812 -1.0030  0.1896 -0.5453
 1834SOL    HW210350   2.961   4.284   3.835 -0.2389 -1.3791  0.1710
 1835SOL     OW10351   1.140   2.176   3.900 -0.4045 -0.7740 -0.1656
 1835SOL    HW110352   1.092   2.096   3.878 -0.6311 -1.3402  2.1971
 1835SOL    HW210353   1.183   2.157   3.983  0.9818  0.9837 -0.4191
 1836SOL     OW10354   2.292   0.748   6.467 -0.1858 -0.1448 -0.3021
 1836SOL    HW110355   2.305   0.801   6.546 -1.7806  2.4855 -1.6797
 1836SOL    HW210356   2.206   0.708   6.479 -0.3286  0.0721 -0.5868
 1837SOL     OW10357   1.876   3.020   5.225  1.0367  0.4873 -0.2531
 1837SOL    HW110358   1.943   3.070   5.272  1.2321 -0.8034  0.8991
 1837SOL    HW210359   1.798   3.076   5.230  1.9933  2.0427 -1.6719
 1838SOL     OW10360   0.902   1.275   5.537  0.4920  0.1782  0.3633
 1838SOL    HW110361   0.838   1.293   5.606  1.4584  0.8034  1.1330
 1838SOL    HW210362   0.856   1.296   5.456 -1.2691 -2.2443  0.6070
 1839SOL     OW10363   0.109   2.070   4.380  0.2026 -0.1358  0.5081
 1839SOL    HW110364   0.094   1.986   4.425 -1.7480 -0.4415 -0.5864
 1839SOL    HW210365   0.030   2.083   4.328  1.6563  1.0175 -1.5465
 1840SOL     OW10366   0.995   1.250   5.902  0.2410  0.0459  0.4831
 1840SOL    HW110367   0.939   1.240   5.825 -0.0812 -0.6812  0.8077
 1840SOL    HW210368   0.944   1.215   5.974  0.7053  0.3476  0.9629
 1841SOL     OW10369   9.695   2.281   5.205  0.3949 -0.8618  0.6008
 1841SOL    HW110370   9.628   2.214   5.218 -1.0739  0.6167  1.0140
 1841SOL    HW210371   9.684   2.308   5.113  0.4089 -0.5994  0.6766
 1842SOL     OW10372   0.991   2.486   3.516 -0.2464  0.0435  0.0546
 1842SOL    HW110373   0.939   2.482   3.597 -1.9652 -0.3824 -1.0216
 1842SOL    HW210374   1.079   2.460   3.543 -1.2086 -2.0707  1.4476
 1843SOL     OW10375   3.342   3.716   4.575  0.4927 -0.1951 -0.1816
 1843SOL    HW110376   3.291   3.663   4.515  0.0127 -0.7433  0.6898
 1843SOL    HW210377   3.277   3.756   4.634  1.0222 -0.6419  0.7334
 1844SOL     OW10378   0.713   2.501   4.781  0.0497  0.5964 -0.4951
 1844SOL    HW110379   0.632   2.459   4.812  1.2508 -1.2429  0.3095
 1844SOL    HW210380   0.729   2.572   4.844 -0.9736  1.0610 -0.7323
 1845SOL     OW10381   2.531   1.872   6.480 -0.2230  0.1885 -0.2070
 1845SOL    HW110382   2.497   1.819   6.553 -1.1989 -1.4090 -1.7217
 1845SOL    HW210383   2.456   1.924   6.452 -0.0774  0.2277 -0.5313
 1846SOL     OW10384   0.048   3.730   5.199 -0.0342  0.1113  0.5740
 1846SOL    HW110385   0.002   3.706   5.118  0.4539 -0.2153  0.3888
 1846SOL    HW210386   0.016   3.818   5.219  1.2897  1.0286 -1.0646
 1847SOL     OW10387   0.536   3.661   5.622 -0.4077 -0.2614  0.0494
 1847SOL    HW110388   0.605   3.712   5.665 -0.5171  0.0037 -0.0893
 1847SOL    HW210389   0.547   3.572   5.658  0.4533 -0.3950 -0.4987
 1848SOL     OW10390   4.725   3.159   3.526 -0.2698 -0.2560  0.5132
 1848SOL    HW110391   4.725   3.068   3.496  1.1818 -0.8113  2.0353
 1848SOL    HW210392   4.801   3.165   3.585  0.0779  2.1216 -0.0666
 1849SOL     OW10393   0.422   1.201   2.045 -0.6066  0.0132 -0.4438
 1849SOL    HW110394   0.363   1.274   2.062  0.3643  0.7167 -0.0169
 1849SOL    HW210395   0.471   1.227   1.967  0.3961  0.2496  0.2488
 1850SOL     OW10396   1.002   3.396   5.419 -0.0973  0.3890  0.6048
 1850SOL    HW110397   1.006   3.312   5.374  1.4446  0.4477  0.5746
 1850SOL    HW210398   0.982   3.373   5.510 -0.1505  0.0231  0.5034
 1851SOL     OW10399   2.258   3.937   1.712 -0.0427 -0.2710  0.1779
 1851SOL    HW110400   2.257   3.843   1.693  2.5090 -0.2756 -0.3006
 1851SOL    HW210401   2.202   3.976   1.646 -1.2881 -1.4475  0.4951
 1852SOL     OW10402   1.220   0.355   5.221 -0.2476 -0.5404  0.1636
 1852SOL    HW110403   1.242   0.287   5.285  1.3653 -0.6557 -0.4575
 1852SOL    HW210404   1.130   0.380   5.242 -1.1958 -3.4054 -0.0935
 1853SOL     OW10405   0.332   1.615   6.619 -0.1218 -0.4391 -0.0548
 1853SOL    HW110406   0.340   1.681   6.549 -0.2656  1.2474  1.4483
 1853SOL    HW210407   0.417   1.617   6.663 -0.4026 -0.6561  0.5071
 1854SOL     OW10408   3.243   1.650   4.773  0.5598 -0.2387  0.0092
 1854SOL    HW110409   3.318   1.593   4.789  0.9117  0.1876 -0.1065
 1854SOL    HW210410   3.244   1.712   4.846 -0.0458 -0.5985  0.3431
 1855SOL     OW10411   2.655   3.670   3.114  0.3606 -0.7151 -0.2817
 1855SOL    HW110412   2.562   3.669   3.137  0.8585 -1.7488  1.9858
 1855SOL    HW210413   2.679   3.763   3.115 -0.4843 -0.4914 -0.2283
 1856SOL     OW10414   3.066   3.282   4.517  0.3388  0.6143 -0.2123
 1856SOL    HW110415   2.996   3.265   4.454  0.1313  2.2016 -0.4392
 1856SOL    HW210416   3.144   3.244   4.477  0.0251  0.7647 -0.9885
 1857SOL     OW10417   1.280   3.331   5.317 -0.0773  0.2796  0.2177
 1857SOL    HW110418   1.224   3.320   5.240 -0.3036 -1.2067  0.5663
 1857SOL    HW210419   1.224   3.375   5.381  0.2123  1.8281 -0.5447
 1858SOL     OW10420   9.838   0.031   5.106  0.4238 -0.2083  0.6887
 1858SOL    HW110421   9.881  -0.055   5.102 -1.1177 -1.0075  0.7012
 1858SOL    HW210422   9.820   0.053   5.015 -0.7236 -0.7214  0.7777
 1859SOL     OW10423   0.403   3.341   5.417  0.3557 -0.5614 -0.2357
 1859SOL    HW110424   0.475   3.279   5.408 -0.8604 -1.9144 -1.0622
 1859SOL    HW210425   0.403   3.391   5.336  1.4095  0.6574  0.4783
 1860SOL     OW10426   2.107   3.653   4.363 -0.6666  0.4454  0.0686
 1860SOL    HW110427   2.040   3.672   4.429 -0.4580 -0.9439  0.7038
 1860SOL    HW210428   2.160   3.584   4.402  2.0137  2.4036  0.1910
 1861SOL     OW10429   3.648   1.904   7.179 -0.1740 -0.2390  0.3404
 1861SOL    HW110430   3.735   1.866   7.163  0.8277  2.3839 -1.0645
 1861SOL    HW210431   3.611   1.918   7.092 -0.8732  1.0676  0.8153
 1862SOL     OW10432   1.658   2.731   4.233  0.0475 -0.3507  0.0634
 1862SOL    HW110433   1.649   2.773   4.319  0.9953 -0.2600  0.1329
 1862SOL    HW210434   1.601   2.655   4.237 -0.5726  0.1262  0.4660
 1863SOL     OW10435   0.359   2.041   4.613 -0.2055  0.1383 -0.2723
 1863SOL    HW110436   0.348   1.953   4.650 -0.5361  0.4120  0.3005
 1863SOL    HW210437   0.288   2.092   4.653 -0.0940  0.6319 -0.7019
 1864SOL     OW10438   9.486   5.879   6.194 -0.7319  0.0497  0.4540
 1864SOL    HW110439   9.484   5.907   6.286 -0.6453  1.4952  0.0341
 1864SOL    HW210440   9.395   5.866   6.170 -0.7812  0.0845  0.6233
 1865SOL     OW10441   3.447   2.247   6.028  0.0073  0.0876  0.0461
 1865SOL    HW110442   3.369   2.250   5.974 -0.1862  0.8308  0.3505
 1865SOL    HW210443   3.423   2.192   6.103  0.5890 -1.7789 -1.0621
 1866SOL     OW10444   9.331   4.467   5.945  0.0148 -0.4403  0.2958
 1866SOL    HW110445   9.287   4.472   6.030 -1.0595 -2.1160 -0.1322
 1866SOL    HW210446   9.389   4.391   5.952  0.9004  0.1746 -0.0666
 1867SOL     OW10447   1.933   1.842   3.941  0.1419  0.1424 -0.5614
 1867SOL    HW110448   1.908   1.826   3.850  0.2487 -0.6067 -0.4609
 1867SOL    HW210449   1.920   1.936   3.953 -0.1348  0.1984 -1.2702
 1868SOL     OW10450   0.790   2.555   3.688  0.4801 -0.2038  0.1326
 1868SOL    HW110451   0.788   2.613   3.612  2.8092 -1.9605 -1.4240
 1868SOL    HW210452   0.724   2.488   3.669  0.3002 -0.0412  0.1862
 1869SOL     OW10453   0.683   0.162   2.795 -0.0985 -0.2052  0.3076
 1869SOL    HW110454   0.740   0.115   2.856 -0.8800 -0.5514  0.7988
 1869SOL    HW210455   0.740   0.224   2.752  1.0090 -1.7114 -0.4861
 1870SOL     OW10456   9.426   3.918   5.182 -0.0799 -0.5015 -0.1318
 1870SOL    HW110457   9.375   3.891   5.106  0.6885 -0.6239 -0.6228
 1870SOL    HW210458   9.492   3.977   5.146 -0.5828  0.5740  0.6539
 1871SOL     OW10459   9.534   2.026   5.129  0.4693 -0.3313 -0.4544
 1871SOL    HW110460   9.495   1.963   5.068  1.3584  0.6707 -2.1259
 1871SOL    HW210461   9.628   2.010   5.124  0.5051 -1.3529  1.9928
 1872SOL     OW10462   1.129   2.485   4.978  0.5658  0.1725 -0.5127
 1872SOL    HW110463   1.092   2.563   5.018 -0.0035 -0.7548  0.8381
 1872SOL    HW210464   1.150   2.427   5.052  0.3874 -1.2096 -1.4961
 1873SOL     OW10465   0.012   4.457   2.746 -0.0170  0.1569 -0.4269
 1873SOL    HW110466  -0.005   4.545   2.713  0.5908  0.5070  0.1701
 1873SOL    HW210467   0.059   4.414   2.675  0.0440  0.4440 -0.5618
 1874SOL     OW10468   8.248   1.474   5.516  0.2406  0.2680  0.3332
 1874SOL    HW110469   8.250   1.542   5.583  0.4637  0.9400 -0.3252
 1874SOL    HW210470   8.165   1.488   5.470  0.9269  1.0529 -0.7274
 1875SOL     OW10471   9.732   0.754   5.838 -0.1840  0.2598  0.0680
 1875SOL    HW110472   9.731   0.706   5.921 -1.2773  2.1004  1.2028
 1875SOL    HW210473   9.710   0.844   5.863  0.3920  1.0704 -2.1218
 1876SOL     OW10474   1.437   2.555   4.161 -0.0730  0.2273  0.8965
 1876SOL    HW110475   1.360   2.602   4.129  0.0474 -0.7425 -0.9768
 1876SOL    HW210476   1.405   2.506   4.237 -1.0862  0.4907  0.6645
 1877SOL     OW10477   3.036   3.774   5.971  0.5391  0.1177 -0.2888
 1877SOL    HW110478   3.003   3.785   5.882 -0.4494 -0.7256 -0.0440
 1877SOL    HW210479   3.131   3.769   5.961  0.5065  0.9130 -1.1930
 1878SOL     OW10480   2.656   1.981   4.147 -0.5868  0.0349  0.3298
 1878SOL    HW110481   2.568   2.018   4.142 -1.1662 -1.3257 -0.0354
 1878SOL    HW210482   2.675   1.953   4.057  0.1589  0.1627  0.4412
 1879SOL     OW10483   3.799   2.464   7.176 -0.0658 -0.1530 -0.0515
 1879SOL    HW110484   3.837   2.541   7.219  1.3368 -1.7107  1.6099
 1879SOL    HW210485   3.714   2.495   7.144  0.0046  1.8096  1.4571
 1880SOL     OW10486   0.281   3.458   5.625  0.2468  0.4895  0.4939
 1880SOL    HW110487   0.324   3.424   5.546 -1.3675 -1.0094  0.1929
 1880SOL    HW210488   0.240   3.540   5.596 -0.9031 -0.3746 -0.4796
 1881SOL     OW10489   3.806   1.229   4.638  0.4367  0.2516 -0.2677
 1881SOL    HW110490   3.775   1.255   4.725  0.5770 -0.5680  0.0352
 1881SOL    HW210491   3.840   1.310   4.599 -1.4683  1.0584 -0.3598
 1882SOL     OW10492   3.529   3.443   5.874 -0.6025  0.4594  0.1712
 1882SOL    HW110493   3.501   3.406   5.791  0.3566 -0.7649  0.3694
 1882SOL    HW210494   3.621   3.466   5.861 -0.2745 -0.2772  1.0423
 1883SOL     OW10495   2.915   1.265   5.489  0.4241  0.6166  0.1721
 1883SOL    HW110496   2.980   1.202   5.519  1.2119  1.9920  1.4917
 1883SOL    HW210497   2.854   1.214   5.435  1.7416 -0.9884  0.1426
 1884SOL     OW10498   0.927   2.469   4.183 -0.1580 -0.2343  0.0669
 1884SOL    HW110499   0.924   2.562   4.162  0.9500 -0.3831 -0.7620
 1884SOL    HW210500   0.856   2.430   4.131 -0.2875  0.0539  0.0256
 1885SOL     OW10501   1.729   2.082   3.362 -0.7843 -0.9942 -0.1640
 1885SOL    HW110502   1.690   2.157   3.317  0.5901  1.9360  3.0221
 1885SOL    HW210503   1.800   2.054   3.305  1.4110  3.0421  0.2151
 1886SOL     OW10504   2.317   2.070   5.231 -0.3952 -0.5842  0.3439
 1886SOL    HW110505   2.340   2.150   5.183  0.2411 -0.6044  0.6040
 1886SOL    HW210506   2.244   2.096   5.287 -1.8256 -0.8038 -1.3126
 1887SOL     OW10507   1.682   2.313   5.949 -0.2679  0.6248 -0.4471
 1887SOL    HW110508   1.624   2.263   6.006  0.2919  1.0372  0.5131
 1887SOL    HW210509   1.624   2.374   5.904 -0.6938  0.4406 -0.1567
 1888SOL     OW10510   0.792   5.555   4.165 -0.8117 -0.6196  0.3653
 1888SOL    HW110511   0.851   5.481   4.177 -0.1044 -0.3547 -1.1935
 1888SOL    HW210512   0.704   5.519   4.177 -0.5468 -1.9874 -1.4757
 1889SOL     OW10513   0.913   2.706   5.284 -0.3796  0.2363 -0.1129
 1889SOL    HW110514   0.901   2.617   5.252 -0.8626  0.3794 -0.3339
 1889SOL    HW210515   0.959   2.751   5.213 -2.1106  0.7542 -0.9466
 1890SOL     OW10516   3.164   3.002   4.244 -0.5775 -0.2089  0.2085
 1890SOL    HW110517   3.115   2.960   4.315  0.4779 -0.5627  0.7684
 1890SOL    HW210518   3.198   3.082   4.284 -0.8705  0.1306 -0.2279
 1891SOL     OW10519   9.701   3.389   6.690 -0.7001  0.1952  0.7682
 1891SOL    HW110520   9.728   3.301   6.666  2.4463  1.0499  0.7082
 1891SOL    HW210521   9.671   3.382   6.781 -1.3650 -1.0284  0.4776
 1892SOL     OW10522   0.950   5.266   4.730  0.0385  0.7373 -0.2380
 1892SOL    HW110523   0.913   5.248   4.817  1.4137  0.7440  0.3755
 1892SOL    HW210524   0.898   5.214   4.670 -0.5967  0.3141  0.6653
 1893SOL     OW10525   3.680   4.326   4.845 -0.0082 -0.0453 -0.0777
 1893SOL    HW110526   3.609   4.302   4.905 -0.1685  0.3530 -0.1032
 1893SOL    HW210527   3.754   4.271   4.871 -0.4247 -0.7168 -0.2726
 1894SOL     OW10528   0.701   2.952   3.372 -0.0205  0.4895 -0.7215
 1894SOL    HW110529   0.684   3.045   3.365 -0.0244  0.5716  0.1688
 1894SOL    HW210530   0.763   2.944   3.445 -0.4859 -0.2401 -0.3806
 1895SOL     OW10531   3.060   1.743   4.994  0.3315  0.3451 -0.5722
 1895SOL    HW110532   3.054   1.730   5.088  0.2447 -0.4784 -0.6838
 1895SOL    HW210533   2.979   1.704   4.959 -0.3257  1.9083 -0.8696
 1896SOL     OW10534   4.093   4.885   1.891  0.0626 -0.2754 -0.7879
 1896SOL    HW110535   4.107   4.793   1.912  0.0471 -0.3024 -0.8932
 1896SOL    HW210536   4.120   4.893   1.799 -0.0256 -0.1960 -0.8070
 1897SOL     OW10537   1.423   2.793   5.858  0.5502 -0.2307  0.0620
 1897SOL    HW110538   1.378   2.709   5.850  0.1070  0.0517 -0.4616
 1897SOL    HW210539   1.357   2.853   5.892  0.9539 -0.1644  0.7343
 1898SOL     OW10540   9.579   4.279   3.531  0.3208 -0.2831 -0.0974
 1898SOL    HW110541   9.597   4.337   3.457 -1.0434  0.1798 -0.1061
 1898SOL    HW210542   9.563   4.339   3.604 -1.1129 -0.6163 -0.1099
 1899SOL     OW10543   9.696   2.213   3.800 -0.2095 -0.0599  0.2401
 1899SOL    HW110544   9.700   2.142   3.865 -0.9507 -0.0403  0.3120
 1899SOL    HW210545   9.752   2.182   3.728 -1.1747 -1.0934 -0.0910
 1900SOL     OW10546   2.636   4.390   3.349  0.0143  0.1163 -0.2043
 1900SOL    HW110547   2.554   4.415   3.307 -0.4631  0.3394  0.8256
 1900SOL    HW210548   2.617   4.306   3.391  0.1347  0.4504  0.5243
 1901SOL     OW10549   1.151   4.393   1.095  0.5027 -0.1324 -0.1791
 1901SOL    HW110550   1.091   4.410   1.167  1.6840  0.2714  0.7329
 1901SOL    HW210551   1.097   4.351   1.028 -1.0081  1.1307  0.2058
 1902SOL     OW10552   2.980   3.413   2.200  0.2237  0.1017  0.1883
 1902SOL    HW110553   2.947   3.418   2.110 -1.0681  0.4331  0.6594
 1902SOL    HW210554   3.057   3.470   2.200  0.6348 -0.4256 -0.8593
 1903SOL     OW10555   1.300   2.989   6.228 -0.0668 -0.4951  0.2895
 1903SOL    HW110556   1.268   2.958   6.143  0.0346 -0.3307  0.1917
 1903SOL    HW210557   1.221   3.021   6.273 -0.5760 -2.8108  1.2497
 1904SOL     OW10558   2.461   2.409   3.572 -0.1407 -0.5216 -0.6931
 1904SOL    HW110559   2.413   2.413   3.655  0.3068  1.3459 -0.4732
 1904SOL    HW210560   2.408   2.463   3.512  1.3538  1.1729 -0.5786
 1905SOL     OW10561   1.145   1.618   2.210 -0.2911 -0.8217  0.3963
 1905SOL    HW110562   1.218   1.669   2.175 -0.4563 -1.3015 -0.6986
 1905SOL    HW210563   1.094   1.593   2.133 -1.0000 -1.4285  1.0395
 1906SOL     OW10564   0.457   3.453   6.456 -0.2486  0.2651  0.8543
 1906SOL    HW110565   0.385   3.515   6.448 -0.4607 -0.0351  0.3368
 1906SOL    HW210566   0.420   3.379   6.505 -1.4653 -1.5322 -2.4671
 1907SOL     OW10567   9.093   0.813   5.327  0.4922 -0.1256  0.5633
 1907SOL    HW110568   9.027   0.881   5.337  2.3507  1.5164  2.8761
 1907SOL    HW210569   9.091   0.765   5.410 -0.3353 -2.6027 -0.7738
 1908SOL     OW10570   0.549   1.808   5.789  0.1902  0.6972 -0.0231
 1908SOL    HW110571   0.459   1.828   5.813  0.0227  0.9697 -0.8500
 1908SOL    HW210572   0.577   1.744   5.854 -0.3677  1.1197  0.6526
 1909SOL     OW10573   1.432   1.665   6.313 -0.5397  0.0403  0.5801
 1909SOL    HW110574   1.427   1.718   6.233 -0.4003  1.8693  1.7381
 1909SOL    HW210575   1.510   1.611   6.301 -1.0288 -0.4058 -0.8931
 1910SOL     OW10576   9.579   2.813   6.301 -0.4336  0.0673 -0.2751
 1910SOL    HW110577   9.656   2.841   6.351 -0.1249  0.9886 -1.2345
 1910SOL    HW210578   9.571   2.719   6.320  2.1657 -0.5666 -1.7162
 1911SOL     OW10579   1.551   4.063   4.257  0.1539 -0.0357 -0.2167
 1911SOL    HW110580   1.494   4.139   4.245  1.2150  0.8947  0.4330
 1911SOL    HW210581   1.599   4.081   4.338  3.1536  0.4300 -1.9489
 1912SOL     OW10582   0.384   1.653   4.312  0.3237  0.1271 -0.1609
 1912SOL    HW110583   0.425   1.622   4.392 -2.2970  1.9513  2.0855
 1912SOL    HW210584   0.457   1.682   4.257  2.2302 -1.4244  1.4290
 1913SOL     OW10585   2.784   1.628   5.944  0.1617 -0.0236 -0.4888
 1913SOL    HW110586   2.827   1.547   5.917 -1.3873 -0.8820 -0.4825
 1913SOL    HW210587   2.774   1.620   6.038 -3.2754 -1.6139 -0.8281
 1914SOL     OW10588   0.654   1.029   4.242 -0.5891 -0.4473 -0.7177
 1914SOL    HW110589   0.680   0.957   4.184  0.0769 -0.3728 -0.5112
 1914SOL    HW210590   0.565   1.050   4.214 -0.7059 -1.1981 -0.9327
 1915SOL     OW10591   0.660   4.622   5.677  0.6145  0.1205  0.4583
 1915SOL    HW110592   0.731   4.635   5.615 -0.2949 -3.0646 -1.4904
 1915SOL    HW210593   0.580   4.636   5.626 -0.2553  1.9578  2.1588
 1916SOL     OW10594   4.050   2.715   3.094 -0.4691  0.1396 -0.1933
 1916SOL    HW110595   4.007   2.798   3.110  1.4484  0.9757  1.0007
 1916SOL    HW210596   4.071   2.716   3.001  0.5736  1.5543  0.0294
 1917SOL     OW10597   3.935   2.668   6.390 -0.5653  0.4807  0.1976
 1917SOL    HW110598   3.845   2.694   6.370 -1.2568 -0.5548  1.7869
 1917SOL    HW210599   3.941   2.577   6.362 -0.6250 -0.0511  1.8457
 1918SOL     OW10600   0.403   5.295   4.736 -0.3612  0.2723  0.1612
 1918SOL    HW110601   0.428   5.221   4.680 -0.5190 -0.4983  1.0947
 1918SOL    HW210602   0.427   5.268   4.824 -1.4879  0.8558  0.6717
 1919SOL     OW10603   0.922   2.283   4.807  0.1655 -0.1830  0.3438
 1919SOL    HW110604   0.903   2.374   4.785 -1.2001 -0.4357  0.4322
 1919SOL    HW210605   0.866   2.231   4.749  3.1534 -1.1232 -2.0175
 1920SOL     OW10606   1.044   1.812   5.543 -0.7972  0.1382  0.4050
 1920SOL    HW110607   0.955   1.795   5.575 -0.3228 -1.3019  1.0200
 1920SOL    HW210608   1.047   1.769   5.457 -0.6273  0.0128  0.4742
 1921SOL     OW10609   0.107   1.589   5.350  0.4778  0.9488  0.0853
 1921SOL    HW110610   0.043   1.518   5.342  0.7997  0.7993 -1.4862
 1921SOL    HW210611   0.071   1.646   5.418  0.5384 -1.0266  1.8535
 1922SOL     OW10612   9.743   2.123   5.911  0.0951  0.5132 -0.0150
 1922SOL    HW110613   9.692   2.083   5.840 -0.5419 -0.0165  0.7244
 1922SOL    HW210614   9.834   2.115   5.882 -0.1687  0.6526 -0.9444
 1923SOL     OW10615   0.973   1.730   5.856  0.2137 -0.0195  0.1349
 1923SOL    HW110616   1.024   1.809   5.875  0.6669 -0.5142  1.0618
 1923SOL    HW210617   0.885   1.750   5.886 -0.0502  0.6746 -1.0509
 1924SOL     OW10618   0.799   5.273   3.679 -0.7981 -0.3693  0.2051
 1924SOL    HW110619   0.841   5.349   3.637  0.5286 -0.0486  2.0142
 1924SOL    HW210620   0.872   5.219   3.708 -1.7169 -2.5055 -1.1993
 1925SOL     OW10621   9.437   2.557   4.028  0.0119  0.5283 -0.3556
 1925SOL    HW110622   9.361   2.612   4.045 -1.4771 -1.5365  0.0534
 1925SOL    HW210623   9.459   2.519   4.113  0.1702 -0.4803 -0.8269
 1926SOL     OW10624   4.442   2.203   3.879 -0.2867  0.2394  0.4936
 1926SOL    HW110625   4.429   2.200   3.784 -1.6161  0.2534  0.6511
 1926SOL    HW210626   4.412   2.118   3.910 -0.3554  0.4240  0.9415
 1927SOL     OW10627   9.780   3.943   5.632 -0.2935  0.0724 -0.3561
 1927SOL    HW110628   9.864   3.931   5.586 -0.2067 -1.9398  0.2387
 1927SOL    HW210629   9.714   3.918   5.568 -0.4992  1.7285 -0.8484
 1928SOL     OW10630   8.828   2.005   2.646 -0.3431 -0.9254  0.2787
 1928SOL    HW110631   8.880   1.930   2.615  0.9441  0.2709 -0.5605
 1928SOL    HW210632   8.860   2.021   2.735 -2.0398 -2.5778  1.2593
 1929SOL     OW10633   0.370   5.292   3.198  0.0888 -0.2047  0.2504
 1929SOL    HW110634   0.376   5.199   3.217  2.3897 -0.0837  0.4898
 1929SOL    HW210635   0.412   5.335   3.272 -2.9051  1.2521  1.2521
 1930SOL     OW10636   1.282   1.709   4.656  0.5463  0.1868  0.0485
 1930SOL    HW110637   1.250   1.780   4.599 -0.6270  1.0058  1.6493
 1930SOL    HW210638   1.315   1.643   4.595 -0.7075  0.9908 -1.5875
 1931SOL     OW10639   0.177   1.186   5.724  0.2317 -0.1235  0.0494
 1931SOL    HW110640   0.223   1.174   5.641  1.6235 -0.3798  0.8263
 1931SOL    HW210641   0.159   1.280   5.729 -1.9967 -0.3895 -1.5921
 1932SOL     OW10642   1.046   1.001   3.942 -0.4272 -0.2407  0.1703
 1932SOL    HW110643   0.963   0.983   3.986  0.0193 -0.9973  0.7304
 1932SOL    HW210644   1.063   0.923   3.889  1.3057 -1.3913  2.2701
 1933SOL     OW10645   0.729   1.598   7.493  0.6531  0.4484 -0.0931
 1933SOL    HW110646   0.708   1.573   7.403  2.4490  0.2618 -0.4798
 1933SOL    HW210647   0.823   1.586   7.500  0.7449  1.7948  1.3989
 1934SOL     OW10648   9.624   8.802   7.176  0.1261 -0.7957  0.1362
 1934SOL    HW110649   9.584   8.783   7.091  1.8067 -1.8418 -0.4618
 1934SOL    HW210650   9.627   8.898   7.179 -0.0718 -0.7357 -0.9382
 1935SOL     OW10651   3.592   1.258   5.231 -0.1996  0.5639  0.4936
 1935SOL    HW110652   3.654   1.316   5.276 -0.7634  2.3857 -0.9579
 1935SOL    HW210653   3.627   1.252   5.141  0.4969 -2.3742  0.8756
 1936SOL     OW10654   1.350   2.796   2.909 -1.1265 -0.0607  0.3724
 1936SOL    HW110655   1.335   2.723   2.849 -2.3431 -0.2127  0.8340
 1936SOL    HW210656   1.383   2.867   2.854  0.0626 -0.9316 -0.0869
 1937SOL     OW10657   0.749   1.928   5.963 -0.2864  0.3100  0.1511
 1937SOL    HW110658   0.684   1.921   5.893  1.0554 -3.0783 -0.9565
 1937SOL    HW210659   0.828   1.962   5.920 -0.2279  0.8383  0.6600
 1938SOL     OW10660   2.249   2.132   2.143  0.6407 -0.9350  0.0783
 1938SOL    HW110661   2.295   2.049   2.133  1.5362 -0.5885  1.0609
 1938SOL    HW210662   2.299   2.195   2.091  0.0485 -0.9684 -0.5472
 1939SOL     OW10663   1.024   3.927   4.673 -0.4410  0.0397  0.1026
 1939SOL    HW110664   0.981   4.010   4.651 -0.3859  0.1746  0.4936
 1939SOL    HW210665   0.999   3.910   4.763 -0.6251 -0.4840 -0.0470
 1940SOL     OW10666   2.242   2.176   4.860 -0.2715 -0.5937 -0.4428
 1940SOL    HW110667   2.311   2.116   4.888  0.8056  1.2764  1.1759
 1940SOL    HW210668   2.185   2.185   4.936  0.3299  1.3706 -0.1515
 1941SOL     OW10669   9.509   4.654   9.349  0.3762  1.0246 -0.6895
 1941SOL    HW110670   9.565   4.580   9.374  1.7825  1.2450 -2.8903
 1941SOL    HW210671   9.421   4.627   9.375  1.0746 -0.6775  0.0929
 1942SOL     OW10672   9.810   3.780   4.403  0.2879 -0.1820 -0.0565
 1942SOL    HW110673   9.833   3.846   4.337 -0.5144  0.3299  0.1615
 1942SOL    HW210674   9.715   3.786   4.411  0.3708 -0.2666  1.1187
 1943SOL     OW10675   0.699   3.475   7.202  0.3694 -0.2453 -0.0989
 1943SOL    HW110676   0.610   3.490   7.235  0.0938 -0.6764 -0.6330
 1943SOL    HW210677   0.752   3.542   7.245 -0.1844 -0.0877  0.3503
 1944SOL     OW10678   0.759   2.537   6.013  0.2539  0.0619  0.4849
 1944SOL    HW110679   0.710   2.605   5.966  0.6268 -0.2040 -0.3107
 1944SOL    HW210680   0.779   2.576   6.098  0.6430  1.0434 -0.0322
 1945SOL     OW10681   9.780   1.811   6.867 -0.3246  0.1148 -0.0475
 1945SOL    HW110682   9.868   1.791   6.833 -0.0281  0.4966  0.4846
 1945SOL    HW210683   9.783   1.905   6.887 -1.3324  0.4739 -1.4149
 1946SOL     OW10684   0.283   2.438   6.615 -0.1959  0.5333  0.0920
 1946SOL    HW110685   0.274   2.344   6.598 -2.0526  0.9443 -1.5203
 1946SOL    HW210686   0.281   2.445   6.711 -0.8569 -1.0115  0.2172
 1947SOL     OW10687   2.013   0.717   7.632  0.3972 -0.4787 -0.7208
 1947SOL    HW110688   1.955   0.656   7.678  0.7788 -0.6076 -0.4085
 1947SOL    HW210689   1.960   0.749   7.559 -0.4285  0.1689  0.1278
 1948SOL     OW10690   1.590   1.787   7.985  0.1088 -0.1033  0.3044
 1948SOL    HW110691   1.504   1.752   8.010 -1.5626  2.0143 -2.0337
 1948SOL    HW210692   1.588   1.790   7.890  3.2778 -0.9613  0.0958
 1949SOL     OW10693   0.275   1.526   8.339  0.0743  0.6517  0.1462
 1949SOL    HW110694   0.304   1.587   8.273  1.6286  0.2065  0.3701
 1949SOL    HW210695   0.257   1.445   8.291  1.2046  0.3276  0.2261
 1950SOL     OW10696   9.158   4.571   7.359  0.0120  0.1943  0.0257
 1950SOL    HW110697   9.112   4.618   7.428  1.6312  1.8816  0.0415
 1950SOL    HW210698   9.141   4.623   7.280 -0.2204 -0.6159 -0.4639
 1951SOL     OW10699   0.439   3.494   8.262  0.1858  0.1492  0.1539
 1951SOL    HW110700   0.501   3.452   8.322  0.5663 -0.3189 -0.5606
 1951SOL    HW210701   0.445   3.587   8.284  0.6929  0.0400  0.5119
 1952SOL     OW10702   0.706   1.879   7.216 -0.3366 -0.3477 -0.0721
 1952SOL    HW110703   0.728   1.825   7.140 -0.0257  0.7172 -0.7569
 1952SOL    HW210704   0.614   1.900   7.205 -0.4931 -0.8293  0.2663
 1953SOL     OW10705   0.010   1.082   6.917 -0.0205 -0.1938 -0.1656
 1953SOL    HW110706   0.063   1.040   6.984  2.5610  2.6558 -0.2013
 1953SOL    HW210707   0.054   1.062   6.835 -1.0116 -0.6026 -0.6110
 1954SOL     OW10708   7.802   3.423   6.139  0.2111 -0.0753 -0.3379
 1954SOL    HW110709   7.771   3.473   6.064 -3.0008 -1.5997 -0.2176
 1954SOL    HW210710   7.898   3.424   6.131  0.0555  0.9688 -3.6373
 1955SOL     OW10711   2.320   3.358   5.629 -0.2318 -0.0601  0.2963
 1955SOL    HW110712   2.296   3.276   5.586 -1.3281 -0.0534  0.8597
 1955SOL    HW210713   2.349   3.415   5.558 -1.5979 -0.1932 -0.3958
 1956SOL     OW10714   0.741   4.012   5.409 -1.2498  0.0041  0.0476
 1956SOL    HW110715   0.724   4.090   5.357  2.8993  2.2804  1.5970
 1956SOL    HW210716   0.767   3.946   5.345 -0.9425  1.2216 -1.1239
 1957SOL     OW10717   0.708   1.907   7.498 -0.6219 -0.3082  0.0908
 1957SOL    HW110718   0.794   1.870   7.515  0.1276  1.0823 -0.5420
 1957SOL    HW210719   0.694   1.894   7.404 -0.4643  0.7203 -0.0902
 1958SOL     OW10720   0.668   1.923   5.283 -0.2348 -0.2482  0.3737
 1958SOL    HW110721   0.613   1.970   5.346 -0.3423 -0.5395  0.4988
 1958SOL    HW210722   0.717   1.992   5.238 -0.4368 -0.0114  0.5120
 1959SOL     OW10723   0.926   2.950   7.520 -0.5363 -0.2617  0.0142
 1959SOL    HW110724   0.888   2.896   7.590  0.5072 -1.1836 -0.0918
 1959SOL    HW210725   0.852   2.998   7.484 -1.2257 -0.3468  1.2423
 1960SOL     OW10726   1.175   3.671   6.490  0.1737 -0.0002 -0.8943
 1960SOL    HW110727   1.182   3.642   6.581  0.4100  0.3036 -0.8145
 1960SOL    HW210728   1.116   3.608   6.449 -0.7268  0.4343 -0.2936
 1961SOL     OW10729   0.755   3.500   5.874  0.4105 -0.2737  0.1140
 1961SOL    HW110730   0.795   3.476   5.791 -0.7623  3.8301 -1.9042
 1961SOL    HW210731   0.662   3.481   5.863  0.1073  1.1187  0.0506
 1962SOL     OW10732   2.252   1.320   8.523 -0.4627 -0.1615  0.1247
 1962SOL    HW110733   2.278   1.319   8.616 -0.8074 -0.3759  0.2224
 1962SOL    HW210734   2.158   1.339   8.525 -0.8583 -1.9359 -0.0782
 1963SOL     OW10735   1.667   2.639   4.981  0.3305 -0.3024  0.1592
 1963SOL    HW110736   1.676   2.703   5.052  1.4166 -0.0722 -0.1664
 1963SOL    HW210737   1.670   2.691   4.901  0.5181 -0.6878 -0.0881
 1964SOL     OW10738   9.207   0.632   6.107 -0.1006 -0.0897 -0.2226
 1964SOL    HW110739   9.262   0.603   6.180 -0.9348 -2.0612 -0.3226
 1964SOL    HW210740   9.255   0.606   6.028  0.3880  1.2543 -0.3913
 1965SOL     OW10741   2.203   3.608   6.126  0.2498  0.1048  0.1680
 1965SOL    HW110742   2.240   3.564   6.050 -1.6228  1.0278 -1.3636
 1965SOL    HW210743   2.118   3.564   6.140  0.9758 -0.7549  2.4356
 1966SOL     OW10744   1.041   0.658   5.642 -0.2727  0.0436  0.2090
 1966SOL    HW110745   0.963   0.676   5.590  1.1564 -1.0089 -2.4972
 1966SOL    HW210746   1.023   0.576   5.687 -0.3829 -0.6971 -1.1729
 1967SOL     OW10747   1.577   2.467   7.686 -0.1114  0.5373  0.3279
 1967SOL    HW110748   1.584   2.463   7.591 -1.1464 -0.7567  0.2819
 1967SOL    HW210749   1.664   2.494   7.715 -0.3244  3.0578 -1.0492
 1968SOL     OW10750   0.125   3.543   7.290 -0.0279 -0.0342  0.6021
 1968SOL    HW110751   0.050   3.588   7.330 -0.0099  0.5576 -0.0135
 1968SOL    HW210752   0.197   3.561   7.350 -0.1120  0.4260  0.5713
 1969SOL     OW10753   9.420   1.351   7.370  0.2074 -0.1095 -0.0292
 1969SOL    HW110754   9.375   1.368   7.453  0.0381 -1.1271  0.1052
 1969SOL    HW210755   9.408   1.431   7.319 -1.0571 -0.0429  0.3312
 1970SOL     OW10756   2.440   3.746   7.147  0.4242  0.4542  0.3364
 1970SOL    HW110757   2.405   3.705   7.068 -1.6092  1.0347  0.8806
 1970SOL    HW210758   2.441   3.839   7.127  1.2746  0.4876  0.5032
 1971SOL     OW10759   1.050   1.875   5.250 -0.4264 -0.5906 -0.6025
 1971SOL    HW110760   1.002   1.877   5.167  0.6133  2.0374 -1.2357
 1971SOL    HW210761   1.062   1.967   5.273  4.8948 -0.9048 -0.9021
 1972SOL     OW10762   0.854   0.729   6.462  0.1390  0.4770  0.3728
 1972SOL    HW110763   0.884   0.651   6.508  0.1418  0.1036 -0.2554
 1972SOL    HW210764   0.816   0.785   6.531  2.1447  0.9205  1.1756
 1973SOL     OW10765   1.299   2.495   6.044  0.1533  0.2158 -0.5435
 1973SOL    HW110766   1.209   2.496   6.077  0.3537 -2.1491  0.2825
 1973SOL    HW210767   1.290   2.502   5.949 -0.7081  2.4332 -0.3545
 1974SOL     OW10768   9.451   0.838   8.141 -0.4616  0.3466  0.0726
 1974SOL    HW110769   9.501   0.792   8.073 -1.7962 -0.6555 -0.2843
 1974SOL    HW210770   9.507   0.911   8.167  0.6483 -0.0213 -1.1637
 1975SOL     OW10771   2.175   2.945   6.505  0.3546  0.3328  0.2855
 1975SOL    HW110772   2.229   2.950   6.583  0.6447  1.3354  0.0360
 1975SOL    HW210773   2.236   2.926   6.434  0.3599  1.1783  0.0477
 1976SOL     OW10774   0.808   2.856   6.856  0.1185 -0.5311  0.1581
 1976SOL    HW110775   0.786   2.925   6.794 -0.5714 -0.4928  0.4299
 1976SOL    HW210776   0.900   2.835   6.838  0.0996 -0.1063 -0.4632
 1977SOL     OW10777   9.728   3.180   8.043 -0.2410  0.5494  0.5138
 1977SOL    HW110778   9.750   3.124   8.118  0.1207 -0.6349 -0.4425
 1977SOL    HW210779   9.680   3.123   7.983  2.4082  0.4106 -1.6966
 1978SOL     OW10780   0.614   2.161   4.697  0.3547  0.2784  0.2279
 1978SOL    HW110781   0.583   2.181   4.785  0.9949  2.2268  0.0438
 1978SOL    HW210782   0.548   2.101   4.662  0.7808 -1.7114  2.4737
 1979SOL     OW10783   7.332   3.033   7.817 -0.0814 -0.2550  0.2558
 1979SOL    HW110784   7.265   2.965   7.819  0.9828 -1.3333  0.2954
 1979SOL    HW210785   7.398   3.004   7.881 -0.1520  1.4030  1.1255
 1980SOL     OW10786   8.974   2.057   0.377  0.1561 -0.3096  0.2837
 1980SOL    HW110787   8.978   1.970   0.338 -0.1554  0.2606 -1.0762
 1980SOL    HW210788   9.065   2.087   0.380  0.5570 -1.4690  2.7508
 1981SOL     OW10789   9.797   1.171   5.406  0.5381 -0.3248 -0.2188
 1981SOL    HW110790   9.843   1.109   5.351 -2.4690 -3.3977  0.4077
 1981SOL    HW210791   9.712   1.183   5.364 -2.0262 -3.0669  3.5812
 1982SOL     OW10792   1.123   1.126   8.799  0.2009  0.0254  0.0033
 1982SOL    HW110793   1.162   1.213   8.788 -0.9784  0.4259 -1.1757
 1982SOL    HW210794   1.032   1.142   8.821 -0.2134 -0.9113 -0.9378
 1983SOL     OW10795   0.828   2.056   7.922 -0.6737 -0.4104  0.3104
 1983SOL    HW110796   0.885   2.128   7.898 -1.8513  0.5170  0.1786
 1983SOL    HW210797   0.875   1.977   7.895  0.1542  0.3582 -0.5431
 1984SOL     OW10798   1.687   2.316   6.798 -0.1883  0.1112 -0.3252
 1984SOL    HW110799   1.761   2.358   6.754 -0.3131  1.2561  0.5122
 1984SOL    HW210800   1.725   2.278   6.877 -0.6503  1.6778  0.6877
 1985SOL     OW10801   9.168   2.547   4.059  0.4370  0.1757 -0.5846
 1985SOL    HW110802   9.197   2.457   4.043 -1.6628 -0.6872  0.1796
 1985SOL    HW210803   9.165   2.587   3.972 -1.0593 -1.2988 -1.2664
 1986SOL     OW10804   2.387   2.959   6.660 -0.4573 -0.4049  0.6787
 1986SOL    HW110805   2.458   3.021   6.646  0.3100 -1.4827 -0.4487
 1986SOL    HW210806   2.351   2.982   6.746  0.7746  0.6171  0.9527
 1987SOL     OW10807   0.666   3.054   7.417 -0.4567  0.4025 -0.5788
 1987SOL    HW110808   0.574   3.065   7.441 -0.8325 -2.2003 -0.5814
 1987SOL    HW210809   0.669   3.075   7.324 -1.9776 -3.2244 -1.6408
 1988SOL     OW10810   8.510   1.945   7.452  0.4841  0.1288  0.0783
 1988SOL    HW110811   8.594   1.933   7.496 -1.2748 -0.3443  3.6187
 1988SOL    HW210812   8.473   1.857   7.447 -0.4807  0.5242  0.0477
 1989SOL     OW10813   1.320   3.633   5.543  0.0724  0.5827  0.4309
 1989SOL    HW110814   1.328   3.664   5.633  0.2453 -0.1972  0.6938
 1989SOL    HW210815   1.296   3.541   5.551  1.7162  0.0511 -0.2800
 1990SOL     OW10816   8.136   3.863   4.432 -0.6287  0.1265  0.4752
 1990SOL    HW110817   8.221   3.846   4.473 -0.0126 -0.0350 -0.8202
 1990SOL    HW210818   8.078   3.886   4.505  0.2069 -0.9805  1.5277
 1991SOL     OW10819   2.511   3.151   6.449  0.2976  0.3369  0.1398
 1991SOL    HW110820   2.541   3.061   6.456  0.2328  0.3238  0.2548
 1991SOL    HW210821   2.490   3.162   6.356  0.6113  0.3332  0.0680
 1992SOL     OW10822   2.152   2.212   7.170  0.2552 -0.0170 -0.0969
 1992SOL    HW110823   2.071   2.163   7.159  0.0001  0.1151  1.0629
 1992SOL    HW210824   2.218   2.144   7.188  0.5055 -0.1596 -1.4514
 1993SOL     OW10825   3.208   2.577   6.117 -0.6075 -0.2707 -0.0712
 1993SOL    HW110826   3.162   2.495   6.098 -1.0000  0.0798 -0.6480
 1993SOL    HW210827   3.180   2.599   6.206 -2.6785  0.6396 -0.8766
 1994SOL     OW10828   0.469   1.375   5.699 -0.4325 -0.4197  0.3683
 1994SOL    HW110829   0.561   1.381   5.725 -0.9976 -0.8342  2.6733
 1994SOL    HW210830   0.456   1.282   5.677  0.4906  0.2179 -3.5510
 1995SOL     OW10831   1.594   2.191   8.643  0.0018 -0.1214 -0.2515
 1995SOL    HW110832   1.542   2.154   8.715  0.3950  0.4473  0.3478
 1995SOL    HW210833   1.557   2.279   8.631  2.2595  1.2303  1.7979
 1996SOL     OW10834   9.791   2.089   6.892  0.6575  0.3787  0.4630
 1996SOL    HW110835   9.795   2.113   6.799  0.3833 -1.0011  0.0753
 1996SOL    HW210836   9.720   2.144   6.927 -0.0006  0.1218 -0.4039
 1997SOL     OW10837   0.904   9.464   0.051  0.1789  0.2562 -0.1368
 1997SOL    HW110838   0.887   9.458   0.145  0.8485 -0.3976 -0.0438
 1997SOL    HW210839   0.835   9.521   0.018 -0.4868 -0.0697  0.6410
 1998SOL     OW10840   0.263   2.803   8.888 -0.1838  0.0131  0.6057
 1998SOL    HW110841   0.320   2.734   8.924  0.0465  1.1703  2.6349
 1998SOL    HW210842   0.312   2.839   8.814  1.0165 -0.0842  1.3242
 1999SOL     OW10843   0.029   2.475   5.982 -0.6613  0.5194  1.0934
 1999SOL    HW110844   0.035   2.514   5.894  0.6407 -1.4048  0.2748
 1999SOL    HW210845  -0.050   2.421   5.978  0.2617 -0.8311  0.5317
 2000SOL     OW10846   9.446   9.739   5.515 -0.0028  0.2519  0.5492
 2000SOL    HW110847   9.452   9.754   5.609  1.3080  1.7169  0.2801
 2000SOL    HW210848   9.534   9.710   5.490 -0.2406  0.2280 -0.2765
 2001SOL     OW10849   0.333   3.082   5.968  0.3087  0.2986 -0.4068
 2001SOL    HW110850   0.359   3.168   6.000  0.8595 -0.3746  1.0440
 2001SOL    HW210851   0.398   3.060   5.902  0.0593  1.0547 -0.9215
 2002SOL     OW10852   1.246   0.652   4.152 -0.2291 -0.1094  0.1019
 2002SOL    HW110853   1.184   0.579   4.149 -0.2587 -0.0590 -2.0204
 2002SOL    HW210854   1.331   0.611   4.169 -0.6860 -0.2466  2.3279
 2003SOL     OW10855   1.023   1.421   5.090  0.0543 -0.5384 -0.6199
 2003SOL    HW110856   0.932   1.447   5.072  0.5921  0.2464 -2.3139
 2003SOL    HW210857   1.049   1.369   5.014  0.9041 -1.1296  0.0553
 2004SOL     OW10858   9.783   2.277   8.534  0.0110 -0.3369  0.1888
 2004SOL    HW110859   9.713   2.262   8.469 -0.0715 -0.5600  0.3289
 2004SOL    HW210860   9.736   2.289   8.616  0.0320  1.1943  0.0172
 2005SOL     OW10861   1.235   3.609   7.293  0.0369 -0.1883  0.3713
 2005SOL    HW110862   1.254   3.605   7.387  0.8831  0.1473  0.2164
 2005SOL    HW210863   1.319   3.595   7.250 -0.0921  0.9912 -0.3213
 2006SOL     OW10864   0.225   2.123   7.729 -0.5288  0.0293  0.1460
 2006SOL    HW110865   0.152   2.061   7.731 -0.2559 -0.2837  1.9385
 2006SOL    HW210866   0.225   2.163   7.816  2.2056 -0.9167  0.6789
 2007SOL     OW10867   7.717   2.191   6.193 -0.0748 -0.2411 -0.0449
 2007SOL    HW110868   7.698   2.173   6.101  0.3218  2.9267 -0.8894
 2007SOL    HW210869   7.812   2.199   6.197 -0.1364  0.3893  0.4527
 2008SOL     OW10870   1.020   2.808   5.910 -0.2647  0.0081  0.1770
 2008SOL    HW110871   1.099   2.861   5.921 -0.0724  0.1056 -1.4854
 2008SOL    HW210872   0.975   2.815   5.995 -1.0116  4.1309 -0.3439
 2009SOL     OW10873   0.749   3.234   6.918 -0.1848  0.5073  0.3289
 2009SOL    HW110874   0.705   3.176   6.856 -3.6184  3.1056  0.0220
 2009SOL    HW210875   0.838   3.242   6.884 -1.1533 -0.3013 -2.7418
 2010SOL     OW10876   2.357   2.437   4.865  0.4655 -0.9585 -0.2222
 2010SOL    HW110877   2.323   2.489   4.793  1.3539 -0.7864 -0.5310
 2010SOL    HW210878   2.343   2.346   4.838  1.6147 -0.9071 -1.0302
 2011SOL     OW10879   0.248   2.368   3.855 -0.4194  0.0578 -0.0121
 2011SOL    HW110880   0.270   2.285   3.813  1.1768  0.3721  0.1420
 2011SOL    HW210881   0.324   2.424   3.838 -0.0892  0.4826  2.4949
 2012SOL     OW10882   1.947   1.223   4.778 -0.2104  0.0952  0.3508
 2012SOL    HW110883   1.941   1.196   4.869  2.0155 -0.7271  0.3171
 2012SOL    HW210884   1.904   1.152   4.729 -1.9024  0.8023  0.7339
 2013SOL     OW10885   1.782   9.132   6.075  0.4286 -0.4424  0.1885
 2013SOL    HW110886   1.780   9.225   6.055  0.1981 -0.1480  1.4912
 2013SOL    HW210887   1.799   9.128   6.169  0.4765 -1.7181  0.1441
 2014SOL     OW10888   0.451   1.109   3.878 -0.0575 -0.2961 -0.3001
 2014SOL    HW110889   0.441   1.032   3.822 -0.2876  0.1289 -0.8442
 2014SOL    HW210890   0.449   1.073   3.967  0.7403 -1.0205 -0.5558
 2015SOL     OW10891   1.759   1.527   6.056  0.3835 -0.1939 -0.0673
 2015SOL    HW110892   1.755   1.583   6.133  1.3345 -0.4408  0.1669
 2015SOL    HW210893   1.718   1.445   6.084 -0.1445  0.0436 -0.1255
 2016SOL     OW10894   2.174   1.887   4.663 -0.1770  0.3319  0.1056
 2016SOL    HW110895   2.238   1.901   4.733  0.9090  1.0709 -1.0066
 2016SOL    HW210896   2.163   1.973   4.623 -1.6925  0.1667  0.0998
 2017SOL     OW10897   0.965   9.192   7.498 -0.2628  0.0193  0.0594
 2017SOL    HW110898   0.915   9.274   7.503 -0.5051 -0.0653 -0.8320
 2017SOL    HW210899   0.902   9.127   7.469  0.1738 -0.2649 -0.2607
 2018SOL     OW10900   2.311   3.297   8.493  0.3793  0.0598 -0.0892
 2018SOL    HW110901   2.383   3.236   8.510  1.4275  1.4412  0.5496
 2018SOL    HW210902   2.342   3.381   8.527 -1.8289  0.5451  0.8585
 2019SOL     OW10903   9.676   1.280   9.483  0.0621 -0.9054 -0.0078
 2019SOL    HW110904   9.593   1.324   9.503  0.9155  0.2290  1.2534
 2019SOL    HW210905   9.723   1.279   9.567  1.9777 -0.0589 -1.0149
 2020SOL     OW10906   0.646   2.411   7.711  0.2477  0.4687  0.1221
 2020SOL    HW110907   0.678   2.365   7.634 -1.4710 -1.5798  0.5070
 2020SOL    HW210908   0.589   2.480   7.677 -0.3241 -0.2814 -0.4878
 2021SOL     OW10909   1.795   2.211   7.033  0.4267 -0.6702 -0.7085
 2021SOL    HW110910   1.712   2.207   7.082  1.4600  0.3626  1.2764
 2021SOL    HW210911   1.827   2.121   7.034 -1.6261 -1.5607 -3.4375
 2022SOL     OW10912   9.646   1.327   9.179  0.5033  0.3841 -0.1085
 2022SOL    HW110913   9.701   1.249   9.184  0.8345  0.6537  0.4878
 2022SOL    HW210914   9.621   1.345   9.270 -1.0047 -0.0452 -0.4165
 2023SOL     OW10915   9.403   4.951   5.238  0.2464  0.5376  0.1370
 2023SOL    HW110916   9.447   4.865   5.235 -0.6010  0.1205 -1.3359
 2023SOL    HW210917   9.460   5.009   5.188  0.1970  0.5384  0.0830
 2024SOL     OW10918   9.568   1.193   6.776 -0.0902  0.5123 -0.1498
 2024SOL    HW110919   9.481   1.218   6.745 -0.9402 -0.6016  1.2229
 2024SOL    HW210920   9.627   1.259   6.739 -1.7646  2.5195  0.5801
 2025SOL     OW10921   7.138   3.850   7.996 -0.3326 -0.1309  0.1367
 2025SOL    HW110922   7.048   3.820   7.983 -0.4371  0.2785 -0.1075
 2025SOL    HW210923   7.193   3.777   7.964 -0.5572 -0.9420  1.5432
 2026SOL     OW10924   9.714   4.138   6.542  0.3915 -0.0037 -0.3005
 2026SOL    HW110925   9.640   4.078   6.554 -0.3959  0.7669 -1.1114
 2026SOL    HW210926   9.703   4.171   6.453 -0.2104  2.6283  0.6638
 2027SOL     OW10927   0.141   0.306   7.341 -0.3191 -0.3995  0.1564
 2027SOL    HW110928   0.207   0.263   7.286 -0.6785 -2.2932  1.1369
 2027SOL    HW210929   0.151   0.399   7.320  0.4207 -0.9151 -2.1279
 2028SOL     OW10930   1.415   1.714   6.604 -0.4154 -0.2121  0.2364
 2028SOL    HW110931   1.423   1.619   6.611 -1.8673 -0.3848 -0.2786
 2028SOL    HW210932   1.427   1.732   6.510 -1.7778 -0.0787  0.0683
 2029SOL     OW10933   8.989   2.189   6.288  0.1873 -0.4133  0.0197
 2029SOL    HW110934   9.016   2.279   6.270 -0.1845  0.0030  1.4429
 2029SOL    HW210935   9.021   2.171   6.376  0.5562 -1.8107 -0.3708
 2030SOL     OW10936   0.382   9.658   6.530  0.6813 -0.1840 -0.2635
 2030SOL    HW110937   0.474   9.652   6.504  0.2138 -3.4199 -1.7174
 2030SOL    HW210938   0.334   9.661   6.448 -0.5627 -0.4729  0.4219
 2031SOL     OW10939   1.881   9.636   6.799  0.0555  0.3832 -0.1289
 2031SOL    HW110940   1.849   9.659   6.886  0.8028 -0.0211  0.2693
 2031SOL    HW210941   1.905   9.719   6.759  0.4713  0.5072  0.3693
 2032SOL     OW10942   1.022   1.728   7.219  0.3582 -0.3070 -0.3961
 2032SOL    HW110943   1.102   1.678   7.236  0.8991  1.1069  1.7795
 2032SOL    HW210944   0.997   1.705   7.130  2.7261 -1.4264 -0.8516
 2033SOL     OW10945   9.122   9.309   1.001  0.2799  0.2976  0.9360
 2033SOL    HW110946   9.209   9.326   0.964 -0.6593  2.2581 -0.5852
 2033SOL    HW210947   9.093   9.395   1.033 -2.4494  0.5737 -1.8009
 2034SOL     OW10948   2.199   0.781   6.956  0.3475  0.5402 -0.3510
 2034SOL    HW110949   2.203   0.698   7.004  0.6070  1.5000  1.3773
 2034SOL    HW210950   2.222   0.758   6.866 -0.1240 -1.3408 -0.0240
 2035SOL     OW10951   2.477   3.130   5.835  0.3501 -0.1095 -0.6752
 2035SOL    HW110952   2.502   3.153   5.746  1.3277 -1.9705 -0.9307
 2035SOL    HW210953   2.530   3.187   5.890  2.1160 -1.0905 -1.2893
 2036SOL     OW10954   8.707   3.729   6.665  0.2624  0.0048 -0.1968
 2036SOL    HW110955   8.684   3.741   6.757 -2.5504  0.9602 -0.9251
 2036SOL    HW210956   8.751   3.644   6.662  0.1500 -0.1720  1.9665
 2037SOL     OW10957   9.468   2.648   6.661  0.0011  0.0610  0.1474
 2037SOL    HW110958   9.435   2.630   6.573  1.8508 -1.4838 -0.3170
 2037SOL    HW210959   9.540   2.586   6.672 -1.0677 -0.7865  3.3316
 2038SOL     OW10960   1.279   2.310   6.379 -0.1499 -0.4800  0.2282
 2038SOL    HW110961   1.263   2.366   6.455  1.6747  0.1276  0.1964
 2038SOL    HW210962   1.209   2.332   6.318 -0.6170  0.2898  1.0208
 2039SOL     OW10963   0.911   3.638   8.151  0.2335  0.1094  0.5018
 2039SOL    HW110964   0.949   3.724   8.170 -0.3458  0.6779 -0.7891
 2039SOL    HW210965   0.963   3.606   8.077  0.7357 -0.8631  1.2616
 2040SOL     OW10966   9.550   2.859   5.063 -0.2416  0.0463 -0.2040
 2040SOL    HW110967   9.560   2.922   4.992  0.7018 -0.2013 -0.3032
 2040SOL    HW210968   9.639   2.841   5.092 -0.5395 -0.7605  0.2467
 2041SOL     OW10969   0.495   1.037   6.496  0.1266 -0.4811  0.0830
 2041SOL    HW110970   0.564   1.019   6.432  0.8250 -0.9789  0.9526
 2041SOL    HW210971   0.444   1.108   6.457  0.5582 -0.7512 -1.0017
 2042SOL     OW10972   0.533   2.141   6.549 -0.3064 -0.0244 -0.1445
 2042SOL    HW110973   0.541   2.168   6.457 -1.8231 -1.6535 -0.8411
 2042SOL    HW210974   0.616   2.097   6.568  1.2915  2.9395  0.3281
 2043SOL     OW10975   8.636   3.866   7.432 -0.2493  0.2513  0.3140
 2043SOL    HW110976   8.719   3.862   7.480  0.7899 -0.8092 -1.4706
 2043SOL    HW210977   8.658   3.910   7.350 -1.8346  1.4175  0.4563
 2044SOL     OW10978   1.761   1.980   7.597 -0.7289  0.4586 -0.4158
 2044SOL    HW110979   1.666   1.976   7.609 -0.7480  1.0546 -0.3756
 2044SOL    HW210980   1.791   2.046   7.658 -0.1596 -0.4104  0.2728
 2045SOL     OW10981   0.396   2.768   9.589 -0.5078 -0.2359  0.0596
 2045SOL    HW110982   0.385   2.676   9.566  1.0356 -0.9274  1.7745
 2045SOL    HW210983   0.490   2.778   9.604 -0.5758  1.7483 -0.4994
 2046SOL     OW10984   0.931   0.990   5.508  0.5272 -0.1050 -0.0167
 2046SOL    HW110985   0.879   0.975   5.430  0.6619 -0.9450  0.0449
 2046SOL    HW210986   0.955   1.082   5.504 -0.7603  0.2368 -0.1676
 2047SOL     OW10987   0.001   2.443   5.362 -0.3699  0.0986  0.0770
 2047SOL    HW110988  -0.043   2.528   5.372 -1.2863 -0.4910  1.1725
 2047SOL    HW210989  -0.047   2.400   5.292 -0.4764  0.1182  0.1377
 2048SOL     OW10990   9.839   3.435   6.397 -0.7276  0.1023  0.2976
 2048SOL    HW110991   9.762   3.461   6.347  0.8044  1.1061 -1.6767
 2048SOL    HW210992   9.901   3.404   6.331  1.2667  1.0935  1.6115
 2049SOL     OW10993   1.212   0.887   7.982  0.0296  0.0642 -0.7431
 2049SOL    HW110994   1.220   0.982   7.986 -1.6883  0.2173  0.0521
 2049SOL    HW210995   1.246   0.864   7.895  1.4935  1.2596 -0.5201
 2050SOL     OW10996   0.761   0.338   6.835  0.5630 -0.4992  0.0069
 2050SOL    HW110997   0.768   0.416   6.780 -0.6184  0.9785  1.8475
 2050SOL    HW210998   0.797   0.268   6.781  1.3576  1.2342 -1.8463
 2051SOL     OW10999   1.852   0.932   7.166  0.7065  0.1793 -0.0646
 2051SOL    HW111000   1.767   0.977   7.164 -0.9610 -2.7216  0.2354
 2051SOL    HW211001   1.891   0.958   7.249 -0.5092  0.5310  0.4142
 2052SOL     OW11002   8.049   3.396   6.783 -0.7605 -0.0818 -0.2417
 2052SOL    HW111003   7.961   3.375   6.815  0.1293 -0.3118  2.1874
 2052SOL    HW211004   8.037   3.476   6.732 -2.2997  0.1845  0.4802
 2053SOL     OW11005   8.588   0.516   5.755 -0.4590 -0.1563  0.0315
 2053SOL    HW111006   8.517   0.577   5.776  0.5016  1.0696 -0.1348
 2053SOL    HW211007   8.568   0.437   5.806 -0.6321  1.0620  1.9798
 2054SOL     OW11008   0.913   1.230   8.234 -0.1789 -0.8087 -0.2011
 2054SOL    HW111009   0.943   1.314   8.200 -1.3700  0.2239  1.1527
 2054SOL    HW211010   0.849   1.199   8.170 -1.1679  0.2896  0.2253
 2055SOL     OW11011   0.360   2.651   9.294 -0.7010 -0.3112 -0.0584
 2055SOL    HW111012   0.389   2.742   9.279 -0.0498 -0.3981  0.6355
 2055SOL    HW211013   0.439   2.606   9.324 -0.9613 -1.1764 -0.6501
 2056SOL     OW11014   0.548   0.834   7.904 -0.0458  0.2906  0.5064
 2056SOL    HW111015   0.497   0.865   7.829  0.9705  1.6346  0.3261
 2056SOL    HW211016   0.576   0.746   7.880 -0.5119  0.3491 -0.2912
 2057SOL     OW11017   1.135   1.474   5.704  0.1785  0.2859 -0.0658
 2057SOL    HW111018   1.155   1.425   5.784  1.1597  1.2807  0.3219
 2057SOL    HW211019   1.077   1.544   5.732  1.0774  1.0528 -0.0828
 2058SOL     OW11020   0.319   8.823   0.028 -0.1496 -0.5587 -0.8081
 2058SOL    HW111021   0.310   8.737  -0.014 -3.5306 -0.1253 -1.2718
 2058SOL    HW211022   0.307   8.805   0.121 -0.5543 -0.6374 -0.8735
 2059SOL     OW11023   0.992   4.119   6.754 -0.8717  0.4098  0.5084
 2059SOL    HW111024   0.900   4.140   6.771 -1.4556 -0.3875 -1.3478
 2059SOL    HW211025   1.019   4.182   6.686 -0.9598 -1.1462 -1.0385
 2060SOL     OW11026   0.515   3.472   4.010  0.2166 -0.6773 -0.0354
 2060SOL    HW111027   0.479   3.397   4.058  1.3053 -0.7838  0.6610
 2060SOL    HW211028   0.576   3.513   4.072 -0.9564  1.2873 -0.1084
 2061SOL     OW11029   0.124   9.581   6.583 -0.6288 -0.1809  0.2378
 2061SOL    HW111030   0.103   9.592   6.676  1.8417 -1.9631  1.1247
 2061SOL    HW211031   0.212   9.618   6.574  0.5843 -2.9619 -0.5329
 2062SOL     OW11032   9.517   2.249   7.547 -0.0595  0.6239  0.0444
 2062SOL    HW111033   9.502   2.294   7.631 -0.5822 -0.5742  0.6137
 2062SOL    HW211034   9.497   2.315   7.481 -2.2789  0.8508  0.8464
 2063SOL     OW11035   1.088   1.808   8.549  0.2655  0.1926  0.2674
 2063SOL    HW111036   1.083   1.713   8.541  1.5582  0.1536 -0.3306
 2063SOL    HW211037   0.997   1.837   8.544 -0.0871 -0.9529 -0.4435
 2064SOL     OW11038   9.013   4.080   5.270 -0.2089  0.2562  0.6297
 2064SOL    HW111039   9.081   4.100   5.334  0.4766  0.8126 -0.2479
 2064SOL    HW211040   9.026   3.988   5.248 -0.5841 -0.0006  1.4272
 2065SOL     OW11041   8.931   0.761   7.191 -0.8897  0.0302 -0.0531
 2065SOL    HW111042   8.838   0.738   7.191 -0.8904 -0.0091  0.7664
 2065SOL    HW211043   8.933   0.854   7.169 -0.9936 -0.3537 -1.8162
 2066SOL     OW11044   3.564   3.154   6.617 -0.5499  0.3114  0.8294
 2066SOL    HW111045   3.628   3.085   6.630 -0.8212 -0.2910 -0.7947
 2066SOL    HW211046   3.490   3.111   6.574 -1.2012  1.3855  0.8172
 2067SOL     OW11047   9.563   3.943   4.583 -0.1303 -0.3780 -0.4390
 2067SOL    HW111048   9.529   3.853   4.580 -0.4002 -0.2818 -0.2329
 2067SOL    HW211049   9.538   3.980   4.498 -2.1584  0.2791  0.3868
 2068SOL     OW11050   2.228   4.177   7.268  0.0757  0.5241 -0.4136
 2068SOL    HW111051   2.237   4.269   7.294 -0.8118  0.4681  0.1081
 2068SOL    HW211052   2.155   4.144   7.321  1.7100 -1.0652  0.9737
 2069SOL     OW11053   1.137   3.118   5.475  0.0953  0.1349 -0.0197
 2069SOL    HW111054   1.207   3.174   5.441 -0.3903  0.3070 -0.7593
 2069SOL    HW211055   1.118   3.154   5.562  1.4125 -0.3650  0.4991
 2070SOL     OW11056   1.724   2.446   4.727  0.0167 -0.3566  0.4446
 2070SOL    HW111057   1.678   2.472   4.646 -1.7283  1.0379  1.7936
 2070SOL    HW211058   1.761   2.528   4.760  2.6788 -1.2760 -0.0148
 2071SOL     OW11059   1.100   1.045   4.933 -0.2604 -0.3106  0.2544
 2071SOL    HW111060   1.005   1.058   4.942 -0.3337  0.8419 -1.5124
 2071SOL    HW211061   1.132   1.130   4.902  1.2630 -0.8628  0.2586
 2072SOL     OW11062   8.712   1.599   6.726  0.0009  0.4339 -0.2109
 2072SOL    HW111063   8.806   1.605   6.709  0.1970 -0.6042  0.4186
 2072SOL    HW211064   8.704   1.610   6.820 -0.5602  0.9737 -0.3178
 2073SOL     OW11065   0.275   2.679   8.556  0.3242 -0.3941  0.2580
 2073SOL    HW111066   0.265   2.754   8.497 -1.1668  0.3558  1.3853
 2073SOL    HW211067   0.334   2.711   8.624  0.3490 -0.5327  0.3011
 2074SOL     OW11068   1.247   2.588   5.781  0.3876  0.1091 -0.6053
 2074SOL    HW111069   1.287   2.562   5.698 -0.5401 -2.3763 -0.3689
 2074SOL    HW211070   1.153   2.592   5.762  0.2454  0.4051  0.1222
 2075SOL     OW11071   0.603   1.626   6.726  0.2726  0.0118  0.5076
 2075SOL    HW111072   0.653   1.554   6.763  0.0568 -1.5186 -1.9179
 2075SOL    HW211073   0.669   1.682   6.684  0.2343 -0.3932 -0.1149
 2076SOL     OW11074   1.893   1.920   6.016  0.1086 -0.0497  0.4711
 2076SOL    HW111075   1.958   1.868   5.968  0.7875  1.4901 -0.3389
 2076SOL    HW211076   1.920   1.914   6.107  0.5988 -0.5106  0.3042
 2077SOL     OW11077   8.778   3.027   5.017 -0.0561 -0.3286 -0.0594
 2077SOL    HW111078   8.821   2.948   5.050  0.1712 -0.0090  0.4203
 2077SOL    HW211079   8.703   3.040   5.076 -0.5900 -0.6547 -0.6465
 2078SOL     OW11080   2.498   0.868   6.328  0.2036  0.1535 -0.6255
 2078SOL    HW111081   2.431   0.835   6.388  0.7894 -2.6213 -1.3881
 2078SOL    HW211082   2.570   0.893   6.385  1.0703 -3.2083 -0.0699
 2079SOL     OW11083   0.199   3.292   4.692 -0.6325  0.2326  0.0448
 2079SOL    HW111084   0.207   3.210   4.740 -1.1855 -0.2855 -0.7133
 2079SOL    HW211085   0.230   3.359   4.753  1.4274 -0.6961  0.1216
 2080SOL     OW11086   8.411   0.656   5.927  0.1212 -0.3778  0.1545
 2080SOL    HW111087   8.324   0.617   5.937  0.1696 -0.4761  0.1937
 2080SOL    HW211088   8.439   0.675   6.017 -0.4917  1.0604  0.0654
 2081SOL     OW11089   8.616   0.504   8.378 -0.2231 -0.2378 -0.0387
 2081SOL    HW111090   8.631   0.410   8.379 -1.2331 -0.4416 -1.6960
 2081SOL    HW211091   8.556   0.519   8.305  0.0242  1.7110  0.0951
 2082SOL     OW11092   1.387   1.598   5.587 -0.0330 -0.3582  0.8454
 2082SOL    HW111093   1.297   1.571   5.604 -0.9380  0.8735 -1.4896
 2082SOL    HW211094   1.426   1.524   5.539 -1.0110  0.4291 -1.3167
 2083SOL     OW11095   1.435   2.143   9.110  0.0541  0.3064  0.1908
 2083SOL    HW111096   1.378   2.201   9.059  0.9257  2.2067  1.2478
 2083SOL    HW211097   1.429   2.177   9.199  1.9534 -0.1346  0.5278
 2084SOL     OW11098   9.104   2.347   5.177  0.6916 -0.4062 -0.1113
 2084SOL    HW111099   9.196   2.343   5.206  0.1941 -2.4930  1.3822
 2084SOL    HW211100   9.094   2.270   5.121 -0.2934 -0.5335  0.2325
 2085SOL     OW11101   2.687   3.381   6.328 -0.7993 -0.2454  0.2149
 2085SOL    HW111102   2.706   3.301   6.279 -0.9275 -0.8399  1.1062
 2085SOL    HW211103   2.764   3.394   6.383 -0.0104  1.2522 -1.1975
 2086SOL     OW11104   2.032   2.708   9.049 -0.1936 -0.0775  0.4543
 2086SOL    HW111105   2.018   2.719   9.143  0.1870  0.6581  0.4341
 2086SOL    HW211106   2.105   2.647   9.043 -0.5204 -0.4914  0.6249
 2087SOL     OW11107   1.855   1.812   4.830  0.6744 -0.1803 -0.2638
 2087SOL    HW111108   1.843   1.802   4.924  1.3662  1.5484  0.0480
 2087SOL    HW211109   1.816   1.897   4.809 -1.1287 -1.3423 -1.8973
 2088SOL     OW11110   1.246   2.664   6.907 -0.0104  0.8748  0.2858
 2088SOL    HW111111   1.161   2.677   6.865  0.7404  0.6972 -1.3433
 2088SOL    HW211112   1.263   2.746   6.954 -1.8996  0.2450  2.2160
 2089SOL     OW11113   1.920   2.635   5.953 -0.3890 -0.1278 -0.5391
 2089SOL    HW111114   1.908   2.611   5.861 -1.0690 -0.8645 -0.2651
 2089SOL    HW211115   1.907   2.730   5.954 -0.7014 -0.1569 -1.1541
 2090SOL     OW11116   0.643   1.505   6.298 -0.3085  0.0983  0.1079
 2090SOL    HW111117   0.594   1.444   6.243 -0.3860  0.6896 -0.4971
 2090SOL    HW211118   0.731   1.506   6.262 -0.7156  1.5749 -0.9613
 2091SOL     OW11119   2.014   3.579   3.161  0.4122 -0.4927 -0.1672
 2091SOL    HW111120   2.026   3.485   3.171 -2.3022 -0.6850  2.6391
 2091SOL    HW211121   2.052   3.617   3.240  1.5107  0.8469 -1.2812
 2092SOL     OW11122   0.628   2.727   7.168  0.2849 -0.3633  0.8710
 2092SOL    HW111123   0.708   2.710   7.218  0.4605 -0.1566  0.6552
 2092SOL    HW211124   0.572   2.775   7.229  0.3085 -0.5347  1.0322
 2093SOL     OW11125   1.537   2.437   5.768  0.7209  0.0779  0.0497
 2093SOL    HW111126   1.460   2.410   5.717 -1.6700  0.1286  3.2238
 2093SOL    HW211127   1.572   2.512   5.722 -2.8414  1.7571 -0.3039
 2094SOL     OW11128   1.171   1.423   6.021  0.0178 -0.6104  0.3175
 2094SOL    HW111129   1.111   1.371   5.968  0.8853 -1.2649 -0.0327
 2094SOL    HW211130   1.125   1.434   6.105 -1.0094 -0.2563 -0.2730
 2095SOL     OW11131   0.987   2.152   6.932 -0.3774 -0.2805  0.0597
 2095SOL    HW111132   1.007   2.178   7.022 -1.1578 -1.3242  0.5533
 2095SOL    HW211133   1.001   2.058   6.930  0.1503 -0.1969 -1.0734
 2096SOL     OW11134   9.770   1.295   5.859 -0.1095 -0.0844 -0.0380
 2096SOL    HW111135   9.675   1.285   5.870 -0.2352  2.4673  2.4093
 2096SOL    HW211136   9.807   1.251   5.936  0.6154  0.0010 -0.3310
 2097SOL     OW11137   2.253   0.709   3.074  0.1829  0.0351 -0.2625
 2097SOL    HW111138   2.192   0.744   3.139  0.7478 -2.4963  1.8160
 2097SOL    HW211139   2.239   0.614   3.078 -0.4464 -0.2613 -4.6577
 2098SOL     OW11140   1.041   2.702   6.456 -0.4049 -0.2301 -0.2557
 2098SOL    HW111141   1.075   2.777   6.505 -0.5746 -1.2970  1.6025
 2098SOL    HW211142   0.959   2.734   6.417 -0.1154  0.7360 -0.1076
 2099SOL     OW11143   9.518   0.310   5.188 -0.7624 -0.4414 -0.0766
 2099SOL    HW111144   9.431   0.347   5.204  0.6879  2.9708  0.8359
 2099SOL    HW211145   9.534   0.325   5.095 -1.2612 -1.4565 -0.3407
 2100SOL     OW11146   2.231   5.263   8.418 -0.2966 -0.4240 -0.3393
 2100SOL    HW111147   2.211   5.179   8.376 -0.2824 -0.7706  0.3338
 2100SOL    HW211148   2.150   5.314   8.408  0.2305  0.1428 -2.2582
 2101SOL     OW11149   2.358   1.753   7.497  0.5585 -0.2774 -0.4461
 2101SOL    HW111150   2.389   1.843   7.508  1.5028 -0.6479  0.0240
 2101SOL    HW211151   2.437   1.702   7.478  0.3288 -1.2935  1.0551
 2102SOL     OW11152   9.262   3.551   5.798  0.3736 -0.1429  0.2622
 2102SOL    HW111153   9.272   3.514   5.885  0.6325 -0.4239  0.1151
 2102SOL    HW211154   9.269   3.476   5.739  4.2985  0.4379 -0.3003
 2103SOL     OW11155   1.455   3.311   6.296 -0.5488  0.4806 -0.7290
 2103SOL    HW111156   1.402   3.346   6.224 -0.4079  0.5354 -0.8083
 2103SOL    HW211157   1.398   3.312   6.372 -0.7297  0.3342 -0.8619
 2104SOL     OW11158   1.747   2.879   6.705  0.3936 -0.4051 -0.4888
 2104SOL    HW111159   1.812   2.825   6.660  0.3055  0.8576 -2.2227
 2104SOL    HW211160   1.712   2.822   6.773  1.5876 -1.9146 -1.0742
 2105SOL     OW11161   2.005   0.999   5.842  0.4055  0.1075  0.5691
 2105SOL    HW111162   2.081   0.954   5.879 -0.1601 -2.0151 -0.7112
 2105SOL    HW211163   1.930   0.960   5.886 -0.0419  1.4072  1.0209
 2106SOL     OW11164   0.156   0.257   4.803  0.1881 -0.0298  0.0849
 2106SOL    HW111165   0.186   0.246   4.713  2.3922  3.1416  0.2323
 2106SOL    HW211166   0.230   0.227   4.856 -0.7842 -1.1232  0.8626
 2107SOL     OW11167   0.211   3.838   6.179  0.2071  0.0013 -0.0816
 2107SOL    HW111168   0.120   3.864   6.186  0.3715  0.4875  0.2812
 2107SOL    HW211169   0.261   3.919   6.190  0.6635 -0.1204 -1.0981
 2108SOL     OW11170   1.009   2.817   8.068 -0.5251 -0.2414 -0.0551
 2108SOL    HW111171   0.922   2.808   8.108 -0.2785 -2.2240  0.1626
 2108SOL    HW211172   1.070   2.789   8.137  0.3793  1.8124  0.0403
 2109SOL     OW11173   0.209   3.400   7.007  0.4171 -0.1863  0.0962
 2109SOL    HW111174   0.206   3.362   6.919 -1.4396  0.0239  0.0370
 2109SOL    HW211175   0.302   3.404   7.028  1.0116  1.1621 -2.4658
 2110SOL     OW11176   3.179   1.863   7.398  0.0043 -0.6840  0.3050
 2110SOL    HW111177   3.250   1.817   7.353 -0.4160 -3.5177  2.2849
 2110SOL    HW211178   3.104   1.854   7.340  0.7919  0.9768 -1.0759
 2111SOL     OW11179   1.018   3.112   3.796 -0.2680  0.0038  0.0530
 2111SOL    HW111180   0.950   3.145   3.855  0.3918 -0.5526  1.1684
 2111SOL    HW211181   1.037   3.024   3.828 -0.3011 -0.5477 -1.3797
 2112SOL     OW11182   9.175   2.085   5.338  0.3052 -0.3932 -0.1550
 2112SOL    HW111183   9.160   2.155   5.402  1.6824 -0.6467  0.4879
 2112SOL    HW211184   9.229   2.021   5.385  3.1820  0.3863 -2.0917
 2113SOL     OW11185   0.279   2.452   6.107 -0.1263  0.4398 -0.2232
 2113SOL    HW111186   0.184   2.450   6.092 -0.1431  0.9275 -0.1874
 2113SOL    HW211187   0.317   2.460   6.019 -0.1380  0.8158 -0.1936
 2114SOL     OW11188   9.006   2.442   6.122 -0.1771  0.2687 -0.3655
 2114SOL    HW111189   9.085   2.453   6.069  1.3649  1.0490  1.8869
 2114SOL    HW211190   8.940   2.497   6.079  1.3684  1.8804 -0.8175
 2115SOL     OW11191   0.543   3.339   8.871  0.5169 -0.0543  0.0827
 2115SOL    HW111192   0.515   3.247   8.870 -0.7020  0.2962 -0.1788
 2115SOL    HW211193   0.551   3.361   8.963 -2.1620  0.3921  0.2950
 2116SOL     OW11194   9.106   2.824   8.164  0.2070  0.0595  0.1806
 2116SOL    HW111195   9.079   2.800   8.075 -1.3786 -2.0933  1.1755
 2116SOL    HW211196   9.151   2.747   8.197  2.4911  1.4902  0.6745
 2117SOL     OW11197   2.057   2.393   8.401 -0.6485  0.2198  0.0683
 2117SOL    HW111198   2.007   2.313   8.389 -0.1717  0.0789 -1.0484
 2117SOL    HW211199   2.115   2.375   8.476 -0.3906 -0.5562 -0.3176
 2118SOL     OW11200   0.450   9.379   7.087  0.1157  0.1161  0.6628
 2118SOL    HW111201   0.523   9.434   7.112  0.2502 -0.9624  2.8799
 2118SOL    HW211202   0.461   9.299   7.138 -1.1988 -1.1481 -0.8861
 2119SOL     OW11203   9.401   9.613   7.875  0.4341 -0.0274  0.5637
 2119SOL    HW111204   9.414   9.545   7.809 -0.8378 -0.9249  1.2024
 2119SOL    HW211205   9.432   9.574   7.957  1.8598  1.0223  0.5683
 2120SOL     OW11206   8.817   2.923   8.655  0.5943 -0.3913  0.5611
 2120SOL    HW111207   8.876   2.872   8.600 -1.7703 -0.8970 -1.6828
 2120SOL    HW211208   8.821   3.012   8.619 -0.7476 -0.6583 -0.2765
 2121SOL     OW11209   1.519   2.054   8.856 -0.3813 -0.6494 -0.2207
 2121SOL    HW111210   1.492   2.067   8.947 -1.6011  0.2702 -0.6818
 2121SOL    HW211211   1.448   2.001   8.818  0.9420 -2.4960 -0.2401
 2122SOL     OW11212   7.683   4.027   9.024  0.0754 -0.0195 -0.0118
 2122SOL    HW111213   7.770   4.052   9.056  0.2917 -0.8001  0.0252
 2122SOL    HW211214   7.665   3.944   9.068 -1.0258  0.5270  0.5863
 2123SOL     OW11215   0.106   2.577   7.371  0.3548  0.6077 -0.2975
 2123SOL    HW111216   0.171   2.629   7.324  0.6188  0.3746 -0.1901
 2123SOL    HW211217   0.094   2.498   7.319  0.7354  0.2947  0.0790
 2124SOL     OW11218   1.805   1.874   8.241  0.0863  0.4162 -0.5371
 2124SOL    HW111219   1.801   1.886   8.336  2.7615 -1.6868 -0.0245
 2124SOL    HW211220   1.715   1.858   8.215 -0.7608  1.3062  1.5818
 2125SOL     OW11221   1.735   0.253   8.709  0.5453 -0.5315 -0.7758
 2125SOL    HW111222   1.796   0.316   8.748 -0.4724 -0.6457  1.1325
 2125SOL    HW211223   1.735   0.179   8.770 -1.6311 -0.4280 -0.5730
 2126SOL     OW11224   1.902   3.173   7.465  0.6838  0.0175 -0.5212
 2126SOL    HW111225   1.951   3.098   7.430  2.0990  0.6323  0.0614
 2126SOL    HW211226   1.940   3.249   7.421  0.8940  0.5888  0.6122
 2127SOL     OW11227   8.452   3.199   8.200 -0.1088 -0.3419 -0.9498
 2127SOL    HW111228   8.372   3.247   8.179  0.8546  1.8536  0.1478
 2127SOL    HW211229   8.517   3.233   8.139  0.4081 -0.8778 -0.7051
 2128SOL     OW11230   1.351   1.238   9.077  0.0722  0.2269  0.4205
 2128SOL    HW111231   1.399   1.318   9.096  1.8259 -0.7263  0.1876
 2128SOL    HW211232   1.389   1.205   8.996  0.0657 -1.3330  1.0095
 2129SOL     OW11233   1.734   0.620   9.175 -0.9019 -0.3593 -0.2555
 2129SOL    HW111234   1.647   0.639   9.139 -0.6534  0.9697 -0.2054
 2129SOL    HW211235   1.745   0.526   9.163 -2.6444 -0.6726  0.4057
 2130SOL     OW11236   9.421   1.864   6.920 -0.3288  0.1643 -0.0297
 2130SOL    HW111237   9.447   1.948   6.883  0.4439 -0.4048 -0.7921
 2130SOL    HW211238   9.413   1.881   7.014  1.4968  0.6918  0.0618
 2131SOL     OW11239   1.580   3.585   9.079 -0.8968  0.0647 -0.2080
 2131SOL    HW111240   1.574   3.494   9.106 -0.3397 -0.1012 -0.6245
 2131SOL    HW211241   1.566   3.582   8.984  2.8838 -0.0754 -0.9008
 2132SOL     OW11242   0.654   3.201   7.175 -0.0206  0.0475 -0.3711
 2132SOL    HW111243   0.697   3.210   7.091 -0.0881 -0.4685 -0.4684
 2132SOL    HW211244   0.656   3.288   7.214 -1.2643  0.6140 -1.5152
 2133SOL     OW11245   9.511   3.205   9.067  0.0131  0.7700 -0.0490
 2133SOL    HW111246   9.423   3.222   9.035 -0.7673 -1.6973  0.5966
 2133SOL    HW211247   9.509   3.232   9.159 -1.0475 -1.8799  0.8089
 2134SOL     OW11248   0.611   1.546   5.967  0.4105 -0.3251  0.1374
 2134SOL    HW111249   0.544   1.612   5.984  0.2271 -0.6086  0.5635
 2134SOL    HW211250   0.573   1.465   6.003 -0.2203 -1.1013 -2.1291
 2135SOL     OW11251   9.311   1.877   6.071 -0.1819 -0.2753  0.3980
 2135SOL    HW111252   9.361   1.820   6.130 -0.8739 -1.0269  0.2812
 2135SOL    HW211253   9.352   1.864   5.985 -0.3640 -0.6395  0.3633
 2136SOL     OW11254   9.813   0.367   8.121 -0.0813  0.1518 -0.4955
 2136SOL    HW111255   9.831   0.316   8.200  1.7258  0.1243 -0.8766
 2136SOL    HW211256   9.878   0.438   8.123  0.8436 -0.5580 -2.5332
 2137SOL     OW11257   8.774   3.113   7.546  0.3851  0.1402 -0.4908
 2137SOL    HW111258   8.781   3.139   7.638  0.4337 -1.7953  0.1031
 2137SOL    HW211259   8.681   3.118   7.527  0.2413 -0.4931  0.0116
 2138SOL     OW11260   0.845   1.036   9.049 -0.1391 -0.5040  0.4309
 2138SOL    HW111261   0.891   0.962   9.087  0.1035 -0.3385  0.4565
 2138SOL    HW211262   0.756   1.003   9.032 -0.5737 -0.2678  2.1188
 2139SOL     OW11263   2.000   3.748   9.498  0.2405  0.1894 -0.1093
 2139SOL    HW111264   2.005   3.723   9.591 -0.2347 -1.2213 -0.4407
 2139SOL    HW211265   2.031   3.839   9.496 -4.1537  2.0768  2.1950
 2140SOL     OW11266   9.018   9.782   9.840 -0.6655  0.0731  0.8182
 2140SOL    HW111267   8.939   9.767   9.789  0.1044  0.3126 -0.4985
 2140SOL    HW211268   9.042   9.873   9.822  0.8874 -0.5071 -0.2597
 2141SOL     OW11269   0.753   0.586   7.500  0.0446 -0.7092  0.4906
 2141SOL    HW111270   0.822   0.612   7.440 -0.2734 -1.2877 -0.1340
 2141SOL    HW211271   0.677   0.569   7.444 -1.1092  1.4258  1.2557
 2142SOL     OW11272   1.508   1.286   8.189  0.8751  0.2084  0.0362
 2142SOL    HW111273   1.414   1.306   8.186  0.3871 -1.3000  2.6384
 2142SOL    HW211274   1.540   1.334   8.265  2.3431  0.9863 -1.0234
 2143SOL     OW11275   0.842   2.417   8.152 -0.7896  0.8952 -0.6158
 2143SOL    HW111276   0.826   2.389   8.062 -0.9927  1.3368 -0.7194
 2143SOL    HW211277   0.927   2.378   8.174 -1.2702 -0.1941 -0.5851
 2144SOL     OW11278   0.298   1.914   9.213 -0.8044  0.5566 -0.2896
 2144SOL    HW111279   0.287   1.820   9.200 -1.1037  0.5991 -0.3525
 2144SOL    HW211280   0.210   1.950   9.204 -0.8544  0.7233  0.7874
 2145SOL     OW11281   1.259   1.696   7.665  0.3074 -0.1691  0.4633
 2145SOL    HW111282   1.290   1.721   7.578 -1.2410 -0.6141 -0.2528
 2145SOL    HW211283   1.286   1.604   7.674 -2.5680 -1.2954 -1.1107
 2146SOL     OW11284   1.242   9.462   1.832  0.2968  0.3643  0.3105
 2146SOL    HW111285   1.181   9.510   1.888 -0.7405 -2.1937  1.5437
 2146SOL    HW211286   1.185   9.411   1.774  1.3598  1.4118 -1.7615
 2147SOL     OW11287   1.275   2.334   8.360 -0.1809 -0.7322  0.1377
 2147SOL    HW111288   1.222   2.410   8.384 -0.4791 -1.6401  2.6638
 2147SOL    HW211289   1.343   2.369   8.303  0.2616  1.6463  1.9684
 2148SOL     OW11290   1.737   9.799   0.388  0.2487 -0.6602  0.3307
 2148SOL    HW111291   1.805   9.766   0.446  0.2738  0.4155  0.9288
 2148SOL    HW211292   1.774   9.880   0.351 -0.7444  0.0088  0.7739
 2149SOL     OW11293   1.065   9.550   8.176  0.3949  0.0391  0.1504
 2149SOL    HW111294   1.036   9.633   8.137 -0.7291 -1.0692 -1.5065
 2149SOL    HW211295   1.031   9.553   8.266  2.1011  2.1847  0.8153
 2150SOL     OW11296   0.420   1.499   8.041  0.0242 -0.8100 -0.5181
 2150SOL    HW111297   0.457   1.521   7.956  2.3838  0.8521  0.7978
 2150SOL    HW211298   0.432   1.404   8.048 -2.1213 -1.3573 -2.7587
 2151SOL     OW11299   0.620   4.081   7.843  0.1350 -0.4158 -0.0212
 2151SOL    HW111300   0.592   3.995   7.813 -1.9139 -0.5393  1.9980
 2151SOL    HW211301   0.685   4.063   7.911  0.9439 -0.2720 -0.7300
 2152SOL     OW11302   9.702   6.416   8.996 -0.4930 -0.1200 -0.6607
 2152SOL    HW111303   9.746   6.371   8.924 -1.4039 -0.6707 -0.8836
 2152SOL    HW211304   9.738   6.505   8.995 -1.0824  0.1198 -2.3005
 2153SOL     OW11305   0.159   3.270   8.162 -0.1631  0.4409 -0.1695
 2153SOL    HW111306   0.088   3.210   8.186 -0.0783  0.1547 -0.6124
 2153SOL    HW211307   0.204   3.225   8.090  1.1432  0.1019  0.8170
 2154SOL     OW11308   1.226   1.718   9.774  0.0792 -0.1276  0.0042
 2154SOL    HW111309   1.142   1.678   9.794 -0.6751  1.7118  0.7989
 2154SOL    HW211310   1.212   1.763   9.691 -0.1640  1.2498  0.7583
 2155SOL     OW11311   0.276   1.781   5.865 -0.1507 -0.2543  0.1496
 2155SOL    HW111312   0.208   1.748   5.923 -0.8429 -0.6751 -0.8677
 2155SOL    HW211313   0.285   1.713   5.798  0.9406  0.0117  0.0070
 2156SOL     OW11314   6.288   2.360   6.856 -0.3750  0.2617  0.1188
 2156SOL    HW111315   6.253   2.363   6.767 -0.8331  0.8576  0.3057
 2156SOL    HW211316   6.383   2.360   6.845 -0.4281  0.3831 -0.3722
 2157SOL     OW11317   9.565   2.186   7.242 -0.0195 -0.6942 -0.4226
 2157SOL    HW111318   9.540   2.193   7.150 -0.8491 -0.3986 -0.1877
 2157SOL    HW211319   9.631   2.254   7.254  0.3859 -0.9929 -0.8827
 2158SOL     OW11320   8.978   5.146   6.331  0.5138  0.5029 -0.1140
 2158SOL    HW111321   8.940   5.193   6.257  0.6390  0.2147 -0.3630
 2158SOL    HW211322   9.057   5.195   6.353 -0.6795  1.9318  1.2983
 2159SOL     OW11323   0.974   2.603   8.947 -0.5613 -0.7330  1.0155
 2159SOL    HW111324   0.954   2.597   9.041  0.3794 -2.0778  1.1552
 2159SOL    HW211325   0.890   2.586   8.904 -0.7631 -1.3046  1.6055
 2160SOL     OW11326   0.620   2.442   9.236 -0.0153 -0.2116  0.1925
 2160SOL    HW111327   0.708   2.454   9.271 -0.4150 -2.3529  2.2255
 2160SOL    HW211328   0.633   2.403   9.150  1.0254 -0.3875  0.4195
 2161SOL     OW11329   9.594   2.036   9.462  0.4184  0.4068 -0.2202
 2161SOL    HW111330   9.601   1.953   9.416 -0.2893  0.1546  0.1117
 2161SOL    HW211331   9.555   2.013   9.547 -2.0274  1.3598 -1.0219
 2162SOL     OW11332   9.222   1.803   8.126 -0.1446 -0.1451 -0.3096
 2162SOL    HW111333   9.208   1.742   8.053 -0.4715 -0.7123  0.2178
 2162SOL    HW211334   9.317   1.813   8.130 -0.1597  2.4139 -2.8389
 2163SOL     OW11335   1.604   3.387   9.605 -0.0753 -0.3762  0.4856
 2163SOL    HW111336   1.570   3.306   9.641 -1.5139  0.0988  0.2694
 2163SOL    HW211337   1.633   3.364   9.517  1.7745 -1.1484  1.2539
 2164SOL     OW11338   9.162   4.715   7.810 -0.0558 -0.2021 -0.7892
 2164SOL    HW111339   9.236   4.776   7.812 -0.0341 -0.1731 -1.8224
 2164SOL    HW211340   9.202   4.629   7.812  0.0779 -0.1994 -2.2301
 2165SOL     OW11341   3.527   2.662   9.522  0.3776  0.7241  0.4549
 2165SOL    HW111342   3.497   2.733   9.578 -0.4252  0.4713  0.3724
 2165SOL    HW211343   3.446   2.628   9.482  0.7784 -0.0304  0.2656
 2166SOL     OW11344   1.183   9.125   7.348 -0.1343  0.1138  0.7990
 2166SOL    HW111345   1.105   9.167   7.383 -0.6688  0.8554 -1.1526
 2166SOL    HW211346   1.150   9.048   7.303  0.0305  1.1727 -1.2405
 2167SOL     OW11347   9.688   1.430   7.206 -0.0020  0.2663  0.5019
 2167SOL    HW111348   9.658   1.369   7.274 -1.6143 -0.8534 -1.1321
 2167SOL    HW211349   9.689   1.515   7.250  0.4413 -0.5979  2.3082
 2168SOL     OW11350   8.513   3.093   8.672  0.0142 -0.2075 -0.0696
 2168SOL    HW111351   8.453   3.149   8.623 -1.6337 -1.4252  0.4356
 2168SOL    HW211352   8.467   3.076   8.755  0.9633 -1.3530  0.2552
 2169SOL     OW11353   9.414   3.613   7.994 -0.2370 -0.1460  0.2360
 2169SOL    HW111354   9.491   3.557   7.983  0.3869  0.9484 -1.2551
 2169SOL    HW211355   9.421   3.647   8.083  0.1329 -1.3140  0.6614
 2170SOL     OW11356   1.598   2.505   9.236 -0.0208 -0.2010 -0.3970
 2170SOL    HW111357   1.543   2.459   9.173 -1.5269 -0.5569  1.0842
 2170SOL    HW211358   1.688   2.482   9.212 -0.6357 -1.9274 -1.1754
 2171SOL     OW11359   9.553   3.201   7.239 -0.6003  0.3177 -0.6089
 2171SOL    HW111360   9.636   3.184   7.284 -0.7866  2.2201  0.5839
 2171SOL    HW211361   9.569   3.281   7.188 -2.1331  1.7474  1.0225
 2172SOL     OW11362   1.543   2.154   7.119 -0.1060  0.7529  0.1711
 2172SOL    HW111363   1.585   2.087   7.065 -1.4604  0.3253 -0.3997
 2172SOL    HW211364   1.452   2.155   7.089 -1.4074 -0.7147  3.5195
 2173SOL     OW11365   2.671   4.235   8.434 -0.6517 -0.1032 -0.3898
 2173SOL    HW111366   2.692   4.202   8.521 -0.6924 -0.8128 -0.6447
 2173SOL    HW211367   2.586   4.278   8.444 -0.9309 -0.6938 -0.2058
 2174SOL     OW11368   0.093   2.406   7.936 -0.2865  0.2619 -0.3261
 2174SOL    HW111369   0.188   2.421   7.942 -0.3562  0.0333  2.1873
 2174SOL    HW211370   0.084   2.311   7.939 -0.6189  0.2889 -0.4731
 2175SOL     OW11371   0.243   1.272   7.630  0.4840  0.3871 -0.1895
 2175SOL    HW111372   0.300   1.195   7.623 -0.0053 -0.0259  0.3269
 2175SOL    HW211373   0.270   1.327   7.556  0.6563 -0.3993 -0.7317
 2176SOL     OW11374   1.468   2.055   5.601 -0.5279 -0.7412 -0.2536
 2176SOL    HW111375   1.523   2.050   5.679  0.5404 -3.1930 -1.0709
 2176SOL    HW211376   1.442   2.147   5.596  4.8945  1.1179 -0.7228
 2177SOL     OW11377   0.279   3.064   9.054  0.2343 -0.2994  0.3372
 2177SOL    HW111378   0.189   3.092   9.035  0.4735  0.6713  0.5953
 2177SOL    HW211379   0.326   3.077   8.972  0.3973  0.2805  0.5198
 2178SOL     OW11380   0.408   2.547   7.252  0.0568  0.0813 -0.1701
 2178SOL    HW111381   0.377   2.588   7.171  0.8666  0.2332 -0.4074
 2178SOL    HW211382   0.485   2.497   7.226  0.3623  0.1801  0.5173
 2179SOL     OW11383   1.911   2.992   8.974 -0.1030 -0.5171 -0.0788
 2179SOL    HW111384   2.001   2.988   8.941 -0.2396 -1.5660 -0.3573
 2179SOL    HW211385   1.904   3.079   9.014  1.5181 -0.9901  1.3573
 2180SOL     OW11386   1.500   3.521   2.259  0.0166  0.1089 -0.2588
 2180SOL    HW111387   1.567   3.589   2.271  0.0480  0.1901 -0.9023
 2180SOL    HW211388   1.417   3.570   2.256  0.1083  0.1976 -1.5423
 2181SOL     OW11389   0.172   1.725   7.220 -0.4088  0.0686  0.3280
 2181SOL    HW111390   0.246   1.782   7.202 -0.3811  0.6612  2.1830
 2181SOL    HW211391   0.095   1.779   7.200 -0.4247 -0.6313 -1.8577
 2182SOL     OW11392   0.478   3.974   6.850  0.7764  0.5107 -0.7243
 2182SOL    HW111393   0.534   3.908   6.808 -2.3703 -2.3734 -0.8587
 2182SOL    HW211394   0.495   3.964   6.944  0.2639 -0.6962 -0.7318
 2183SOL     OW11395   0.615   0.599   6.859  0.0126 -0.6226 -0.5983
 2183SOL    HW111396   0.664   0.526   6.895 -1.3608 -1.3946 -0.2146
 2183SOL    HW211397   0.551   0.621   6.926  1.1519  1.7778 -0.1712
 2184SOL     OW11398   0.332   9.210   9.427  0.1434 -0.9464  0.3463
 2184SOL    HW111399   0.384   9.202   9.347 -1.1708 -0.8553 -0.5549
 2184SOL    HW211400   0.360   9.294   9.465  0.3216 -0.6721 -0.3700
 2185SOL     OW11401   2.597   2.415   8.209  0.0105 -0.7789  0.0059
 2185SOL    HW111402   2.628   2.383   8.124  0.6012 -0.2652  0.0161
 2185SOL    HW211403   2.568   2.504   8.192 -0.3762 -0.8603  0.2363
 2186SOL     OW11404   0.833   1.044   9.832 -0.5184 -0.2216 -0.2188
 2186SOL    HW111405   0.845   0.992   9.912 -0.7918 -0.0068 -0.0388
 2186SOL    HW211406   0.796   0.981   9.769 -0.2110 -0.4152 -0.2066
 2187SOL     OW11407   9.381   1.199   8.373 -0.5935 -0.3771 -0.7097
 2187SOL    HW111408   9.406   1.261   8.442 -0.6034 -0.8779 -0.2438
 2187SOL    HW211409   9.313   1.244   8.323 -0.1716  0.2230 -0.7561
 2188SOL     OW11410   7.603   2.502   8.176  0.0541 -0.1068  0.2683
 2188SOL    HW111411   7.624   2.412   8.150 -0.5146 -0.3207  0.5160
 2188SOL    HW211412   7.561   2.540   8.099  0.9884  0.1972 -0.0962
 2189SOL     OW11413   0.679   1.285   6.498 -0.0182  0.3320 -0.1836
 2189SOL    HW111414   0.655   1.358   6.441 -0.6878  1.4975  1.5301
 2189SOL    HW211415   0.668   1.207   6.442 -2.2027  1.2724 -1.2003
 2190SOL     OW11416   0.819   0.234   8.659 -0.3895 -0.4632  0.1960
 2190SOL    HW111417   0.725   0.221   8.671 -0.2749 -2.9438 -1.2045
 2190SOL    HW211418   0.855   0.146   8.648  1.5438  0.5970 -3.2026
 2191SOL     OW11419   2.086   1.648   9.740 -0.0141 -0.0950 -0.3165
 2191SOL    HW111420   2.112   1.618   9.827 -1.2725  0.8335  0.4011
 2191SOL    HW211421   2.082   1.568   9.688  0.1753 -0.7334  0.6198
 2192SOL     OW11422   0.809   1.197   8.820  0.0206 -0.0491 -0.1337
 2192SOL    HW111423   0.751   1.225   8.749 -0.2227 -0.8626 -0.2593
 2192SOL    HW211424   0.756   1.138   8.874  0.4882 -0.1755  0.1999
 2193SOL     OW11425   0.212   0.886   9.203 -0.0301 -0.1281 -0.1265
 2193SOL    HW111426   0.209   0.791   9.211  2.3680 -0.1679  1.5939
 2193SOL    HW211427   0.301   0.905   9.173 -0.8168  1.5539 -1.6045
 2194SOL     OW11428   2.704   2.243   8.821 -0.3419  0.1036  0.4484
 2194SOL    HW111429   2.726   2.157   8.858 -2.1573 -0.1424  1.0768
 2194SOL    HW211430   2.747   2.306   8.880  0.0804 -0.3585  0.6388
 2195SOL     OW11431   2.840   4.684   7.498 -0.0002  0.3106  0.2649
 2195SOL    HW111432   2.892   4.605   7.483  0.8849  1.1235 -1.2020
 2195SOL    HW211433   2.754   4.651   7.523  0.8209 -1.0802  1.4397
 2196SOL     OW11434   0.938   2.914   1.051 -0.2799  0.4315  0.1433
 2196SOL    HW111435   0.843   2.916   1.050 -0.3203  0.9526  1.8913
 2196SOL    HW211436   0.963   2.970   1.124  1.2584 -2.1088  1.7031
 2197SOL     OW11437   0.537   3.030   7.708 -0.1006  0.1134 -0.8404
 2197SOL    HW111438   0.520   3.068   7.621 -1.3949  1.2286 -0.1526
 2197SOL    HW211439   0.466   2.967   7.720  0.0160  0.0378 -0.5687
 2198SOL     OW11440   1.479   9.579   8.487 -0.3666  0.2259 -0.2203
 2198SOL    HW111441   1.501   9.537   8.404  0.9763 -1.5451  0.9666
 2198SOL    HW211442   1.563   9.612   8.520 -0.9431  1.2651  0.2865
 2199SOL     OW11443   9.420   0.626   0.012  0.1922  0.1727  0.3979
 2199SOL    HW111444   9.477   0.586   0.077 -2.6599 -1.1998  2.2874
 2199SOL    HW211445   9.335   0.584   0.026 -1.0596  1.2017 -2.9948
 2200SOL     OW11446   8.955   1.548   7.292  0.1792 -0.4588  0.3618
 2200SOL    HW111447   8.918   1.459   7.293 -0.7356 -0.0932  0.2968
 2200SOL    HW211448   8.967   1.567   7.199  2.8004 -1.4518  0.4036
 2201SOL     OW11449   8.819   5.773   7.405  0.2281  0.6511 -0.7018
 2201SOL    HW111450   8.878   5.720   7.352  0.4580  0.5118 -0.3143
 2201SOL    HW211451   8.876   5.825   7.461  0.0336 -1.4362  1.6155
 2202SOL     OW11452   9.050   1.254   7.616 -0.4835 -0.5843 -0.2861
 2202SOL    HW111453   9.048   1.177   7.560  1.7067 -1.4620  0.7107
 2202SOL    HW211454   8.970   1.249   7.667 -0.1132 -2.5882  0.1837
 2203SOL     OW11455   2.869   4.740   8.696  0.2188 -0.2064  0.1819
 2203SOL    HW111456   2.787   4.789   8.691 -0.3038 -1.1365 -0.5959
 2203SOL    HW211457   2.842   4.648   8.700  1.2516 -0.6168 -1.5414
 2204SOL     OW11458   9.029   2.954   5.429 -0.1739 -0.1972  0.5285
 2204SOL    HW111459   8.941   2.928   5.403 -0.9311  0.1249  2.5783
 2204SOL    HW211460   9.076   2.872   5.441 -0.5505 -0.4113  0.5573
 2205SOL     OW11461   1.091   2.416   7.050  0.2153  0.7887  0.3052
 2205SOL    HW111462   1.097   2.485   7.116 -1.6966  2.0331 -0.7047
 2205SOL    HW211463   1.003   2.426   7.014  0.9403 -0.2868 -1.9483
 2206SOL     OW11464   0.468   2.692   8.068  0.2989 -0.0022 -0.4549
 2206SOL    HW111465   0.506   2.625   8.125 -1.0750 -0.1513  0.3119
 2206SOL    HW211466   0.429   2.643   7.995 -0.6819 -0.0592  0.0921
 2207SOL     OW11467   1.033   2.120   8.264 -0.7730  0.3008  0.1515
 2207SOL    HW111468   0.958   2.060   8.263 -0.3930 -0.3663  2.7961
 2207SOL    HW211469   1.003   2.196   8.313  0.1021  0.2299  0.8297
 2208SOL     OW11470   0.053   2.853   9.098 -0.3588  0.0411  0.1167
 2208SOL    HW111471   0.136   2.878   9.059 -0.8516  1.5397 -0.0418
 2208SOL    HW211472   0.001   2.933   9.096 -1.8613 -0.8936  0.0622
 2209SOL     OW11473   1.322   4.269   0.023 -0.2140 -0.4666  0.0656
 2209SOL    HW111474   1.379   4.263  -0.055 -1.4589 -1.3812 -0.8131
 2209SOL    HW211475   1.353   4.199   0.080 -0.5779 -1.1087 -0.5082
 2210SOL     OW11476   1.731   2.215   9.075  0.3975  0.2399 -0.6614
 2210SOL    HW111477   1.757   2.296   9.118  0.2105  1.0707 -2.0309
 2210SOL    HW211478   1.653   2.239   9.024 -0.1923 -1.0238 -0.3927
 2211SOL     OW11479   2.433   4.184   8.779 -0.1038 -0.2338  0.7666
 2211SOL    HW111480   2.394   4.166   8.864 -1.1335  1.5771  0.7271
 2211SOL    HW211481   2.401   4.113   8.723  0.1840 -1.1673  1.7386
 2212SOL     OW11482   0.003   9.782   7.669  0.0111 -0.3794 -0.2406
 2212SOL    HW111483  -0.018   9.872   7.643  0.5839 -0.5523 -1.3603
 2212SOL    HW211484  -0.004   9.731   7.588 -1.2902 -1.5467  0.5532
 2213SOL     OW11485   1.535   1.277   0.604 -0.3133 -0.1360 -0.0547
 2213SOL    HW111486   1.498   1.259   0.691 -1.3786  1.9577  0.0034
 2213SOL    HW211487   1.583   1.198   0.581 -0.8713 -1.1398  1.9950
 2214SOL     OW11488   9.377   2.287   6.341 -0.1436  0.4210  0.3283
 2214SOL    HW111489   9.372   2.252   6.252  0.3497  0.2477  0.3654
 2214SOL    HW211490   9.464   2.328   6.345 -1.1521  2.7929 -0.1444
 2215SOL     OW11491   0.486   3.497   9.617 -0.4948  0.2761 -0.4128
 2215SOL    HW111492   0.437   3.572   9.582 -0.8094  0.1442 -0.2633
 2215SOL    HW211493   0.578   3.524   9.613 -0.6739  1.1600  0.7981
 2216SOL     OW11494   9.643   2.230   6.600  0.1099 -0.3078  0.4292
 2216SOL    HW111495   9.666   2.315   6.638 -1.7830  0.0312  0.9165
 2216SOL    HW211496   9.624   2.250   6.508 -0.2181 -0.2301  0.5148
 2217SOL     OW11497   3.068   0.834   0.002 -0.1947  0.4476  0.3599
 2217SOL    HW111498   3.102   0.763   0.056 -0.6344 -0.4394 -0.4948
 2217SOL    HW211499   2.977   0.807  -0.017 -0.1410  0.8837 -0.5550
 2218SOL     OW11500   2.867   2.239   0.617 -0.1499  0.3687  0.3823
 2218SOL    HW111501   2.897   2.266   0.704  0.9269 -0.5434  0.3122
 2218SOL    HW211502   2.942   2.254   0.560 -0.8712  1.0204 -0.4164
 2219SOL     OW11503   1.872   2.631   8.488  0.2431 -0.2729 -0.4254
 2219SOL    HW111504   1.792   2.603   8.444 -0.4450  1.1957 -0.2045
 2219SOL    HW211505   1.918   2.550   8.509 -1.1028 -1.1538 -0.7206
 2220SOL     OW11506   9.517   8.942   0.028 -0.4447 -0.3455 -0.1244
 2220SOL    HW111507   9.566   9.012   0.071 -1.7573  0.4055  0.2153
 2220SOL    HW211508   9.431   8.944   0.071  0.0588 -3.4378  1.2748
 2221SOL     OW11509   1.065   3.233   8.908  0.0773 -0.0210  0.1590
 2221SOL    HW111510   1.029   3.278   8.985  1.1072  0.8506  0.1609
 2221SOL    HW211511   1.047   3.292   8.835  0.8563  0.1011  0.0530
 2222SOL     OW11512   0.118   3.138   1.126  0.3315  0.2123  0.0585
 2222SOL    HW111513   0.077   3.225   1.136  0.0137  0.1728 -0.8485
 2222SOL    HW211514   0.212   3.156   1.125  0.2603  0.9493 -3.2330
 2223SOL     OW11515   0.778   1.776   9.185 -0.2732  0.3072 -0.2543
 2223SOL    HW111516   0.707   1.840   9.183  0.0161  0.6289 -0.2550
 2223SOL    HW211517   0.757   1.716   9.113 -1.2250 -0.3461  0.5316
 2224SOL     OW11518   9.182   3.612   7.790  0.2516 -0.3844 -0.0519
 2224SOL    HW111519   9.142   3.548   7.848  0.3215 -0.6989 -0.3464
 2224SOL    HW211520   9.264   3.636   7.833 -0.3312  0.4053  0.6483
 2225SOL     OW11521   1.311   0.886   7.294 -0.3680 -0.2285 -0.1074
 2225SOL    HW111522   1.284   0.824   7.227 -0.1613 -0.9127  0.4328
 2225SOL    HW211523   1.229   0.910   7.338 -0.2433 -1.6215  0.9485
 2226SOL     OW11524   2.446   3.153   9.434  0.1329 -0.1528  0.3947
 2226SOL    HW111525   2.389   3.211   9.384 -0.7574 -0.4762  1.0120
 2226SOL    HW211526   2.410   3.154   9.522  1.3839  0.0282  0.9305
 2227SOL     OW11527   7.747   4.235   8.273  0.1398  0.3156  0.2014
 2227SOL    HW111528   7.819   4.297   8.263  1.4088 -1.0806  0.4907
 2227SOL    HW211529   7.677   4.287   8.313  0.4470  2.0482 -1.3895
 2228SOL     OW11530   8.872   2.158   9.532 -0.5494 -0.4924 -0.3093
 2228SOL    HW111531   8.790   2.167   9.580  0.7837 -1.8159  2.4985
 2228SOL    HW211532   8.847   2.119   9.448 -2.7055 -2.1636  0.9804
 2229SOL     OW11533   1.136   1.368   0.398 -0.6910 -0.1149 -0.7355
 2229SOL    HW111534   1.070   1.435   0.415 -0.0527  0.0537  1.3551
 2229SOL    HW211535   1.210   1.416   0.361 -0.0028  0.4865  1.3319
 2230SOL     OW11536   1.210   3.578   8.894 -0.1471  0.5923 -0.0025
 2230SOL    HW111537   1.195   3.588   8.988 -0.6890 -0.4424  0.0319
 2230SOL    HW211538   1.290   3.525   8.888 -0.1820  0.5544 -0.1338
 2231SOL     OW11539   0.293   3.429   0.583  0.0732 -0.3676  0.5287
 2231SOL    HW111540   0.282   3.351   0.528 -0.5280 -1.7378  2.4600
 2231SOL    HW211541   0.375   3.469   0.552 -0.9087 -0.2713 -2.1898
 2232SOL     OW11542   8.196   1.471   0.988 -0.5384  0.6495  0.2799
 2232SOL    HW111543   8.284   1.506   0.973 -0.2916 -0.2124 -0.3724
 2232SOL    HW211544   8.143   1.506   0.917 -0.3452 -0.0962 -0.2385
 2233SOL     OW11545   9.395   2.637   0.427  0.0178 -0.6745 -0.0326
 2233SOL    HW111546   9.394   2.593   0.512  0.8331 -0.9667 -0.1704
 2233SOL    HW211547   9.428   2.724   0.446 -1.3822 -0.1572  0.2031
 2234SOL     OW11548   8.486   2.823   7.809  0.3039 -0.6322 -0.2242
 2234SOL    HW111549   8.471   2.778   7.725  1.3040 -0.2335 -0.6288
 2234SOL    HW211550   8.535   2.760   7.862 -1.0530 -1.2096  0.4005
 2235SOL     OW11551   0.119   2.651   1.097 -0.8592  0.2715  0.3204
 2235SOL    HW111552   0.067   2.732   1.099 -0.6904  0.4716 -1.4399
 2235SOL    HW211553   0.059   2.585   1.063 -0.0841  0.4564 -1.5286
 2236SOL     OW11554   1.495   3.232   0.338  0.0370  1.0071 -0.1596
 2236SOL    HW111555   1.563   3.266   0.395 -0.4596 -0.1967  1.2124
 2236SOL    HW211556   1.542   3.190   0.266  0.8519 -1.0467  1.4788
 2237SOL     OW11557   9.675   8.794   9.522 -0.4134 -0.0155  0.3499
 2237SOL    HW111558   9.735   8.863   9.549 -0.4816  0.9983 -1.9092
 2237SOL    HW211559   9.607   8.793   9.590 -0.2329  1.9035  0.6061
 2238SOL     OW11560   1.867   2.727   8.734 -0.5244 -0.4126 -0.3449
 2238SOL    HW111561   1.952   2.690   8.758 -0.4100 -0.7366 -1.2172
 2238SOL    HW211562   1.841   2.678   8.656 -0.9574  0.4796 -0.7765
 2239SOL     OW11563   0.876   6.080   9.183  0.0753  0.2891 -0.0180
 2239SOL    HW111564   0.939   6.011   9.204  0.3766  0.3138 -0.7820
 2239SOL    HW211565   0.803   6.066   9.242  0.4875 -0.1904  0.3831
 2240SOL     OW11566   0.100   0.926   9.723 -0.2403 -0.0870  0.4875
 2240SOL    HW111567   0.055   0.892   9.646  1.0974 -1.3206  0.2185
 2240SOL    HW211568   0.150   0.852   9.757 -0.7320  0.4336  2.5311
 2241SOL     OW11569   2.395   2.673   6.087  0.1857 -0.2917 -0.2549
 2241SOL    HW111570   2.425   2.723   6.011 -1.2153  0.5051 -0.3293
 2241SOL    HW211571   2.390   2.582   6.055 -3.0013  0.3603 -2.0715
 2242SOL     OW11572   0.784   3.303   0.870 -0.0202  0.3184 -0.3915
 2242SOL    HW111573   0.745   3.356   0.802 -1.1153  0.2135  0.1371
 2242SOL    HW211574   0.861   3.264   0.829  0.1604  1.3976 -1.1188
 2243SOL     OW11575   1.496   1.943   9.653  0.6766 -0.0025 -0.2681
 2243SOL    HW111576   1.443   1.869   9.683 -1.4360  1.0994 -1.0573
 2243SOL    HW211577   1.526   1.917   9.566 -0.1666  0.0936 -0.5982
 2244SOL     OW11578   7.622   4.117   6.690 -0.0667  0.0370 -0.3161
 2244SOL    HW111579   7.685   4.134   6.621  0.3229 -0.4900 -0.0979
 2244SOL    HW211580   7.647   4.176   6.761 -0.6368  0.7764 -0.7219
 2245SOL     OW11581   1.516   2.421   8.955  0.1713 -0.3433 -0.5655
 2245SOL    HW111582   1.601   2.463   8.969  0.1311 -0.7889  1.2877
 2245SOL    HW211583   1.502   2.427   8.860  3.2212 -2.0408 -1.2830
 2246SOL     OW11584   8.618   2.583   7.559 -0.9364 -0.6596  0.6927
 2246SOL    HW111585   8.654   2.509   7.609 -1.3701 -0.8972  0.6536
 2246SOL    HW211586   8.694   2.638   7.541 -0.3490 -1.7971 -0.4901
 2247SOL     OW11587   9.088   2.160   6.938  0.2996 -0.6796 -0.1862
 2247SOL    HW111588   9.133   2.075   6.946  1.2770 -0.1033  0.8450
 2247SOL    HW211589   9.035   2.166   7.018 -0.5333 -0.7447 -0.7318
 2248SOL     OW11590   0.233   4.893   8.444 -0.6135 -0.6870 -0.1366
 2248SOL    HW111591   0.204   4.898   8.535 -1.3076 -0.4490 -0.3622
 2248SOL    HW211592   0.290   4.817   8.442 -0.3537 -0.5207  0.5620
 2249SOL     OW11593   2.169   3.201   8.730  0.3228  0.0195  0.2367
 2249SOL    HW111594   2.201   3.144   8.661 -1.5577 -0.6444 -0.1326
 2249SOL    HW211595   2.107   3.260   8.686 -0.4394 -0.0141  1.2390
 2250SOL     OW11596   0.332   3.032   7.280  0.2824 -0.2552  0.1395
 2250SOL    HW111597   0.273   3.104   7.256  1.0658  0.2066 -0.4622
 2250SOL    HW211598   0.382   3.066   7.355  0.6341 -0.1719 -0.1284
 2251SOL     OW11599   8.659   1.697   9.691 -0.4690 -0.6264 -0.0924
 2251SOL    HW111600   8.575   1.743   9.693  0.5474  1.3811 -0.6579
 2251SOL    HW211601   8.703   1.724   9.772  0.6439  0.4826 -1.0195
 2252SOL     OW11602   9.844   2.969   7.165 -0.3693 -1.0430 -0.7381
 2252SOL    HW111603   9.861   3.042   7.226 -3.5511 -1.8003  1.3492
 2252SOL    HW211604   9.912   2.905   7.184  0.3979 -0.0549 -0.0436
 2253SOL     OW11605   1.857   3.247   9.104  0.1630 -0.0051  0.1880
 2253SOL    HW111606   1.922   3.317   9.100  0.3048 -0.1517 -0.0437
 2253SOL    HW211607   1.777   3.290   9.135 -1.0648  1.2222 -4.0608
 2254SOL     OW11608   1.536   9.074   6.172  0.1268  0.2878 -0.2849
 2254SOL    HW111609   1.615   9.086   6.119  1.4349  1.7028  1.8256
 2254SOL    HW211610   1.465   9.071   6.108  1.7055  0.6109 -2.1691
 2255SOL     OW11611   0.440   2.275   8.528  0.7209 -0.2330  0.1303
 2255SOL    HW111612   0.489   2.294   8.448 -0.9088 -2.7281 -1.5747
 2255SOL    HW211613   0.348   2.288   8.505  0.1814 -1.4118  1.4432
 2256SOL     OW11614   0.972   0.655   7.298  0.4342  0.0133 -0.1670
 2256SOL    HW111615   0.974   0.704   7.215  0.0323  0.2754 -0.0300
 2256SOL    HW211616   1.018   0.574   7.279  0.1280 -0.0385 -0.7260
 2257SOL     OW11617   9.754   2.381   7.157 -0.0901  0.1257 -0.1990
 2257SOL    HW111618   9.762   2.414   7.068  2.3900 -1.4154 -0.6364
 2257SOL    HW211619   9.721   2.455   7.208  1.7693  2.1532 -1.7639
 2258SOL     OW11620   0.956   1.941   6.421  0.3669  0.3750  0.2478
 2258SOL    HW111621   0.973   1.924   6.329  0.7617  0.8379  0.2319
 2258SOL    HW211622   1.039   1.973   6.456  0.1039  0.6165  0.6608
 2259SOL     OW11623   9.428   2.485   7.990  0.2396 -0.2889 -0.6220
 2259SOL    HW111624   9.521   2.460   7.991 -0.1435 -1.8365 -1.4693
 2259SOL    HW211625   9.415   2.526   7.905 -0.0252 -0.8108 -0.8379
 2260SOL     OW11626   2.775   4.486   8.742 -0.4177  0.1422  0.1227
 2260SOL    HW111627   2.685   4.501   8.771 -0.3355  0.5701  0.1711
 2260SOL    HW211628   2.789   4.392   8.752 -0.1874  0.3494  2.0554
 2261SOL     OW11629   1.397   4.179   7.608  0.1375  0.4521  0.0761
 2261SOL    HW111630   1.410   4.258   7.554 -2.2355 -0.5537 -2.1734
 2261SOL    HW211631   1.313   4.193   7.650 -1.0039 -1.3731 -1.4568
 2262SOL     OW11632   7.680   4.313   0.217  0.5131 -0.4274 -0.0024
 2262SOL    HW111633   7.749   4.301   0.151  1.1881 -2.3756  0.9922
 2262SOL    HW211634   7.609   4.256   0.188 -1.3479  2.4778 -1.7039
 2263SOL     OW11635   0.196   2.552   8.323  0.0191 -0.4092 -0.8148
 2263SOL    HW111636   0.194   2.600   8.406  1.6247 -0.3425 -0.7868
 2263SOL    HW211637   0.207   2.621   8.257 -0.4372 -0.5323 -1.0244
 2264SOL     OW11638   2.879   0.706   7.287  0.4566  0.3201  0.0314
 2264SOL    HW111639   2.883   0.648   7.211  0.4997  0.4411 -0.0590
 2264SOL    HW211640   2.909   0.651   7.360  0.1334  0.1187  0.0154
 2265SOL     OW11641   7.800   6.800   9.465 -0.3612 -0.0865 -0.1925
 2265SOL    HW111642   7.850   6.840   9.393 -0.5065  1.1687  0.3855
 2265SOL    HW211643   7.709   6.820   9.445 -0.4925 -0.7502 -0.2651
 2266SOL     OW11644   1.242   9.359   8.923  0.6790 -0.2636  0.0754
 2266SOL    HW111645   1.319   9.315   8.958  0.1870 -2.9787 -1.9245
 2266SOL    HW211646   1.276   9.438   8.881  2.3032 -1.1007 -0.2514
 2267SOL     OW11647   0.389   2.788   4.999 -0.9324 -0.2406  0.0720
 2267SOL    HW111648   0.313   2.815   5.050  0.2763  2.1435  0.7607
 2267SOL    HW211649   0.353   2.730   4.932 -2.7871 -2.3599  2.6641
 2268SOL     OW11650   9.741   2.931   7.857  0.1719  0.4833  0.7065
 2268SOL    HW111651   9.701   2.847   7.834  2.5285 -0.7835  0.9699
 2268SOL    HW211652   9.766   2.969   7.773 -1.4001  1.2603  0.5431
 2269SOL     OW11653   0.014   3.582   7.633  0.7402  0.3867 -0.7739
 2269SOL    HW111654   0.084   3.643   7.658 -0.2311  1.2902 -0.1797
 2269SOL    HW211655  -0.042   3.633   7.575 -0.4841  0.3090  0.3059
 2270SOL     OW11656   0.972   3.266   0.086 -0.1490  0.0700 -0.0144
 2270SOL    HW111657   1.043   3.288   0.025  0.2765 -0.2595  0.3581
 2270SOL    HW211658   0.990   3.176   0.113 -0.9349 -0.1618 -0.2193
 2271SOL     OW11659   2.433   3.221   9.043  0.2100 -0.0344 -0.1842
 2271SOL    HW111660   2.345   3.201   9.011  0.8093 -0.6036 -1.5712
 2271SOL    HW211661   2.446   3.163   9.117 -1.0081  0.8925  0.8038
 2272SOL     OW11662   8.855   5.104   8.498  0.1600 -0.5265  0.2136
 2272SOL    HW111663   8.783   5.046   8.471 -1.8242  1.3653  1.1495
 2272SOL    HW211664   8.930   5.073   8.447 -1.4390 -2.2056 -1.3092
 2273SOL     OW11665   8.479   1.582   7.694 -0.2875 -0.4496 -0.1521
 2273SOL    HW111666   8.466   1.626   7.609 -2.2367 -2.0953 -0.7960
 2273SOL    HW211667   8.413   1.622   7.751  1.3814  1.0410  0.8132
 2274SOL     OW11668   0.409   4.171   7.196 -0.3314  0.2887 -0.4156
 2274SOL    HW111669   0.502   4.148   7.200 -0.7236 -1.2770  0.8021
 2274SOL    HW211670   0.408   4.262   7.167  1.6103  0.5942  0.3435
 2275SOL     OW11671   1.428   2.256   9.388  0.1592  0.3275 -0.1284
 2275SOL    HW111672   1.363   2.320   9.415  1.7478  1.2885  1.7085
 2275SOL    HW211673   1.401   2.175   9.431  0.3135  0.8023  0.9072
 2276SOL     OW11674   0.684   9.751   7.295  0.6312 -0.6553  0.4649
 2276SOL    HW111675   0.601   9.717   7.261 -0.2380  1.3374  0.5010
 2276SOL    HW211676   0.672   9.751   7.390  0.8369 -0.7460  0.4907
 2277SOL     OW11677   9.658   0.331   7.883  0.4549  0.6090  0.0253
 2277SOL    HW111678   9.677   0.420   7.855 -0.1147  0.3517 -1.2959
 2277SOL    HW211679   9.690   0.326   7.973  1.1855  1.9039 -0.1390
 2278SOL     OW11680   2.666   4.902   0.010 -0.3785 -0.0047  0.0157
 2278SOL    HW111681   2.728   4.949   0.066 -0.4046  2.6012 -1.9459
 2278SOL    HW211682   2.692   4.926  -0.079 -1.1533 -2.9257 -1.1123
 2279SOL     OW11683   9.220   3.539   9.095 -0.1382  0.1351 -0.6815
 2279SOL    HW111684   9.195   3.584   9.014 -2.0853  1.8640  0.7862
 2279SOL    HW211685   9.293   3.591   9.129 -0.7659  0.7530 -0.2453
 2280SOL     OW11686   2.897   3.553   7.350  0.5050 -0.0507 -0.0787
 2280SOL    HW111687   2.822   3.525   7.299  1.4100 -0.6753 -1.1049
 2280SOL    HW211688   2.925   3.474   7.397  1.8113 -0.4234 -1.3898
 2281SOL     OW11689   0.987   1.813   8.163  0.5115 -0.5392 -0.3446
 2281SOL    HW111690   1.059   1.872   8.141  0.4969 -0.9912 -1.6661
 2281SOL    HW211691   0.914   1.871   8.185  0.9454 -0.0777 -0.0965
 2282SOL     OW11692   9.359   1.254   7.095  0.7722  0.0219 -0.1145
 2282SOL    HW111693   9.402   1.273   7.179  1.1611  0.9164 -0.5014
 2282SOL    HW211694   9.265   1.256   7.115  0.8540  0.6004  0.2273
 2283SOL     OW11695   1.189   9.550   0.452  0.4559  0.9112  0.1693
 2283SOL    HW111696   1.227   9.635   0.432  0.7974  0.2983 -2.0657
 2283SOL    HW211697   1.264   9.491   0.461  0.1863  0.1000 -2.2588
 2284SOL     OW11698   1.332   1.546   0.607  0.0093 -0.1127  0.1969
 2284SOL    HW111699   1.325   1.635   0.572  0.3474 -0.1136  0.1269
 2284SOL    HW211700   1.296   1.552   0.696 -2.1051 -0.3852 -0.5824
 2285SOL     OW11701   1.116   2.759   7.449  0.0167 -0.1478  0.0824
 2285SOL    HW111702   1.181   2.777   7.517 -0.0043 -0.8185  0.2822
 2285SOL    HW211703   1.039   2.810   7.475  0.4478  0.6493 -0.1532
 2286SOL     OW11704   2.133   3.430   7.660 -0.5004 -0.5493 -0.5621
 2286SOL    HW111705   2.208   3.483   7.632  2.0982 -0.9523  4.3937
 2286SOL    HW211706   2.147   3.345   7.620  0.5092 -0.0260 -1.3850
 2287SOL     OW11707   9.509   2.055   8.374  0.1962 -0.4049 -0.1251
 2287SOL    HW111708   9.482   2.075   8.464 -0.1848  0.3579 -0.4019
 2287SOL    HW211709   9.429   2.063   8.322  0.6012  0.1650 -0.6831
 2288SOL     OW11710   1.278   2.612   9.027  0.4570  0.2099 -0.7495
 2288SOL    HW111711   1.306   2.677   9.091  0.2677 -0.1527 -0.2949
 2288SOL    HW211712   1.185   2.629   9.015 -0.1010 -1.3196  0.9895
 2289SOL     OW11713   9.515   3.346   8.167 -0.6271  0.3864 -0.4437
 2289SOL    HW111714   9.604   3.346   8.131  0.3640  0.4323  1.8580
 2289SOL    HW211715   9.501   3.256   8.198  0.5172  1.3539  3.3779
 2290SOL     OW11716   9.576   4.213   7.491  0.0181 -0.2600  0.2210
 2290SOL    HW111717   9.533   4.208   7.576 -0.2232 -0.3123  0.0969
 2290SOL    HW211718   9.585   4.307   7.474  0.1129 -0.2491  0.3260
 2291SOL     OW11719   2.600   2.732   6.713 -0.3203 -0.3234 -0.2992
 2291SOL    HW111720   2.510   2.719   6.741  0.0647  1.3696  2.0634
 2291SOL    HW211721   2.597   2.808   6.655 -0.3352  0.1974  0.3778
 2292SOL     OW11722   9.845   2.899   1.101 -0.3062  0.1815 -0.1760
 2292SOL    HW111723   9.887   2.983   1.121 -0.2119  0.7954 -2.6613
 2292SOL    HW211724   9.752   2.914   1.120  0.0877 -0.2661  2.5366
 2293SOL     OW11725   1.302   3.304   7.866  0.0475  0.5691  0.4563
 2293SOL    HW111726   1.380   3.277   7.915 -0.1772  0.7483  0.9264
 2293SOL    HW211727   1.231   3.252   7.904 -0.0964  0.5599  0.1759
 2294SOL     OW11728   9.806   3.774   9.419 -0.1183  0.3323 -0.4545
 2294SOL    HW111729   9.862   3.847   9.447 -1.8214  1.1432  0.9897
 2294SOL    HW211730   9.766   3.742   9.499  0.1876 -1.9097 -1.1239
 2295SOL     OW11731   1.530   0.254   7.463 -0.2475 -0.0585 -0.5518
 2295SOL    HW111732   1.488   0.334   7.493 -0.8048 -0.3593 -0.5166
 2295SOL    HW211733   1.497   0.241   7.374 -0.6379 -0.5787 -0.3331
 2296SOL     OW11734   1.537   0.951   0.619 -0.6512  0.5828  0.7529
 2296SOL    HW111735   1.552   1.005   0.696 -2.4192  0.5284  1.1937
 2296SOL    HW211736   1.556   0.862   0.648  2.7323  0.8858 -0.1072
 2297SOL     OW11737   1.504   1.861   8.232 -0.1712 -0.9022  0.4844
 2297SOL    HW111738   1.525   1.945   8.192 -0.3440 -1.1378 -0.1078
 2297SOL    HW211739   1.437   1.881   8.297 -0.8242 -0.7037 -0.2396
 2298SOL     OW11740   7.319   1.421   7.369 -0.6590  0.0480 -1.1396
 2298SOL    HW111741   7.397   1.460   7.331  0.0034  0.0693  0.1739
 2298SOL    HW211742   7.278   1.373   7.297  0.7840 -0.2900 -1.7649
 2299SOL     OW11743   1.327   4.556   0.305  0.1524  0.0962  0.0674
 2299SOL    HW111744   1.379   4.554   0.225  0.7462  1.3840  0.4009
 2299SOL    HW211745   1.317   4.649   0.325 -2.3391 -0.0742 -0.0116
 2300SOL     OW11746   1.480   0.752   0.332  0.1706  0.1323  0.1786
 2300SOL    HW111747   1.558   0.701   0.311 -1.1063 -2.0084  0.2875
 2300SOL    HW211748   1.465   0.807   0.255  0.7888 -0.7411 -0.5879
 2301SOL     OW11749   2.119   1.138   0.409  0.5066  0.2109 -0.2826
 2301SOL    HW111750   2.039   1.136   0.357  1.3714 -1.8899 -1.6828
 2301SOL    HW211751   2.177   1.198   0.363  0.5379 -0.0421 -0.5739
 2302SOL     OW11752   8.509   4.183   0.256 -0.3225 -0.5375  0.5887
 2302SOL    HW111753   8.464   4.104   0.225 -1.6565  0.0889  0.8550
 2302SOL    HW211754   8.590   4.151   0.295 -0.8388 -1.7730  0.6858
 2303SOL     OW11755   9.366   4.492   0.038 -0.1861 -0.5951  0.1393
 2303SOL    HW111756   9.350   4.450   0.123  0.5441  0.1680  0.6674
 2303SOL    HW211757   9.448   4.539   0.050  0.0636 -0.6973 -1.0858
 2304SOL     OW11758   9.680   2.966   9.699 -0.0994  0.4894 -0.2863
 2304SOL    HW111759   9.686   2.900   9.629 -0.1844  0.9992 -0.7771
 2304SOL    HW211760   9.716   3.046   9.660  0.1109  0.7078  0.3458
 2305SOL     OW11761   8.622   9.307   1.883  0.0845 -0.1536 -0.0317
 2305SOL    HW111762   8.613   9.402   1.895  0.3933 -0.2848  1.5228
 2305SOL    HW211763   8.547   9.270   1.929 -0.1270 -0.6627 -0.7797
 2306SOL     OW11764   0.307   2.315   0.043 -0.0397 -0.3937 -0.0742
 2306SOL    HW111765   0.348   2.254  -0.018 -0.3492  0.6071 -1.3235
 2306SOL    HW211766   0.323   2.401   0.004  0.9848  0.4044  1.9807
 2307SOL     OW11767   9.680   0.848   7.955 -0.1028 -0.3303  0.2714
 2307SOL    HW111768   9.679   0.842   7.860 -2.2546  0.5799  0.1547
 2307SOL    HW211769   9.720   0.933   7.973  1.1441 -0.8940  0.2616
 2308SOL     OW11770   1.226   1.003   2.081 -0.2930 -0.4972 -0.8560
 2308SOL    HW111771   1.297   1.053   2.121 -0.2434 -0.5669 -0.8559
 2308SOL    HW211772   1.267   0.922   2.052 -0.6798 -1.2248  0.5519
 2309SOL     OW11773   2.615   1.285   0.009 -0.0661 -0.4492 -0.5890
 2309SOL    HW111774   2.562   1.228  -0.047  0.5806  0.1198 -1.8374
 2309SOL    HW211775   2.590   1.374  -0.018  0.7951 -0.1732 -0.5053
 2310SOL     OW11776   1.530   3.180   8.104  0.1469  1.1932 -0.1135
 2310SOL    HW111777   1.533   3.131   8.187 -0.8044  0.6554 -0.3881
 2310SOL    HW211778   1.526   3.272   8.131  1.4699  1.1317  0.4086
 2311SOL     OW11779   9.521   1.587   9.701 -0.0609  0.2107  0.5452
 2311SOL    HW111780   9.558   1.518   9.756 -4.6798 -1.1785  2.3701
 2311SOL    HW211781   9.501   1.658   9.762 -0.6970  0.7423 -0.2540
 2312SOL     OW11782   9.355   2.040   8.948 -0.4881  0.0826  0.2008
 2312SOL    HW111783   9.285   2.022   8.885  1.4029 -0.2935 -1.9102
 2312SOL    HW211784   9.397   2.119   8.914  0.3354  0.1042  1.2336
 2313SOL     OW11785   2.103   3.269   0.330  0.0501  0.9780 -0.4990
 2313SOL    HW111786   2.026   3.316   0.297  0.9534  1.8050 -1.5179
 2313SOL    HW211787   2.142   3.229   0.253  1.5679  1.9905 -0.3077
 2314SOL     OW11788   0.737   2.002   1.541 -0.6992  0.5132 -0.2464
 2314SOL    HW111789   0.711   1.945   1.613  1.1699 -0.9057 -0.6217
 2314SOL    HW211790   0.798   2.065   1.581  0.8435 -0.6740 -0.6468
 2315SOL     OW11791   0.388   3.109   9.314  0.0406 -0.3606 -0.3318
 2315SOL    HW111792   0.360   3.068   9.232  0.4826 -1.1378 -0.1017
 2315SOL    HW211793   0.483   3.101   9.313  0.0856  0.1118  0.0151
 2316SOL     OW11794   1.755   0.698   8.855 -0.7425  0.8800  0.0052
 2316SOL    HW111795   1.847   0.713   8.880 -0.3446  0.9074 -1.3939
 2316SOL    HW211796   1.754   0.709   8.760 -1.5841 -2.1994 -0.4469
 2317SOL     OW11797   0.416   3.954   0.095  0.3861  0.3689 -0.4763
 2317SOL    HW111798   0.463   3.963   0.012  0.3238  0.9492 -0.4503
 2317SOL    HW211799   0.468   3.891   0.145  1.2899  1.1802 -0.3521
 2318SOL     OW11800   1.479   5.002   9.176  0.4311  0.5973 -0.3708
 2318SOL    HW111801   1.573   4.985   9.173  0.2317 -1.2834  1.5453
 2318SOL    HW211802   1.464   5.040   9.262 -0.8931 -2.3042  0.8132
 2319SOL     OW11803   0.392   1.847   8.810 -0.2044 -0.0569  0.2042
 2319SOL    HW111804   0.455   1.882   8.747  1.7976 -1.8705  1.0685
 2319SOL    HW211805   0.341   1.923   8.837  2.3623  1.7885  0.2794
 2320SOL     OW11806   8.528   3.242   1.574  0.0613 -0.8618 -0.4225
 2320SOL    HW111807   8.581   3.257   1.496  0.2273  0.4971 -0.0831
 2320SOL    HW211808   8.580   3.182   1.627  0.4497 -0.9262 -0.8667
 2321SOL     OW11809   0.384   2.170   8.975  0.3995  0.1471  0.0391
 2321SOL    HW111810   0.316   2.110   8.945 -0.7341  1.2999  0.2360
 2321SOL    HW211811   0.343   2.221   9.045  0.6091  2.6015 -1.4914
 2322SOL     OW11812   2.967   3.726   3.904 -0.5585  0.0147 -0.1867
 2322SOL    HW111813   2.879   3.722   3.939 -0.8940  2.1876 -0.6856
 2322SOL    HW211814   2.962   3.680   3.820 -1.0539 -0.3475  0.0379
 2323SOL     OW11815   0.469   2.053   0.012  0.8009  0.0168  0.0466
 2323SOL    HW111816   0.466   2.024  -0.079 -3.0790 -0.4001  0.1196
 2323SOL    HW211817   0.405   1.997   0.056  0.3168  2.2164  2.3507
 2324SOL     OW11818   1.544   0.974   9.144  0.5377 -0.2088 -0.4209
 2324SOL    HW111819   1.453   0.970   9.173 -0.5890  0.3143 -3.4377
 2324SOL    HW211820   1.568   1.066   9.153  0.5883 -0.2484 -0.1401
 2325SOL     OW11821   0.065   4.530   9.459  0.8422 -0.0359 -0.0263
 2325SOL    HW111822   0.133   4.539   9.526  1.2552 -1.3338 -0.2512
 2325SOL    HW211823  -0.015   4.510   9.509  0.6214  1.3116  0.2231
 2326SOL     OW11824   9.662   2.986   9.346 -0.1116  0.3740  0.0501
 2326SOL    HW111825   9.583   3.040   9.343 -0.8287 -0.6656 -2.0209
 2326SOL    HW211826   9.718   3.029   9.410 -2.3213  1.1870  1.5704
 2327SOL     OW11827   1.929   1.238   9.208  0.4381 -0.2405  0.0221
 2327SOL    HW111828   1.842   1.249   9.247  0.5199  0.1086  0.1048
 2327SOL    HW211829   1.938   1.311   9.147  0.6535 -0.3056 -0.0259
 2328SOL     OW11830   9.651   3.369   9.832 -0.1844 -0.5496  0.1105
 2328SOL    HW111831   9.686   3.286   9.863  2.3048  0.7668  1.1613
 2328SOL    HW211832   9.598   3.402   9.905  0.7072 -0.2084  0.6205
 2329SOL     OW11833   1.729   4.537   1.601 -0.1054 -0.2392  0.3937
 2329SOL    HW111834   1.795   4.497   1.545 -0.7299 -1.9391  0.7914
 2329SOL    HW211835   1.742   4.631   1.591  0.5463 -0.4936 -1.7020
 2330SOL     OW11836   1.240   1.987   8.000 -0.5621 -0.0565 -0.2688
 2330SOL    HW111837   1.269   1.900   7.973  1.7189  0.7773 -0.7800
 2330SOL    HW211838   1.184   2.018   7.928 -0.8771 -0.8540 -0.3695
 2331SOL     OW11839   0.622   8.815   7.171  0.4129  0.1018  0.2705
 2331SOL    HW111840   0.572   8.887   7.133  1.3225  0.2008 -0.8087
 2331SOL    HW211841   0.584   8.736   7.132  0.9881  0.1704 -0.4569
 2332SOL     OW11842   8.183   4.088   7.959  0.0969  0.0091 -0.0573
 2332SOL    HW111843   8.229   4.171   7.946 -1.7607  1.2368  0.8500
 2332SOL    HW211844   8.232   4.044   8.029  2.3739 -0.7193 -1.9903
 2333SOL     OW11845   9.639   3.685   9.217 -0.7412 -0.3943 -0.6557
 2333SOL    HW111846   9.667   3.715   9.131  2.3371 -0.4941  0.1866
 2333SOL    HW211847   9.706   3.717   9.277 -3.5111  0.9361  2.0002
 2334SOL     OW11848   2.327   5.498   0.981 -0.1464 -0.4461  0.5718
 2334SOL    HW111849   2.350   5.406   0.989  0.8341 -0.2523  0.1567
 2334SOL    HW211850   2.243   5.507   1.027 -0.3523 -1.5746  0.4329
 2335SOL     OW11851   8.615   2.443   8.650 -0.2413 -0.5327 -0.3527
 2335SOL    HW111852   8.519   2.444   8.641 -0.1052  2.3769 -3.3755
 2335SOL    HW211853   8.633   2.500   8.725 -0.8576 -0.3703 -0.3204
 2336SOL     OW11854   8.885   3.767   8.285  0.0834 -0.0854 -0.3816
 2336SOL    HW111855   8.796   3.785   8.316  0.0761 -1.1698  0.2871
 2336SOL    HW211856   8.942   3.823   8.337 -0.2151  0.8720 -1.0500
 2337SOL     OW11857   0.196   3.962   9.725 -0.1537 -0.3542  0.2635
 2337SOL    HW111858   0.206   4.056   9.738 -0.1498 -0.5040  1.4688
 2337SOL    HW211859   0.250   3.923   9.794  0.2443 -1.2418 -0.5334
 2338SOL     OW11860   1.351   3.037   8.907  0.5763 -0.0551  0.5000
 2338SOL    HW111861   1.354   3.048   9.002 -0.0068  1.2506  0.3893
 2338SOL    HW211862   1.401   3.111   8.873  0.7802 -0.5152 -0.2121
 2339SOL     OW11863   1.296   1.986   8.385 -0.0841 -0.0717 -0.3795
 2339SOL    HW111864   1.219   1.941   8.419 -1.4336  2.5125  0.1977
 2339SOL    HW211865   1.325   2.043   8.456  1.0621  0.6023 -1.3347
 2340SOL     OW11866   8.685   9.201   0.183  0.0751 -0.5017 -0.7700
 2340SOL    HW111867   8.710   9.249   0.263 -0.6635 -0.0179 -0.8171
 2340SOL    HW211868   8.618   9.139   0.213  0.4936 -0.9957 -0.8470
 2341SOL     OW11869   2.725   3.093   9.456  0.4527 -0.2919 -0.5882
 2341SOL    HW111870   2.744   3.153   9.528  1.7518 -3.3911  1.9532
 2341SOL    HW211871   2.630   3.086   9.455  0.3360  1.0607 -0.3010
 2342SOL     OW11872   1.880   4.713   6.809  0.1388 -0.1320 -0.3754
 2342SOL    HW111873   1.924   4.756   6.736  0.9344 -0.5844 -0.1746
 2342SOL    HW211874   1.797   4.760   6.819  0.3459  0.3959 -1.0957
 2343SOL     OW11875   8.777   1.158   8.029  1.0596  0.1441 -0.0980
 2343SOL    HW111876   8.837   1.111   7.971  0.4360  0.0783 -0.7018
 2343SOL    HW211877   8.713   1.197   7.970  1.2280  1.2661  0.4469
 2344SOL     OW11878   0.987   1.202   0.207  0.1239 -0.2299 -0.3649
 2344SOL    HW111879   0.913   1.152   0.240 -0.1612  0.2164 -0.3327
 2344SOL    HW211880   1.024   1.245   0.284 -0.0136  0.1163 -0.4942
 2345SOL     OW11881   9.371   2.299   2.025  0.2331 -0.1554 -0.3905
 2345SOL    HW111882   9.343   2.342   1.945  0.9681 -1.7101 -1.5263
 2345SOL    HW211883   9.290   2.268   2.066 -0.1229  0.4292 -0.6393
 2346SOL     OW11884   0.610   9.409   0.730  0.3885  0.0532 -0.0770
 2346SOL    HW111885   0.684   9.443   0.781 -0.0146  0.1318  0.4687
 2346SOL    HW211886   0.535   9.414   0.791 -0.1702  0.4614 -0.7805
 2347SOL     OW11887   3.195   2.852   9.327  0.7015 -0.2604  0.2429
 2347SOL    HW111888   3.205   2.759   9.307  0.2883 -0.5967  1.5460
 2347SOL    HW211889   3.204   2.858   9.422  0.8395  1.0503  0.1672
 2348SOL     OW11890   8.590   5.361   1.308 -0.6108 -0.2911 -0.0478
 2348SOL    HW111891   8.680   5.350   1.339  0.2774  0.0631 -2.2507
 2348SOL    HW211892   8.589   5.449   1.269 -0.3704 -1.9358 -4.3228
 2349SOL     OW11893   9.423   2.874   0.016  0.1068  0.0210 -0.6545
 2349SOL    HW111894   9.404   2.780   0.022  0.0536  0.1034  0.5982
 2349SOL    HW211895   9.506   2.879  -0.031 -0.2256 -0.6141 -1.3262
 2350SOL     OW11896   0.222   3.645   0.869  0.3240  0.2630 -0.6230
 2350SOL    HW111897   0.279   3.570   0.857 -1.8825 -1.6724  0.2755
 2350SOL    HW211898   0.138   3.618   0.831 -1.4399  0.9962  2.4152
 2351SOL     OW11899   1.050   3.723   0.720  0.4198 -0.5069 -0.2167
 2351SOL    HW111900   0.978   3.742   0.780  0.1730 -0.1271 -0.6271
 2351SOL    HW211901   1.025   3.642   0.676  0.6886 -0.8881  0.3219
 2352SOL     OW11902   0.002   2.146   9.747  0.2986  0.0972 -0.1370
 2352SOL    HW111903   0.060   2.100   9.808 -0.2191 -0.4807 -0.0752
 2352SOL    HW211904   0.015   2.239   9.768  1.9935  0.0608 -0.8312
 2353SOL     OW11905   9.220   1.096   0.030  0.0151  0.0934 -0.3133
 2353SOL    HW111906   9.305   1.060   0.007  0.3468  0.6461  0.0245
 2353SOL    HW211907   9.202   1.062   0.118 -1.4297 -2.3408 -1.4282
 2354SOL     OW11908   0.184   2.304   9.111  0.7762 -0.4153  0.2888
 2354SOL    HW111909   0.103   2.306   9.162  0.6165 -0.5859  0.0432
 2354SOL    HW211910   0.155   2.297   9.020  1.0229  1.0794  0.0652
 2355SOL     OW11911   0.822   3.396   9.730 -0.0291  0.6273 -0.2811
 2355SOL    HW111912   0.850   3.487   9.739  1.8353  0.0517  0.1863
 2355SOL    HW211913   0.821   3.362   9.820 -0.9053  0.2348 -0.4299
 2356SOL     OW11914   8.602   9.613   9.712 -0.3570 -0.0827 -0.1846
 2356SOL    HW111915   8.613   9.519   9.727  0.9561 -0.5065 -3.1019
 2356SOL    HW211916   8.508   9.629   9.725 -0.4364 -1.5546  1.3395
 2357SOL     OW11917   1.944   0.422   9.190 -0.1186  0.1413 -0.1037
 2357SOL    HW111918   1.966   0.510   9.221  0.3487 -0.7778  2.4286
 2357SOL    HW211919   2.018   0.396   9.136 -0.0247  1.0979 -0.4522
 2358SOL     OW11920   0.603   0.029   9.302 -0.4410  0.1848  0.3410
 2358SOL    HW111921   0.622   0.070   9.218 -0.7601  0.7588  0.5388
 2358SOL    HW211922   0.679  -0.028   9.319  1.1263  2.3336  1.0660
 2359SOL     OW11923   2.279   1.754   0.452 -0.3782 -0.2296  0.2718
 2359SOL    HW111924   2.229   1.695   0.509 -1.1808 -0.7303 -0.9153
 2359SOL    HW211925   2.235   1.838   0.460 -0.5510 -0.3235  0.3138
 2360SOL     OW11926   9.429   4.124   3.216  0.6149 -0.1663  0.2385
 2360SOL    HW111927   9.411   4.172   3.296 -1.0233 -1.6713  0.8386
 2360SOL    HW211928   9.472   4.044   3.245 -1.6747 -1.6091 -0.1179
 2361SOL     OW11929   2.567   3.943   0.810  0.2801  0.1357 -0.6338
 2361SOL    HW111930   2.492   3.961   0.753  1.3284  1.1257 -1.7601
 2361SOL    HW211931   2.642   3.978   0.762  1.4601 -0.7486  0.5085
 2362SOL     OW11932   1.346   4.583   0.992 -0.0705 -0.3064  0.4664
 2362SOL    HW111933   1.360   4.488   0.984 -0.1489 -0.3756  1.1324
 2362SOL    HW211934   1.252   4.591   1.010  0.1592 -0.1847  1.6904
 2363SOL     OW11935   0.342   4.937   9.657 -0.1414  0.2068  0.5405
 2363SOL    HW111936   0.247   4.950   9.651  0.0719  1.1686 -2.6128
 2363SOL    HW211937   0.373   5.011   9.710 -0.9728  0.9579  0.0053
 2364SOL     OW11938   7.664   3.516   0.769 -0.1945 -0.3612  0.3530
 2364SOL    HW111939   7.657   3.501   0.675 -1.2383  1.2891  0.1372
 2364SOL    HW211940   7.753   3.546   0.782  0.9174 -3.2986  0.3607
 2365SOL     OW11941   9.686   5.318   8.971 -0.8702  0.2324 -0.3648
 2365SOL    HW111942   9.607   5.352   9.014 -1.8164 -0.1279 -1.7234
 2365SOL    HW211943   9.746   5.297   9.042 -1.8213  0.9802  0.6818
 2366SOL     OW11944   0.594   5.673   2.198 -0.3141 -0.0318 -0.6812
 2366SOL    HW111945   0.560   5.588   2.226  1.6858 -0.8423 -0.5221
 2366SOL    HW211946   0.680   5.653   2.161  0.9332  2.0817  0.8300
 2367SOL     OW11947   9.842   5.748   0.650  0.3262  0.5887 -0.2924
 2367SOL    HW111948   9.938   5.740   0.655  0.2424  0.3572  3.1954
 2367SOL    HW211949   9.820   5.813   0.716 -2.0532 -0.9255  0.5299
 2368SOL     OW11950   9.725   2.558   1.479 -0.0990  0.0358  0.0818
 2368SOL    HW111951   9.742   2.489   1.543  0.5458  0.0282 -0.0901
 2368SOL    HW211952   9.640   2.536   1.441 -0.0821 -0.4375  0.3149
 2369SOL     OW11953   0.786   4.702   9.353 -0.4743  0.1042 -0.3472
 2369SOL    HW111954   0.828   4.673   9.272  1.5988 -1.8562  1.3014
 2369SOL    HW211955   0.725   4.632   9.375 -0.5934  0.3388  0.0859
 2370SOL     OW11956   2.718   3.991   0.583 -0.4275 -0.2032 -0.6509
 2370SOL    HW111957   2.756   3.916   0.539 -2.1717 -1.6273  0.1655
 2370SOL    HW211958   2.643   4.016   0.530 -1.1749 -0.4669  0.2670
 2371SOL     OW11959   2.287   4.430   0.718  0.0098  0.3149 -0.4971
 2371SOL    HW111960   2.229   4.410   0.644 -0.9626 -1.5624  0.6963
 2371SOL    HW211961   2.271   4.359   0.780  1.7026  1.1863  1.0024
 2372SOL     OW11962   1.132   4.160   2.260 -0.5699 -0.3894 -0.4987
 2372SOL    HW111963   1.064   4.140   2.324 -0.7548 -0.7255 -0.7949
 2372SOL    HW211964   1.117   4.251   2.236 -0.5246 -0.2757 -0.0964
 2373SOL     OW11965   0.914   6.021   1.531  0.7270  0.5298 -0.4135
 2373SOL    HW111966   0.938   6.104   1.572  0.2857  0.5039 -0.1040
 2373SOL    HW211967   0.824   6.005   1.559  1.2363 -0.7184  0.6526
 2374SOL     OW11968   4.039   6.362   9.504 -0.5782  0.4300 -0.3115
 2374SOL    HW111969   3.947   6.378   9.525 -0.4073  1.1338 -0.0794
 2374SOL    HW211970   4.061   6.282   9.552 -0.3810  1.6424  1.7503
 2375SOL     OW11971   7.988   4.299   8.453  0.1867  0.4090 -0.7383
 2375SOL    HW111972   8.004   4.358   8.379  0.1113 -0.2926 -1.3293
 2375SOL    HW211973   7.908   4.332   8.493  2.0691  2.9988  1.2854
 2376SOL     OW11974   9.392   7.048   0.273 -0.0812 -0.2582  0.0645
 2376SOL    HW111975   9.325   7.103   0.315 -1.3066 -1.4083 -0.3192
 2376SOL    HW211976   9.396   6.969   0.327 -0.4307 -1.0173 -0.9870
 2377SOL     OW11977   9.297   5.673   0.007  0.4387  0.2869 -1.0194
 2377SOL    HW111978   9.202   5.675   0.021  0.5523  1.8418 -0.2297
 2377SOL    HW211979   9.334   5.683   0.095  1.3113  1.0776 -1.4628
 2378SOL     OW11980   9.048   3.192   8.379 -0.4269 -0.0227  0.7422
 2378SOL    HW111981   9.129   3.142   8.392 -1.3911 -1.6114  0.9689
 2378SOL    HW211982   9.073   3.283   8.394  0.9528 -0.6350  2.5261
 2379SOL     OW11983   0.390   5.088   2.190  0.5518  0.0057  0.0777
 2379SOL    HW111984   0.397   5.086   2.285  0.4358  1.8325  0.1511
 2379SOL    HW211985   0.480   5.078   2.159  0.7404  0.6033  0.4156
 2380SOL     OW11986   0.983   6.609   3.249  0.3567 -0.0444 -0.5962
 2380SOL    HW111987   0.946   6.660   3.320 -0.0819  2.1384 -2.2730
 2380SOL    HW211988   0.909   6.565   3.208 -0.0188  1.7410 -1.9600
 2381SOL     OW11989   8.227   6.139   0.438 -0.1481  0.6879  0.3161
 2381SOL    HW111990   8.151   6.091   0.472  0.4555 -1.0998 -0.7122
 2381SOL    HW211991   8.297   6.119   0.500  0.0177  0.5363  0.0798
 2382SOL     OW11992   7.958   1.548   8.925  0.5565 -0.4233  0.0114
 2382SOL    HW111993   7.980   1.641   8.918 -0.6216 -0.1049  0.3569
 2382SOL    HW211994   7.963   1.516   8.835 -0.1462  0.2421 -0.2730
 2383SOL     OW11995   2.301   5.750   8.721  0.0615 -0.4029  0.0397
 2383SOL    HW111996   2.298   5.840   8.753 -0.7509  0.3589 -1.9919
 2383SOL    HW211997   2.390   5.720   8.741  0.3222  0.8259  0.8084
 2384SOL     OW11998   7.986   5.590   9.576 -0.6884 -0.8112  0.6225
 2384SOL    HW111999   7.901   5.631   9.560 -0.3132  0.4630  1.7263
 2384SOL    HW212000   8.040   5.617   9.502 -1.6114 -2.8532 -0.8835
 2385SOL     OW12001   4.554   5.897   8.955  0.6315 -0.1608  0.4119
 2385SOL    HW112002   4.615   5.850   9.012  0.4908  0.9295  1.4993
 2385SOL    HW212003   4.549   5.985   8.993 -1.8632 -0.2952  0.5494
 2386SOL     OW12004   2.023   3.574   9.742 -0.0444 -0.3268 -0.1074
 2386SOL    HW112005   1.991   3.542   9.827 -1.2320  0.6633 -0.1492
 2386SOL    HW212006   2.117   3.586   9.755  0.2849 -2.7018  0.2386
 2387SOL     OW12007   7.820   5.125   9.788 -0.5434 -0.2741 -0.2342
 2387SOL    HW112008   7.891   5.111   9.851 -0.7173 -0.7295 -0.1337
 2387SOL    HW212009   7.861   5.172   9.716 -0.4796  0.8143  0.4921
 2388SOL     OW12010   0.511   4.802   8.093 -0.0785 -0.3313 -0.0215
 2388SOL    HW112011   0.491   4.894   8.113 -2.3445 -0.3457 -1.8317
 2388SOL    HW212012   0.486   4.755   8.173 -1.4972  0.3900 -0.0005
 2389SOL     OW12013   9.388   5.127   9.454 -0.0511 -0.0349 -0.2905
 2389SOL    HW112014   9.406   5.215   9.486  1.2131 -0.5776  0.5492
 2389SOL    HW212015   9.471   5.096   9.418 -0.2778 -1.1605  0.0955
 2390SOL     OW12016   1.152   4.314   0.585 -0.0692 -0.1077 -0.5903
 2390SOL    HW112017   1.225   4.261   0.554  0.9087  0.4073  0.7221
 2390SOL    HW212018   1.192   4.396   0.614 -1.1164  0.0668  0.4711
 2391SOL     OW12019   0.723   4.710   1.951 -0.0197 -0.0613  0.7999
 2391SOL    HW112020   0.664   4.697   1.876 -1.6423  2.5060  1.4752
 2391SOL    HW212021   0.779   4.633   1.952 -0.8362 -0.8235 -2.2280
 2392SOL     OW12022   1.671   4.166   8.282  0.5006  0.1564 -0.6146
 2392SOL    HW112023   1.621   4.108   8.226  2.7220 -1.0926 -1.4560
 2392SOL    HW212024   1.670   4.124   8.368  0.9547 -0.4202 -0.8853
 2393SOL     OW12025   1.441   4.501   9.624  0.0130  0.2400  0.2208
 2393SOL    HW112026   1.532   4.495   9.595 -0.2753  1.0822 -0.9125
 2393SOL    HW212027   1.416   4.591   9.606 -0.7635  0.2787  1.4242
 2394SOL     OW12028   0.588   5.444   9.682  0.0624  0.6178 -0.1845
 2394SOL    HW112029   0.529   5.475   9.750  2.0581  0.2232  1.8222
 2394SOL    HW212030   0.560   5.355   9.665 -0.4883  0.7377  0.0711
 2395SOL     OW12031   2.995   7.449   8.597 -0.9297  0.2652 -0.2652
 2395SOL    HW112032   3.080   7.460   8.555 -0.5583  0.4961  0.5309
 2395SOL    HW212033   2.946   7.393   8.536 -0.3828  0.5134 -0.9561
 2396SOL     OW12034   2.858   3.499   2.568 -0.0856  0.3247  0.1030
 2396SOL    HW112035   2.773   3.465   2.595 -0.5058  0.4572 -1.0092
 2396SOL    HW212036   2.905   3.423   2.535 -1.1977  0.7771 -2.8278
 2397SOL     OW12037   0.163   4.461   0.239  0.2513 -0.4045 -0.2833
 2397SOL    HW112038   0.108   4.415   0.303 -0.8878  1.1658 -0.0570
 2397SOL    HW212039   0.248   4.419   0.245 -0.2087 -1.1809  1.3025
 2398SOL     OW12040   9.288   3.969   9.853  0.0781 -0.3589  0.3836
 2398SOL    HW112041   9.321   4.056   9.831 -1.6648  0.1469 -0.4032
 2398SOL    HW212042   9.233   3.983   9.930  0.4718 -0.9205  0.7768
 2399SOL     OW12043   1.874   3.872   1.339  0.4067 -0.3064 -0.4417
 2399SOL    HW112044   1.862   3.961   1.308 -1.4098 -0.3890 -0.0929
 2399SOL    HW212045   1.791   3.850   1.381  1.2763 -1.6974  0.6616
 2400SOL     OW12046   9.334   5.207   0.908  0.6764  0.9907  0.1686
 2400SOL    HW112047   9.365   5.277   0.849 -0.3927  0.3599 -1.2136
 2400SOL    HW212048   9.395   5.135   0.894  0.8421  1.0890  0.3821
 2401SOL     OW12049   0.796   4.178   2.263 -0.4556  0.5081  0.2828
 2401SOL    HW112050   0.733   4.228   2.315 -1.2187 -0.0765 -0.0499
 2401SOL    HW212051   0.850   4.244   2.219  1.2825  1.0518  3.0103
 2402SOL     OW12052   1.370   4.102   2.383 -0.0684 -0.0270 -0.2499
 2402SOL    HW112053   1.298   4.144   2.336  0.0414  2.1972  1.3884
 2402SOL    HW212054   1.344   4.010   2.390 -2.6494  0.6540  0.0621
 2403SOL     OW12055   8.463   4.455   2.247 -0.2723 -0.0026 -0.0418
 2403SOL    HW112056   8.556   4.439   2.264 -0.3034  0.4398  0.6367
 2403SOL    HW212057   8.460   4.546   2.218 -0.5983  0.3522  1.0479
 2404SOL     OW12058   8.623   3.616   8.686  0.0867 -0.7127 -0.2721
 2404SOL    HW112059   8.594   3.563   8.761  0.0229 -1.1874 -0.6309
 2404SOL    HW212060   8.543   3.641   8.641  0.1547 -0.8562 -0.4740
 2405SOL     OW12061   1.439   3.874   1.610 -0.3507  0.5280  0.1919
 2405SOL    HW112062   1.500   3.801   1.607 -1.1797 -0.3161  2.0473
 2405SOL    HW212063   1.391   3.870   1.527  0.2167 -0.4849 -0.0977
 2406SOL     OW12064   1.585   4.591   2.551  0.7256 -0.2546 -0.0689
 2406SOL    HW112065   1.593   4.655   2.622  0.9446  0.6592 -0.9003
 2406SOL    HW212066   1.534   4.519   2.590  1.6811 -0.2329  1.3104
 2407SOL     OW12067   2.329   4.488   2.118  0.6065 -0.1656  0.6637
 2407SOL    HW112068   2.237   4.506   2.139  0.7616  1.1692  0.2758
 2407SOL    HW212069   2.337   4.393   2.125 -0.4790 -0.1829  1.9638
 2408SOL     OW12070   9.394   7.061   9.839 -0.2678  0.2810  0.3881
 2408SOL    HW112071   9.384   7.045   9.933 -0.9437 -1.1542  0.1044
 2408SOL    HW212072   9.325   7.008   9.798  0.9808 -0.3529 -1.0000
 2409SOL     OW12073   9.245   3.316   0.982  0.2527 -0.2443  0.5556
 2409SOL    HW112074   9.159   3.312   0.941  0.5707 -0.6258 -0.0770
 2409SOL    HW212075   9.305   3.339   0.911  0.3266  2.8911  1.4888
 2410SOL     OW12076   7.238   5.311   1.303 -0.0333 -0.2126  0.2620
 2410SOL    HW112077   7.144   5.303   1.288  0.4892 -1.5598 -2.8804
 2410SOL    HW212078   7.261   5.397   1.267  0.1898 -0.5413 -0.3715
 2411SOL     OW12079   9.565   6.331   9.591  0.0310  0.3071  0.1806
 2411SOL    HW112080   9.479   6.368   9.573  0.6338  1.9284  0.4514
 2411SOL    HW212081   9.574   6.335   9.686  0.7579  1.0419  0.0974
 2412SOL     OW12082   0.039   4.635   0.687  0.4481 -0.3231  0.1506
 2412SOL    HW112083   0.085   4.626   0.771 -0.2057 -0.1239  0.5401
 2412SOL    HW212084  -0.033   4.696   0.706  0.5689  0.0921 -0.6709
 2413SOL     OW12085   0.856   5.289   9.695  0.4733  0.0156 -0.6075
 2413SOL    HW112086   0.811   5.299   9.611  0.5149  1.4734 -0.4718
 2413SOL    HW212087   0.829   5.365   9.746  2.4087  0.4755 -0.2095
 2414SOL     OW12088   8.310   5.863   7.941 -0.4923  0.0414  0.0718
 2414SOL    HW112089   8.385   5.807   7.923 -0.4424  0.1980 -0.2169
 2414SOL    HW212090   8.347   5.938   7.988 -0.6229 -0.3661  0.8428
 2415SOL     OW12091   8.360   3.563   8.002 -0.2998  0.3590 -0.3252
 2415SOL    HW112092   8.331   3.654   8.008 -1.9080 -0.0750 -0.8657
 2415SOL    HW212093   8.455   3.567   8.009 -0.4194  1.9396  1.1198
 2416SOL     OW12094   0.581   4.920   8.765  0.3847 -0.0112  0.1228
 2416SOL    HW112095   0.660   4.896   8.813  0.5003 -1.5600 -0.7799
 2416SOL    HW212096   0.509   4.900   8.825  0.5401 -1.6801 -0.2213
 2417SOL     OW12097   7.199   4.340   9.454  0.0818 -0.0760  0.6983
 2417SOL    HW112098   7.243   4.259   9.428  1.3952  0.7223  0.3749
 2417SOL    HW212099   7.131   4.311   9.516  0.1265 -1.4772  0.1328
 2418SOL     OW12100   1.644   3.876   9.682  0.4028  0.0607 -0.1407
 2418SOL    HW112101   1.687   3.791   9.693  0.6156 -0.7382 -5.0391
 2418SOL    HW212102   1.560   3.866   9.727  0.9761 -2.2190  0.5788
 2419SOL     OW12103   0.331   6.246   0.677 -0.0025  0.0266 -0.2693
 2419SOL    HW112104   0.270   6.319   0.666  1.0896  0.7977 -1.6662
 2419SOL    HW212105   0.350   6.218   0.587  2.3431  0.4038  0.0308
 2420SOL     OW12106   1.233   3.043   0.481  0.2703  0.1988  0.1447
 2420SOL    HW112107   1.146   3.004   0.490  0.8705 -1.3923 -0.5398
 2420SOL    HW212108   1.276   3.025   0.564  0.0244  0.7881  0.4011
 2421SOL     OW12109   1.544   5.287   2.130  0.2208  1.0155  0.6614
 2421SOL    HW112110   1.569   5.222   2.196  2.2177  0.2234 -0.7915
 2421SOL    HW212111   1.624   5.338   2.115 -0.2347  1.2730 -1.0223
 2422SOL     OW12112   0.589   6.011   0.535 -0.4634  0.5190  0.6412
 2422SOL    HW112113   0.554   6.098   0.513 -0.8739  0.3494  0.6114
 2422SOL    HW212114   0.650   6.027   0.607  1.8194  1.2516 -1.3320
 2423SOL     OW12115   1.256   5.654   1.517 -0.1416 -0.5600  0.2979
 2423SOL    HW112116   1.168   5.689   1.533  0.2579 -0.1032  1.6223
 2423SOL    HW212117   1.308   5.685   1.591  1.5535  0.5526 -1.2701
 2424SOL     OW12118   1.094   2.491   1.581  0.3653 -0.2744  0.0067
 2424SOL    HW112119   1.036   2.441   1.523 -1.1501  1.2022  0.1675
 2424SOL    HW212120   1.098   2.578   1.541  1.7214 -0.0724  0.5395
 2425SOL     OW12121   1.100   4.281   2.611  0.4066 -0.2171  0.3809
 2425SOL    HW112122   1.148   4.339   2.552  0.0402  0.9090  1.1534
 2425SOL    HW212123   1.080   4.204   2.558 -0.9274  1.2310 -1.3504
 2426SOL     OW12124   8.537   3.384   2.247 -0.3418  0.0207  0.2588
 2426SOL    HW112125   8.586   3.321   2.299 -1.0444 -0.3173  0.5247
 2426SOL    HW212126   8.578   3.468   2.267  0.3892 -0.2995  0.1507
 2427SOL     OW12127   0.012   7.076   0.530 -0.0023 -0.6611  0.1246
 2427SOL    HW112128   0.033   7.155   0.480  0.8350 -0.3650  0.9256
 2427SOL    HW212129  -0.062   7.037   0.482  1.5391 -1.0833 -2.0816
 2428SOL     OW12130   1.479   6.040   0.104  0.4208  0.2528 -0.2675
 2428SOL    HW112131   1.464   6.109   0.169 -0.1701 -0.8224  0.7698
 2428SOL    HW212132   1.565   6.005   0.124  0.4334  0.2222 -0.3715
 2429SOL     OW12133   0.102   6.009   0.139 -0.1366  0.0972  0.0583
 2429SOL    HW112134   0.094   5.914   0.130 -0.3234  0.0451  0.7157
 2429SOL    HW212135   0.163   6.021   0.212  1.3583  0.4965 -1.2105
 2430SOL     OW12136   2.574   3.801   1.563  0.4529 -0.1975 -0.2419
 2430SOL    HW112137   2.663   3.803   1.598  0.2605 -0.7160  0.2815
 2430SOL    HW212138   2.519   3.834   1.634  0.3241  1.0354 -0.8902
 2431SOL     OW12139   2.094   4.435   2.443  0.2803 -0.0609  0.1975
 2431SOL    HW112140   2.020   4.387   2.480  0.9179 -0.2049  1.3257
 2431SOL    HW212141   2.157   4.367   2.417  1.5428  0.1206  2.5553
 2432SOL     OW12142   0.999   4.667   1.852 -0.0052  0.3586 -0.2965
 2432SOL    HW112143   1.093   4.657   1.868  0.1472 -0.7592 -1.6341
 2432SOL    HW212144   0.975   4.747   1.898  2.2245  2.3531 -2.2855
 2433SOL     OW12145   8.792   4.301   1.445  0.7791 -0.6346  0.4318
 2433SOL    HW112146   8.769   4.323   1.354  0.6089 -1.8748  0.1432
 2433SOL    HW212147   8.815   4.208   1.441  0.1011 -0.8892  1.7828
 2434SOL     OW12148   0.125   4.763   9.317 -0.7364  0.0460  0.2048
 2434SOL    HW112149   0.074   4.775   9.237  0.2437 -0.6402 -0.5505
 2434SOL    HW212150   0.084   4.688   9.360  1.0304 -2.1043 -1.6237
 2435SOL     OW12151   0.714   5.768   9.544  0.3746  0.2018  0.4530
 2435SOL    HW112152   0.748   5.822   9.615  1.0792 -0.1334  0.3753
 2435SOL    HW212153   0.625   5.746   9.571  0.1514  1.2259  0.5786
 2436SOL     OW12154   1.526   3.762   0.478 -0.2970  0.5268  0.3783
 2436SOL    HW112155   1.467   3.737   0.407  0.2232 -0.0104  0.1288
 2436SOL    HW212156   1.468   3.798   0.545 -0.9299 -0.1135  0.1913
 2437SOL     OW12157   1.120   6.404   2.046  0.1055 -0.7066 -0.8847
 2437SOL    HW112158   1.052   6.461   2.081  0.3730 -0.3910 -0.8707
 2437SOL    HW212159   1.089   6.315   2.064  0.2944 -0.5543  0.2599
 2438SOL     OW12160   7.993   4.138   1.752  0.4502  0.2598 -0.0305
 2438SOL    HW112161   8.073   4.160   1.801 -0.0702  1.1860  0.4429
 2438SOL    HW212162   7.927   4.124   1.820  0.0705  0.0768 -0.4334
 2439SOL     OW12163   0.939   3.996   0.681 -0.4863 -0.1039  0.1682
 2439SOL    HW112164   1.011   3.981   0.743 -0.5977  1.9376  0.8591
 2439SOL    HW212165   0.975   3.970   0.596  1.1837  1.0591  0.4566
 2440SOL     OW12166   0.020   4.184   0.672 -0.0307  0.2803 -0.1811
 2440SOL    HW112167   0.033   4.116   0.605  1.8678  1.5560 -1.2251
 2440SOL    HW212168   0.009   4.265   0.622 -0.8003  0.9612  1.0423
 2441SOL     OW12169   8.767   4.637   1.130 -0.2902  0.2434 -0.1358
 2441SOL    HW112170   8.861   4.648   1.145  0.1233 -0.2502 -2.1016
 2441SOL    HW212171   8.759   4.550   1.091 -1.3515  0.8900 -1.4577
 2442SOL     OW12172   9.351   5.130   8.403 -0.0289  0.5328 -0.2329
 2442SOL    HW112173   9.382   5.088   8.323  1.0506  0.7968  0.0220
 2442SOL    HW212174   9.272   5.176   8.377 -0.7692 -0.9597 -0.6988
 2443SOL     OW12175   0.370   4.363   8.920 -0.1511 -0.0047  0.5509
 2443SOL    HW112176   0.406   4.316   8.995  1.2232  1.8767  1.1196
 2443SOL    HW212177   0.409   4.319   8.844  0.9013  0.0356  1.0558
 2444SOL     OW12178   0.834   5.245   7.670  0.0955  0.3174 -0.7320
 2444SOL    HW112179   0.824   5.165   7.618  1.6430 -2.3546  2.6607
 2444SOL    HW212180   0.906   5.292   7.629 -0.4331 -0.2930 -2.4568
 2445SOL     OW12181   2.289   5.099   1.863 -0.2184  0.3750  0.4844
 2445SOL    HW112182   2.326   5.057   1.785 -1.1963  0.9612 -0.3306
 2445SOL    HW212183   2.359   5.154   1.897 -0.1581  1.1279 -0.7708
 2446SOL     OW12184   2.241   3.159   8.125 -0.1766 -0.3212 -0.4896
 2446SOL    HW112185   2.291   3.188   8.049  1.1791  0.0164  0.4893
 2446SOL    HW212186   2.189   3.235   8.150 -1.1679 -0.6539 -1.4784
 2447SOL     OW12187   2.463   3.443   1.032 -0.2098  0.0046  0.3594
 2447SOL    HW112188   2.546   3.398   1.018 -0.9380 -1.6306  0.9949
 2447SOL    HW212189   2.415   3.387   1.093 -2.4648  0.0056 -1.2727
 2448SOL     OW12190   1.096   5.027   1.642  0.0006  0.2740  0.1076
 2448SOL    HW112191   1.060   5.023   1.731  2.3525 -0.5141  1.1155
 2448SOL    HW212192   1.124   5.118   1.632 -1.4705  0.7018 -0.3933
 2449SOL     OW12193   2.280   5.699   0.384 -0.1605  0.1406  0.4703
 2449SOL    HW112194   2.324   5.767   0.436 -0.7837  0.1269  1.0236
 2449SOL    HW212195   2.240   5.746   0.311  2.6518 -0.0860 -1.3936
 2450SOL     OW12196   0.465   7.555   0.943 -0.1997  0.0107  0.2353
 2450SOL    HW112197   0.506   7.591   0.865 -2.1197  0.8879 -0.4217
 2450SOL    HW212198   0.526   7.488   0.974 -0.1522 -1.5660 -2.9567
 2451SOL     OW12199   0.972   6.313   9.069 -0.1488 -0.2129  0.6373
 2451SOL    HW112200   1.001   6.343   9.155 -1.4206  1.1089  0.6346
 2451SOL    HW212201   0.911   6.242   9.087 -0.8839  0.4651  0.8803
 2452SOL     OW12202   8.945   6.139   3.053  0.0048 -0.7851  0.0692
 2452SOL    HW112203   8.968   6.136   3.146  1.0842  0.3211 -0.1370
 2452SOL    HW212204   9.000   6.072   3.013 -0.0774 -0.9009  0.1482
 2453SOL     OW12205   9.636   3.785   1.658 -0.1973 -0.3106  0.2648
 2453SOL    HW112206   9.545   3.785   1.626 -0.1532  0.7485  0.1146
 2453SOL    HW212207   9.628   3.808   1.750 -0.3043 -3.1166  1.0577
 2454SOL     OW12208   1.783   4.911   8.769 -0.0389 -0.2624  0.4334
 2454SOL    HW112209   1.819   4.870   8.691  0.8810  0.3141  0.5397
 2454SOL    HW212210   1.781   4.840   8.834 -3.3944 -1.4918 -0.8238
 2455SOL     OW12211   1.850   6.722   0.525  0.3544 -0.5534 -0.5560
 2455SOL    HW112212   1.787   6.723   0.452  1.4449 -1.1173 -1.5332
 2455SOL    HW212213   1.815   6.657   0.585  0.4311 -1.5045 -1.5118
 2456SOL     OW12214   0.189   4.688   8.931  0.2805 -0.2331 -0.3113
 2456SOL    HW112215   0.166   4.755   8.996 -1.9769  1.2971 -2.5268
 2456SOL    HW212216   0.107   4.642   8.914  1.0443 -1.2539 -1.4058
 2457SOL     OW12217   9.600   4.190   0.984  0.2985  0.1980  0.6488
 2457SOL    HW112218   9.550   4.135   1.045 -0.3220  0.5986  0.5134
 2457SOL    HW212219   9.663   4.130   0.944  0.3883 -0.1756  1.3188
 2458SOL     OW12220   0.105   4.859   8.701  0.1600  0.2696  0.1899
 2458SOL    HW112221   0.048   4.935   8.690 -0.6376  0.1148  2.6664
 2458SOL    HW212222   0.051   4.795   8.746  1.2382 -1.2823 -0.6259
 2459SOL     OW12223   9.588   5.822   0.505  0.1020  0.1016 -0.6425
 2459SOL    HW112224   9.523   5.861   0.564 -1.3517 -0.0196 -2.0827
 2459SOL    HW212225   9.652   5.781   0.563 -1.8639 -1.0159  0.8707
 2460SOL     OW12226   0.558   3.591   1.567 -0.0057  0.0538 -0.1665
 2460SOL    HW112227   0.564   3.656   1.497 -3.4451  1.5783  0.7431
 2460SOL    HW212228   0.577   3.641   1.647 -2.6828  0.0622  0.5418
 2461SOL     OW12229   1.194   6.905   0.084  0.2149  0.7602 -0.5185
 2461SOL    HW112230   1.157   6.983   0.126 -0.3680  0.3693 -0.3112
 2461SOL    HW212231   1.129   6.837   0.097  1.3313 -0.1552  0.5462
 2462SOL     OW12232   3.610   3.452   1.690 -0.0394  0.5808  0.1112
 2462SOL    HW112233   3.692   3.416   1.724  0.3351  0.9339 -0.4053
 2462SOL    HW212234   3.637   3.513   1.621 -0.8142 -2.1433 -2.8307
 2463SOL     OW12235   9.783   4.052   8.323  0.0356 -0.5242  0.1739
 2463SOL    HW112236   9.803   4.118   8.389 -1.3476  0.7450 -0.6234
 2463SOL    HW212237   9.742   3.981   8.372 -1.0568  0.4449  0.7113
 2464SOL     OW12238   1.687   5.924   9.604 -0.1386 -0.1783 -0.6779
 2464SOL    HW112239   1.598   5.957   9.614 -0.2349 -0.7378  0.3922
 2464SOL    HW212240   1.697   5.910   9.509 -1.5882 -1.2082 -0.7099
 2465SOL     OW12241   3.988   5.000   0.418 -0.2550 -0.0561 -0.1249
 2465SOL    HW112242   3.961   5.092   0.422  0.3060  0.0965  4.0917
 2465SOL    HW212243   4.083   5.003   0.413 -0.2036 -0.3963  0.6208
 2466SOL     OW12244   0.365   3.364   2.562 -0.0765  0.1497 -0.2501
 2466SOL    HW112245   0.344   3.457   2.572 -0.1484  0.3097 -1.6345
 2466SOL    HW212246   0.460   3.360   2.569 -0.0714  0.3338 -0.2020
 2467SOL     OW12247   9.564   4.814   2.733  0.3698  0.5389  0.4426
 2467SOL    HW112248   9.492   4.783   2.678 -0.4061  0.9660  1.2113
 2467SOL    HW212249   9.578   4.904   2.706  1.0746  0.2672 -0.1599
 2468SOL     OW12250   1.272   3.621   9.748 -0.2142  0.1431 -0.0089
 2468SOL    HW112251   1.219   3.675   9.807 -1.6198  0.3030 -1.3616
 2468SOL    HW212252   1.309   3.553   9.805  0.0084  1.3738  1.3708
 2469SOL     OW12253   9.239   4.690   2.875 -0.0116 -0.1184  0.5013
 2469SOL    HW112254   9.154   4.646   2.884  0.7331 -2.7521 -3.0106
 2469SOL    HW212255   9.222   4.763   2.815 -0.0040  0.0566  0.7132
 2470SOL     OW12256   2.795   3.795   1.767 -0.1162  0.1223 -0.0380
 2470SOL    HW112257   2.864   3.784   1.832  0.4082  1.2484 -0.3768
 2470SOL    HW212258   2.720   3.747   1.802  0.9569 -1.4897  0.1364
 2471SOL     OW12259   9.382   3.714   0.142 -0.4416  0.2192  0.2087
 2471SOL    HW112260   9.341   3.644   0.091 -0.2271  0.6233 -0.5299
 2471SOL    HW212261   9.357   3.795   0.097  0.6746  0.5133  0.0941
 2472SOL     OW12262   9.717   4.118   2.086 -0.2428 -0.3643 -0.0056
 2472SOL    HW112263   9.652   4.106   2.156  0.6885  0.7822  1.1104
 2472SOL    HW212264   9.801   4.107   2.130  0.3611  0.5252 -0.9087
 2473SOL     OW12265   3.115   4.923   8.420  0.0860 -0.0917 -0.2280
 2473SOL    HW112266   3.164   4.921   8.338 -0.9131  1.3921 -0.8886
 2473SOL    HW212267   3.044   4.860   8.408 -0.0733  0.1423 -0.5169
 2474SOL     OW12268   8.328   5.082   2.741  0.8560 -0.9942  0.1441
 2474SOL    HW112269   8.239   5.076   2.775  0.8007 -0.9579  0.0081
 2474SOL    HW212270   8.331   5.017   2.671  0.3781  0.2370 -1.0728
 2475SOL     OW12271   0.383   4.484   7.514  0.2936 -0.9068 -0.0720
 2475SOL    HW112272   0.433   4.456   7.591  1.6034 -1.0197 -0.9211
 2475SOL    HW212273   0.294   4.454   7.531  0.7108 -1.5676  1.0774
 2476SOL     OW12274   2.309   4.601   1.455  0.1880  0.1238 -0.3007
 2476SOL    HW112275   2.362   4.522   1.442 -0.9472 -0.5748 -0.8103
 2476SOL    HW212276   2.266   4.615   1.370 -0.3573  0.7498  0.0672
 2477SOL     OW12277   1.998   3.182   2.499  0.0505  0.1798  0.0210
 2477SOL    HW112278   1.915   3.225   2.517 -1.9922 -3.3348  0.0327
 2477SOL    HW212279   2.002   3.110   2.562  2.7659 -0.2473 -0.5094
 2478SOL     OW12280   1.804   5.158   1.029 -0.0276  0.1535  0.2686
 2478SOL    HW112281   1.719   5.151   1.071 -1.2074  0.0997 -1.9770
 2478SOL    HW212282   1.851   5.079   1.057 -1.0999 -0.3402  0.7230
 2479SOL     OW12283   2.417   7.005   1.314 -0.1607 -0.1623  0.3704
 2479SOL    HW112284   2.449   7.079   1.366  1.2975 -0.6416  0.2059
 2479SOL    HW212285   2.328   7.030   1.289  0.6108  1.9965 -0.4879
 2480SOL     OW12286   9.777   4.667   1.454  0.0693  0.0322 -0.6050
 2480SOL    HW112287   9.867   4.648   1.480 -0.0082 -0.4435 -0.6659
 2480SOL    HW212288   9.769   4.762   1.461  0.8740  0.1874 -1.5607
 2481SOL     OW12289   9.347   5.848   1.172  0.1707  0.0053 -0.2470
 2481SOL    HW112290   9.337   5.841   1.077 -0.8722  0.4171 -0.1806
 2481SOL    HW212291   9.333   5.941   1.190 -1.7407 -0.3914  0.5166
 2482SOL     OW12292   1.678   5.337   0.741  0.4554  0.2146 -0.0910
 2482SOL    HW112293   1.666   5.404   0.673  0.5430  1.2550  0.8877
 2482SOL    HW212294   1.757   5.290   0.715 -0.7712 -0.9457 -1.9292
 2483SOL     OW12295   9.528   4.399   2.566 -0.6121  0.5423  0.0888
 2483SOL    HW112296   9.491   4.320   2.527 -0.8779 -0.6348  2.5401
 2483SOL    HW212297   9.597   4.426   2.505 -1.7040 -0.5204 -1.6880
 2484SOL     OW12298   9.539   5.741   0.805 -0.5444  0.5033  0.0908
 2484SOL    HW112299   9.453   5.758   0.843 -0.4162  2.8972 -0.5096
 2484SOL    HW212300   9.573   5.666   0.855 -1.4067  1.8847  2.9842
 2485SOL     OW12301   1.473   3.712   2.558 -0.7212 -0.5173  0.1002
 2485SOL    HW112302   1.414   3.762   2.614 -1.5894  1.1616 -2.1889
 2485SOL    HW212303   1.416   3.668   2.495  0.2300 -2.2666  0.4132
 2486SOL     OW12304   8.738   3.152   2.346 -0.1552 -0.0509  0.1453
 2486SOL    HW112305   8.701   3.182   2.429 -0.1473  0.2455  0.0411
 2486SOL    HW212306   8.721   3.058   2.345 -1.2934  0.1325 -0.0927
 2487SOL     OW12307   8.465   1.389   1.526 -0.3841  0.2949 -0.0474
 2487SOL    HW112308   8.529   1.330   1.488 -0.8902 -0.5679  0.4038
 2487SOL    HW212309   8.461   1.463   1.466  0.3234 -0.0933 -0.5773
 2488SOL     OW12310   9.831   5.413   0.105 -0.3271 -0.2401 -0.5395
 2488SOL    HW112311   9.891   5.374   0.169 -2.6045 -1.8454  0.8108
 2488SOL    HW212312   9.750   5.426   0.155 -1.4300  0.8655 -2.5115
 2489SOL     OW12313   9.527   4.408   9.057 -0.1560 -0.0824 -0.6013
 2489SOL    HW112314   9.546   4.323   9.097 -1.9093 -1.9013 -3.3402
 2489SOL    HW212315   9.598   4.464   9.087  1.0435 -2.4559  1.3922
 2490SOL     OW12316   1.329   4.087   0.551 -0.2922  0.0203  0.1385
 2490SOL    HW112317   1.277   4.015   0.516 -0.9691  0.3420  0.4736
 2490SOL    HW212318   1.340   4.147   0.477  1.1592 -0.8949 -0.4363
 2491SOL     OW12319   0.172   3.379   3.998 -0.0388  1.0406 -0.0992
 2491SOL    HW112320   0.187   3.290   3.968 -1.9764 -0.0981  1.9994
 2491SOL    HW212321   0.233   3.390   4.071 -1.7238  0.3075  1.4976
 2492SOL     OW12322   8.664   3.770   4.096  0.5649  0.3067  0.2238
 2492SOL    HW112323   8.748   3.792   4.135  1.2116 -0.8413 -0.4631
 2492SOL    HW212324   8.625   3.707   4.157  2.0812 -2.3938 -1.3506
 2493SOL     OW12325   2.107   2.130   2.380 -0.1138  0.2216  0.5363
 2493SOL    HW112326   2.099   2.223   2.398 -0.1282  0.2460  0.4100
 2493SOL    HW212327   2.146   2.126   2.292  1.5904  0.1102  1.2736
 2494SOL     OW12328   8.134   7.341   0.825 -0.3286 -0.5119 -0.8546
 2494SOL    HW112329   8.211   7.389   0.857 -0.8316  0.3488 -0.8946
 2494SOL    HW212330   8.068   7.409   0.811 -0.8617 -1.1533 -1.5258
 2495SOL     OW12331   1.638   4.480   0.487 -0.0164  0.1968  0.6521
 2495SOL    HW112332   1.598   4.562   0.516 -1.1229 -0.2917  0.5502
 2495SOL    HW212333   1.695   4.455   0.559  0.2346  0.9913  0.7362
 2496SOL     OW12334   0.365   2.495   1.677 -0.2602  0.0474 -0.1452
 2496SOL    HW112335   0.446   2.445   1.666 -0.3643  0.1590 -1.7346
 2496SOL    HW212336   0.302   2.431   1.710  0.3988 -0.1044  0.8439
 2497SOL     OW12337   0.631   3.382   2.634  0.0511  0.0400  0.0097
 2497SOL    HW112338   0.646   3.288   2.627  0.4887  0.2517 -3.6933
 2497SOL    HW212339   0.680   3.408   2.712  1.4321 -2.5345  0.1074
 2498SOL     OW12340   3.851   4.257   2.333  0.4032 -0.1876  0.1441
 2498SOL    HW112341   3.919   4.201   2.370 -0.0248 -0.4676  0.5200
 2498SOL    HW212342   3.801   4.199   2.275  0.9648  0.2065 -0.7524
 2499SOL     OW12343   9.140   6.687   9.078  0.1190  0.3158  0.4662
 2499SOL    HW112344   9.198   6.749   9.123  0.3878 -0.1909  0.8187
 2499SOL    HW212345   9.086   6.743   9.022 -0.9011  1.0773  2.1349
 2500SOL     OW12346   0.962   5.310   0.740 -0.0124  0.2462  1.4272
 2500SOL    HW112347   1.037   5.265   0.778 -1.2300 -0.7234  2.7875
 2500SOL    HW212348   0.976   5.402   0.760  0.4130 -0.0228  2.4131
 2501SOL     OW12349   8.989   5.099   9.244  0.0424  1.6017  0.6594
 2501SOL    HW112350   9.047   5.023   9.256 -0.2543  1.3587  0.5584
 2501SOL    HW212351   8.987   5.141   9.330 -1.0813  0.5744  1.1658
 2502SOL     OW12352   0.421   4.171   0.641 -0.3850  0.9383  0.0627
 2502SOL    HW112353   0.370   4.251   0.652 -1.0459  0.3501  1.4611
 2502SOL    HW212354   0.433   4.137   0.729 -1.3957 -1.2807 -0.5698
 2503SOL     OW12355   0.334   6.037   1.417  0.2429 -0.1183 -0.0602
 2503SOL    HW112356   0.321   6.132   1.417  1.3412  0.0729  1.1799
 2503SOL    HW212357   0.392   6.021   1.342  1.4515  0.4580  0.7104
 2504SOL     OW12358   0.285   4.990   8.858  0.1318 -0.1683 -0.4366
 2504SOL    HW112359   0.220   4.937   8.812 -1.4643  1.0065  0.4030
 2504SOL    HW212360   0.301   5.064   8.799 -0.4274  0.3167  0.0162
 2505SOL     OW12361   1.475   4.512   0.069  0.2669  0.1730 -0.5530
 2505SOL    HW112362   1.423   4.433   0.057  0.2859  0.0057  0.4256
 2505SOL    HW212363   1.519   4.524  -0.016  1.3641 -1.6692 -0.3200
 2506SOL     OW12364   2.010   1.325   3.305 -0.0807 -0.0543  0.1343
 2506SOL    HW112365   1.918   1.304   3.324  0.2927 -0.7623  1.2296
 2506SOL    HW212366   2.033   1.391   3.370  0.7420 -1.3166  1.1754
 2507SOL     OW12367   0.178   0.845   1.614 -0.8364  0.7674 -0.1696
 2507SOL    HW112368   0.231   0.787   1.669 -1.5322  2.2707  2.2316
 2507SOL    HW212369   0.147   0.788   1.543  1.2366 -0.9418  0.1718
 2508SOL     OW12370   9.561   5.147   1.502 -0.4983  0.6143  0.5478
 2508SOL    HW112371   9.580   5.134   1.594  2.3919  0.7012  0.0388
 2508SOL    HW212372   9.595   5.233   1.481 -1.2817  0.6798 -0.5795
 2509SOL     OW12373   1.977   3.059   9.295 -0.2079  0.0143 -0.2614
 2509SOL    HW112374   1.928   3.109   9.230  0.3396  1.1692  0.1907
 2509SOL    HW212375   1.922   3.061   9.374  0.4088  1.0706  0.1603
 2510SOL     OW12376   9.427   5.663   8.474  0.2236  1.0846 -0.5145
 2510SOL    HW112377   9.495   5.597   8.485  1.8339  2.8780  0.8752
 2510SOL    HW212378   9.430   5.686   8.381 -0.1757 -0.5338 -0.9610
 2511SOL     OW12379   0.016   3.752   1.037 -0.0516 -0.4860  0.3712
 2511SOL    HW112380   0.089   3.692   1.022  0.6156  0.2891  0.4659
 2511SOL    HW212381  -0.031   3.714   1.112  2.6501  1.1153  3.0887
 2512SOL     OW12382   3.653   5.598   1.533  0.2587 -0.5147 -0.1425
 2512SOL    HW112383   3.631   5.640   1.451  1.1002  0.3641  0.0545
 2512SOL    HW212384   3.661   5.505   1.512 -0.6497 -0.4475 -0.7995
 2513SOL     OW12385   1.836   2.840   2.542 -0.5582  0.3838 -0.0658
 2513SOL    HW112386   1.743   2.817   2.538 -0.1502 -1.8021  1.1032
 2513SOL    HW212387   1.874   2.798   2.464  0.1556 -3.1357  1.9651
 2514SOL     OW12388   9.811   5.095   0.725  0.1517  0.0828  0.0702
 2514SOL    HW112389   9.872   5.156   0.682  0.6307 -0.5100 -0.1017
 2514SOL    HW212390   9.866   5.046   0.786  0.2311 -1.7270 -1.3844
 2515SOL     OW12391   9.789   4.093   0.095  0.2205  0.1651 -0.2879
 2515SOL    HW112392   9.765   4.098   0.188  0.1045  1.6240 -0.3662
 2515SOL    HW212393   9.885   4.095   0.095  0.2248  2.2884 -0.2352
 2516SOL     OW12394   9.289   3.367   8.826 -0.0372  0.5645  0.7922
 2516SOL    HW112395   9.261   3.458   8.832 -3.5897 -0.2092 -1.3826
 2516SOL    HW212396   9.254   3.325   8.905 -2.4630  0.2842 -0.3458
 2517SOL     OW12397   0.588   4.873   0.072  0.1917 -0.2144 -0.2237
 2517SOL    HW112398   0.620   4.913  -0.008  0.2472 -0.6784 -0.4400
 2517SOL    HW212399   0.592   4.942   0.138  0.9748 -0.0711 -0.4106
 2518SOL     OW12400   3.901   7.051   1.853 -0.1313  0.2669  0.0016
 2518SOL    HW112401   3.931   7.109   1.923 -0.7686  0.8234 -0.1761
 2518SOL    HW212402   3.856   7.109   1.791  0.7005 -0.1569 -1.0442
 2519SOL     OW12403   0.611   5.115   0.209 -0.0884  0.1246  0.2832
 2519SOL    HW112404   0.593   5.145   0.298  2.1449  3.0357 -0.0797
 2519SOL    HW212405   0.702   5.140   0.193 -0.0483 -1.3503 -2.4471
 2520SOL     OW12406   8.974   4.011   0.479 -0.0470 -0.5159  0.3705
 2520SOL    HW112407   9.022   3.942   0.524  2.4611 -0.2878 -1.7002
 2520SOL    HW212408   9.001   4.092   0.522  0.2080 -0.5125  0.2055
 2521SOL     OW12409   0.753   4.261   0.804  0.3670  0.2147  0.2076
 2521SOL    HW112410   0.728   4.281   0.713  1.1069  1.7488  0.3038
 2521SOL    HW212411   0.740   4.166   0.812 -2.2919  0.3986 -0.6813
 2522SOL     OW12412   0.200   3.746   2.261 -0.5879 -0.4317  0.0885
 2522SOL    HW112413   0.114   3.783   2.243 -1.4309 -1.4517  1.7716
 2522SOL    HW212414   0.235   3.798   2.333 -0.2463 -0.6621  0.0929
 2523SOL     OW12415   0.739   7.036   8.984  0.0841  0.2612  0.0701
 2523SOL    HW112416   0.751   7.018   8.891  1.1845 -0.9613  0.4151
 2523SOL    HW212417   0.802   7.105   9.003  0.4503 -0.0747  0.0799
 2524SOL     OW12418   1.212   3.864   1.818  0.3929 -0.3179  0.0132
 2524SOL    HW112419   1.280   3.922   1.784 -0.3689  1.2958  1.0995
 2524SOL    HW212420   1.223   3.868   1.913  0.8626 -2.6790  0.1018
 2525SOL     OW12421   7.969   5.450   9.028 -0.0142 -0.4243 -0.3598
 2525SOL    HW112422   7.931   5.532   9.059 -1.1123 -1.0071 -0.0953
 2525SOL    HW212423   8.063   5.459   9.043  0.0158  1.1967 -1.3216
 2526SOL     OW12424   0.507   7.127   9.200 -0.6159 -0.5662  0.4512
 2526SOL    HW112425   0.584   7.181   9.183 -0.9863 -0.2079 -0.1357
 2526SOL    HW212426   0.542   7.046   9.236 -0.0400  0.0046  1.2007
 2527SOL     OW12427   2.609   4.913   1.052 -0.1724 -0.1458  0.2837
 2527SOL    HW112428   2.581   4.946   1.137  1.3190  1.8667  0.0747
 2527SOL    HW212429   2.702   4.933   1.048  0.1107 -1.5210 -1.2640
 2528SOL     OW12430   0.465   4.095   8.122 -0.2450 -0.4353 -0.1769
 2528SOL    HW112431   0.539   4.035   8.115 -0.1689 -0.2075 -1.6792
 2528SOL    HW212432   0.401   4.062   8.060 -1.1084 -0.1885  0.5565
 2529SOL     OW12433   1.388   6.865   1.964 -0.5875 -0.2250 -0.3760
 2529SOL    HW112434   1.328   6.798   1.997  0.7160 -0.9392  0.6506
 2529SOL    HW212435   1.436   6.821   1.894 -1.1738  0.3144 -1.1282
 2530SOL     OW12436   2.488   4.680   9.611  0.3434  0.3857 -0.4903
 2530SOL    HW112437   2.417   4.744   9.597  0.2068  0.1242 -0.9965
 2530SOL    HW212438   2.471   4.611   9.547  1.1662  0.4115 -0.7412
 2531SOL     OW12439   8.791   5.678   0.093 -0.1158  0.2435  0.0640
 2531SOL    HW112440   8.799   5.625   0.013 -1.9330  0.2975 -0.1955
 2531SOL    HW212441   8.753   5.761   0.063 -1.0870  0.1603  1.0299
 2532SOL     OW12442   2.293   4.649   0.918 -0.0597 -0.8471 -0.0024
 2532SOL    HW112443   2.210   4.604   0.936 -0.4649  0.3149  1.1474
 2532SOL    HW212444   2.326   4.605   0.840 -1.0633 -2.2787  0.3155
 2533SOL     OW12445   9.170   6.391   0.165  0.3338  0.6089 -0.4345
 2533SOL    HW112446   9.173   6.384   0.261 -0.2395 -2.6392 -0.5710
 2533SOL    HW212447   9.259   6.370   0.137 -0.3810 -2.5457 -0.6803
 2534SOL     OW12448   1.686   4.937   0.166 -0.1177  0.1929 -0.2150
 2534SOL    HW112449   1.699   4.979   0.251 -0.9838 -0.2909  0.1654
 2534SOL    HW212450   1.594   4.911   0.166  0.1823 -0.9362 -0.7762
 2535SOL     OW12451   3.658   5.109   8.309  1.0719 -0.1962  0.2079
 2535SOL    HW112452   3.662   5.023   8.350 -0.8524 -0.3841  0.0910
 2535SOL    HW212453   3.739   5.153   8.337  1.6888 -1.7226  0.9375
 2536SOL     OW12454   1.021   4.275   0.876  0.2453  0.1789 -0.9497
 2536SOL    HW112455   1.069   4.300   0.797  0.3651  1.1251 -0.5903
 2536SOL    HW212456   0.930   4.290   0.854  0.2599  0.2015 -0.9955
 2537SOL     OW12457   0.521   4.721   9.690 -0.5642  0.4024 -0.0442
 2537SOL    HW112458   0.527   4.718   9.786 -0.4218 -1.2953 -0.0873
 2537SOL    HW212459   0.502   4.813   9.671 -2.1236  0.5030  1.7092
 2538SOL     OW12460   2.196   4.207   2.378 -0.5137  0.1222 -0.1832
 2538SOL    HW112461   2.181   4.121   2.419  0.1117 -0.3232 -0.8483
 2538SOL    HW212462   2.217   4.186   2.287 -0.9004  1.0288 -0.4851
 2539SOL     OW12463   4.998   6.731   0.870 -0.2914  0.1911  0.0270
 2539SOL    HW112464   5.004   6.644   0.829 -0.3806  0.6794 -1.0338
 2539SOL    HW212465   4.930   6.776   0.821 -0.1588  0.9134  0.4996
 2540SOL     OW12466   1.572   3.859   2.046 -0.1861 -0.2782  0.2484
 2540SOL    HW112467   1.510   3.932   2.044  0.8240  0.6194  0.6549
 2540SOL    HW212468   1.583   3.841   2.139 -0.0781 -0.6535  0.1625
 2541SOL     OW12469   2.992   5.183   1.154 -0.1635  0.1923 -0.1353
 2541SOL    HW112470   2.969   5.192   1.062  0.4319  1.2017 -0.2053
 2541SOL    HW212471   3.057   5.252   1.169 -1.6964  1.3904  1.5018
 2542SOL     OW12472   0.162   4.941   1.538  0.6059  0.7137 -0.2063
 2542SOL    HW112473   0.208   4.963   1.458  0.3774  1.9574 -0.0166
 2542SOL    HW212474   0.070   4.944   1.515  0.5630  0.1878 -0.1108
 2543SOL     OW12475   1.137   4.070   1.459  1.0721  0.0870 -0.0459
 2543SOL    HW112476   1.215   4.100   1.411 -0.2080  1.6627 -1.2466
 2543SOL    HW212477   1.130   4.132   1.532  1.2633 -0.4301  0.4206
 2544SOL     OW12478   9.713   5.660   3.132 -0.2993  0.2855  0.0031
 2544SOL    HW112479   9.703   5.566   3.118  0.1839  0.2387 -0.0680
 2544SOL    HW212480   9.641   5.699   3.083 -1.5536 -0.1193  1.4423
 2545SOL     OW12481   0.236   5.134   0.616 -0.8511  0.2124  0.0084
 2545SOL    HW112482   0.308   5.080   0.649 -1.1687 -0.6302 -0.6445
 2545SOL    HW212483   0.261   5.224   0.639 -0.5992 -0.2421  1.6432
 2546SOL     OW12484   9.276   2.162   1.762 -0.1627 -0.1453  0.6683
 2546SOL    HW112485   9.212   2.098   1.728  0.6033 -0.2183 -0.7068
 2546SOL    HW212486   9.315   2.119   1.838  0.5804 -1.4917 -0.4357
 2547SOL     OW12487   0.395   4.483   9.325  0.4777  0.3266  0.0122
 2547SOL    HW112488   0.384   4.515   9.414  0.6055 -0.5896  0.3623
 2547SOL    HW212489   0.487   4.457   9.320  0.8473  1.6766 -0.8335
 2548SOL     OW12490   2.068   4.936   0.721 -0.9601  0.2083  0.1218
 2548SOL    HW112491   2.133   4.953   0.653  2.6782  0.1801  3.2555
 2548SOL    HW212492   2.044   4.844   0.708  1.6213 -0.5821  0.2284
 2549SOL     OW12493   0.532   3.143   1.419 -0.2237 -0.1403  0.2776
 2549SOL    HW112494   0.537   3.192   1.337 -0.7119  0.0218  0.3404
 2549SOL    HW212495   0.532   3.051   1.393  0.0990 -0.0973  0.1249
 2550SOL     OW12496   9.538   3.442   0.228  0.6026 -0.5641  0.2396
 2550SOL    HW112497   9.601   3.480   0.289  0.3335  0.5158 -0.1445
 2550SOL    HW212498   9.477   3.513   0.208  0.6003 -0.9374 -1.1906
 2551SOL     OW12499   1.667   3.896   1.035  0.7461  0.3003  0.5313
 2551SOL    HW112500   1.664   3.802   1.052  1.1567  0.4553  1.5339
 2551SOL    HW212501   1.722   3.905   0.958 -2.7279 -0.5870 -2.3550
 2552SOL     OW12502   2.788   1.166   1.182  0.1058  0.3193 -0.0755
 2552SOL    HW112503   2.756   1.193   1.268 -0.7882  1.1991 -0.6662
 2552SOL    HW212504   2.733   1.093   1.157 -0.3817  0.7885 -0.3847
 2553SOL     OW12505   1.494   5.152   0.044 -0.2650  0.8165  0.2170
 2553SOL    HW112506   1.518   5.169   0.135 -1.3013  1.5798  0.3745
 2553SOL    HW212507   1.483   5.057   0.039 -0.2519  0.7739  0.9107
 2554SOL     OW12508   0.615   5.565   8.655 -0.4895 -0.1184  0.2551
 2554SOL    HW112509   0.575   5.572   8.742 -0.0806  0.6698  0.3927
 2554SOL    HW212510   0.617   5.655   8.622 -0.7806 -0.4289 -0.6412
 2555SOL     OW12511   0.942   4.241   8.360  0.1162  0.1928 -0.1880
 2555SOL    HW112512   0.935   4.336   8.353 -0.4192  0.1772  0.0198
 2555SOL    HW212513   0.863   4.215   8.408  1.4469 -0.1151  1.9715
 2556SOL     OW12514   1.586   4.088   1.702  0.8177 -0.6687 -0.1661
 2556SOL    HW112515   1.652   4.071   1.770 -1.2255  1.2131  2.4974
 2556SOL    HW212516   1.542   4.004   1.690  0.5578 -0.8484  1.6775
 2557SOL     OW12517   9.490   3.937   9.301 -0.2974  0.6119 -0.3483
 2557SOL    HW112518   9.550   3.864   9.316  0.7665  1.5899  0.3523
 2557SOL    HW212519   9.443   3.947   9.384 -1.0546  0.1862 -0.7237
 2558SOL     OW12520   8.793   5.856   0.555  0.0753  0.3287  0.0785
 2558SOL    HW112521   8.807   5.794   0.484  2.1918  1.6663 -0.7802
 2558SOL    HW212522   8.729   5.919   0.521 -0.2406 -0.0216  0.0297
 2559SOL     OW12523   2.282   4.243   1.441  1.4229  0.0483  0.3241
 2559SOL    HW112524   2.223   4.282   1.377  1.0891  0.4479  0.8685
 2559SOL    HW212525   2.366   4.238   1.396  0.5844 -2.4042 -1.2002
 2560SOL     OW12526   7.627   5.812   2.874 -0.3956  0.8354 -0.0599
 2560SOL    HW112527   7.655   5.869   2.945 -0.6503 -1.0936  1.6971
 2560SOL    HW212528   7.707   5.770   2.843 -0.3079  1.5434 -0.8133
 2561SOL     OW12529   0.588   6.275   2.327 -0.1097  0.0857  0.5101
 2561SOL    HW112530   0.619   6.365   2.321  2.2483 -0.7462 -1.6565
 2561SOL    HW212531   0.635   6.238   2.401  1.5219 -0.1760 -0.5886
 2562SOL     OW12532   0.330   4.718   1.625 -0.5824  0.2355  0.6068
 2562SOL    HW112533   0.289   4.796   1.587 -1.0472  0.2322  1.0882
 2562SOL    HW212534   0.285   4.644   1.582 -0.0761  0.2216  0.0799
 2563SOL     OW12535   0.856   4.490   2.096 -0.1088 -0.1257 -0.5791
 2563SOL    HW112536   0.770   4.479   2.138  1.1054 -1.1448  1.8746
 2563SOL    HW212537   0.887   4.575   2.128  2.0225 -2.0851  3.2945
 2564SOL     OW12538   3.841   4.450   1.960  0.1534 -0.7926 -0.1372
 2564SOL    HW112539   3.872   4.510   1.892 -1.0363  0.3326  0.2651
 2564SOL    HW212540   3.768   4.496   2.001  0.8277 -1.4346  1.9264
 2565SOL     OW12541   8.827   5.149   4.902 -0.3978 -0.3314  0.3735
 2565SOL    HW112542   8.922   5.148   4.891 -0.3558  1.7976  0.2446
 2565SOL    HW212543   8.810   5.220   4.964 -2.0079  0.7289 -1.1747
 2566SOL     OW12544   1.026   5.077   2.520 -0.1037 -0.4623 -0.4633
 2566SOL    HW112545   1.113   5.100   2.488  0.3942 -1.2266  0.2894
 2566SOL    HW212546   1.038   5.062   2.614 -0.3216 -3.6530 -0.8156
 2567SOL     OW12547   9.487   4.632   3.953  0.3612  0.3470 -0.3112
 2567SOL    HW112548   9.538   4.702   3.913  1.2292  0.2737  0.6187
 2567SOL    HW212549   9.411   4.621   3.895  1.4380  0.4036 -1.7748
 2568SOL     OW12550   9.766   3.972   4.848  0.2885 -0.3052 -0.2901
 2568SOL    HW112551   9.827   3.990   4.920  0.3263 -1.6743  0.0423
 2568SOL    HW212552   9.822   3.942   4.776  0.1526  0.0408 -0.5431
 2569SOL     OW12553   4.381   6.900   2.617  0.2038  0.6518 -0.0753
 2569SOL    HW112554   4.353   6.893   2.708  0.7158  0.4431  0.0655
 2569SOL    HW212555   4.475   6.920   2.621  0.6647 -1.2411 -0.5612
 2570SOL     OW12556   9.179   5.761   4.436 -0.0247  0.5001 -0.2698
 2570SOL    HW112557   9.180   5.841   4.489  0.0408  0.5064 -0.2804
 2570SOL    HW212558   9.250   5.773   4.373 -0.6435  0.8713 -0.9132
 2571SOL     OW12559   8.230   3.898   1.715  0.1781 -0.2396 -0.5568
 2571SOL    HW112560   8.158   3.928   1.659 -1.0197 -0.5102  0.7786
 2571SOL    HW212561   8.240   3.967   1.781  2.1227  0.4629 -1.5215
 2572SOL     OW12562   0.299   4.237   1.078 -0.0805  0.1519  0.1954
 2572SOL    HW112563   0.314   4.150   1.116 -0.4720  0.6709  1.6061
 2572SOL    HW212564   0.387   4.272   1.062  0.1619  0.4450  1.9374
 2573SOL     OW12565   0.752   7.364   4.250 -0.1448  0.1855 -0.0451
 2573SOL    HW112566   0.757   7.310   4.171  0.0327  1.3443 -0.8627
 2573SOL    HW212567   0.663   7.399   4.249  0.1785  1.0180 -0.3032
 2574SOL     OW12568   8.967   4.389   2.464  0.0074 -0.1603 -0.1424
 2574SOL    HW112569   8.963   4.412   2.557 -0.6648  0.1858 -0.2560
 2574SOL    HW212570   8.879   4.360   2.443 -0.0088  0.3793 -0.8360
 2575SOL     OW12571   9.170   4.525   2.060 -0.3949 -0.8235 -0.2076
 2575SOL    HW112572   9.153   4.476   1.979 -1.6063  0.4491 -0.7819
 2575SOL    HW212573   9.265   4.523   2.069 -0.3505 -2.6863 -0.5471
 2576SOL     OW12574   0.654   6.514   2.198 -0.0961  0.3834  0.3169
 2576SOL    HW112575   0.680   6.601   2.228 -0.8448  0.7255 -0.0139
 2576SOL    HW212576   0.571   6.527   2.152 -0.3319 -0.5362  0.4524
 2577SOL     OW12577   0.658   1.230   1.819 -0.0637  0.4134  0.3796
 2577SOL    HW112578   0.749   1.258   1.828 -0.3280  1.2428  0.5781
 2577SOL    HW212579   0.663   1.142   1.781  0.9079 -0.5909  2.6612
 2578SOL     OW12580   0.517   3.456   1.293 -0.8226  0.0124  0.0563
 2578SOL    HW112581   0.453   3.389   1.318 -1.4818  0.1667 -1.1265
 2578SOL    HW212582   0.483   3.491   1.211  0.5963  0.3785 -0.3929
 2579SOL     OW12583   0.227   6.625   2.338 -0.2977  0.0113  0.5950
 2579SOL    HW112584   0.281   6.692   2.296  2.5362  0.3610  4.2851
 2579SOL    HW212585   0.180   6.672   2.407 -2.4057 -1.0365 -0.0267
 2580SOL     OW12586   9.014   6.573   3.743  0.5403  0.3318  0.2324
 2580SOL    HW112587   8.963   6.507   3.696  0.6672  0.7916 -0.5607
 2580SOL    HW212588   9.105   6.550   3.726  0.5873  0.9097 -0.3506
 2581SOL     OW12589   2.905   5.160   2.905  0.4995 -0.1656 -0.1953
 2581SOL    HW112590   2.896   5.227   2.973  0.7482 -0.6637  0.3365
 2581SOL    HW212591   2.999   5.161   2.883  0.1771  1.0976 -1.6844
 2582SOL     OW12592   1.649   5.013   2.757 -0.3274 -0.3483 -0.0591
 2582SOL    HW112593   1.559   5.021   2.723 -0.5508  1.2022  0.8247
 2582SOL    HW212594   1.659   5.087   2.817  0.9176 -1.5566  1.3066
 2583SOL     OW12595   3.895   4.682   2.403  0.4159 -0.1483  0.2413
 2583SOL    HW112596   3.967   4.744   2.394 -0.6581  0.9384 -1.7115
 2583SOL    HW212597   3.865   4.692   2.493  1.4177  0.8709  0.4807
 2584SOL     OW12598   9.777   7.086   3.100  0.4262 -0.2712  0.7827
 2584SOL    HW112599   9.825   7.155   3.055  0.6909 -0.5429  0.6456
 2584SOL    HW212600   9.833   7.009   3.092 -0.6829 -0.9692 -0.6517
 2585SOL     OW12601   8.361   4.162   2.348 -0.4444  0.2817  0.2341
 2585SOL    HW112602   8.456   4.153   2.353 -0.4018 -0.3417 -1.1795
 2585SOL    HW212603   8.345   4.196   2.259 -1.5027  1.1608  0.7318
 2586SOL     OW12604   1.396   3.498   2.705 -0.3094 -0.0307 -0.0708
 2586SOL    HW112605   1.339   3.570   2.731 -0.5994 -0.7954  1.5063
 2586SOL    HW212606   1.469   3.541   2.659 -0.5190  1.2566  0.7387
 2587SOL     OW12607   9.820   5.274   3.214 -0.4782  0.4211  0.4283
 2587SOL    HW112608   9.796   5.182   3.206  0.2341  0.2690 -0.0973
 2587SOL    HW212609   9.774   5.318   3.143 -0.1884  0.3305  0.1803
 2588SOL     OW12610   2.989   2.974   5.913  0.4907 -0.1191  0.2848
 2588SOL    HW112611   3.050   3.026   5.860 -1.9506  1.5928 -1.0429
 2588SOL    HW212612   2.984   3.021   5.996  0.2082  0.3156  0.0225
 2589SOL     OW12613   0.083   7.234   3.834  0.3100  0.0181 -0.3526
 2589SOL    HW112614  -0.012   7.231   3.845  0.3895  1.5576  1.1808
 2589SOL    HW212615   0.096   7.285   3.755 -0.1357 -0.1329 -0.5280
 2590SOL     OW12616   0.986   5.953   0.481  0.1896 -0.1928 -0.0368
 2590SOL    HW112617   0.975   5.967   0.575  1.0714  1.1135 -0.1012
 2590SOL    HW212618   0.995   5.858   0.472  0.4321 -0.3103  1.2425
 2591SOL     OW12619   9.670   2.511   2.288 -0.2657  0.0756  0.1349
 2591SOL    HW112620   9.606   2.518   2.358  0.2793 -0.5935  0.7170
 2591SOL    HW212621   9.747   2.472   2.329  0.4475  0.6647 -0.5922
 2592SOL     OW12622   7.902   3.029   2.414  0.0785  0.4527  0.6294
 2592SOL    HW112623   7.910   3.052   2.506 -0.8778  0.8356  0.6329
 2592SOL    HW212624   7.874   3.110   2.371  0.9182  0.3812 -0.0654
 2593SOL     OW12625   1.976   3.751   2.020 -0.4079  0.2632 -0.1369
 2593SOL    HW112626   2.034   3.773   1.947 -0.3800  2.7315  0.5310
 2593SOL    HW212627   1.915   3.687   1.984  0.6373  0.1752 -1.8442
 2594SOL     OW12628   1.801   2.149   4.534 -0.2090 -0.0312  0.6499
 2594SOL    HW112629   1.846   2.150   4.619  0.2758  2.5873  0.4427
 2594SOL    HW212630   1.708   2.152   4.557 -0.0754  1.0918  1.1440
 2595SOL     OW12631   8.092   3.429   4.766  0.4251 -0.6686  0.5443
 2595SOL    HW112632   8.092   3.382   4.849  1.4842 -0.0747  0.8957
 2595SOL    HW212633   8.171   3.400   4.721  0.8817  0.4640  0.5925
 2596SOL     OW12634   2.449   4.973   2.480  0.4513  0.3166 -0.7737
 2596SOL    HW112635   2.413   4.997   2.566  2.5391 -0.3173  0.3573
 2596SOL    HW212636   2.400   4.895   2.454  1.9298 -1.4745  1.4514
 2597SOL     OW12637   0.714   5.164   5.313 -0.6030 -0.1464  0.2428
 2597SOL    HW112638   0.732   5.244   5.362 -1.4083 -1.0268  2.0877
 2597SOL    HW212639   0.764   5.096   5.359 -1.5794 -1.0576 -0.0041
 2598SOL     OW12640   1.032   5.059   2.836 -0.7030  0.2219 -0.5424
 2598SOL    HW112641   0.967   4.999   2.870  0.5215 -1.3931 -0.9259
 2598SOL    HW212642   1.052   5.117   2.909  0.4903 -1.9817  1.0138
 2599SOL     OW12643   8.337   4.973   2.166  0.4350 -0.2385  0.2299
 2599SOL    HW112644   8.324   5.041   2.100 -0.3215 -1.3053 -0.7543
 2599SOL    HW212645   8.362   5.022   2.245  1.9319  1.0199 -0.9583
 2600SOL     OW12646   0.001   5.928   2.431  0.4340  0.4486 -0.4581
 2600SOL    HW112647  -0.091   5.903   2.444  0.4803  0.6587  0.3419
 2600SOL    HW212648   0.015   5.920   2.337 -1.0541  2.6329 -0.9564
 2601SOL     OW12649   2.690   3.684   2.455  0.0738 -0.0289 -0.0063
 2601SOL    HW112650   2.701   3.759   2.514 -0.0017  0.3175 -0.4347
 2601SOL    HW212651   2.758   3.622   2.482 -1.1333 -0.6959  1.7171
 2602SOL     OW12652   2.037   7.787   5.047  0.1149  0.5749  0.1965
 2602SOL    HW112653   2.021   7.874   5.083 -0.9723  0.5792 -0.2679
 2602SOL    HW212654   2.130   7.770   5.065  0.1321  1.4806  1.0258
 2603SOL     OW12655   1.440   5.120   4.403 -1.1864  0.7251  0.2655
 2603SOL    HW112656   1.528   5.116   4.440 -1.3204 -1.0260  0.4846
 2603SOL    HW212657   1.442   5.195   4.344  0.3557  0.8957  0.4945
 2604SOL     OW12658   8.116   6.039   3.036  0.5435 -0.2461 -0.3036
 2604SOL    HW112659   8.140   5.969   3.096  2.7594  1.4111  0.8816
 2604SOL    HW212660   8.150   6.011   2.951 -1.5606 -2.0578 -0.6388
 2605SOL     OW12661   4.589   4.840   3.654  0.0577 -0.8460 -0.0306
 2605SOL    HW112662   4.668   4.895   3.657  0.2069 -1.0743  0.3035
 2605SOL    HW212663   4.560   4.835   3.745 -0.2523 -0.8946 -0.1325
 2606SOL     OW12664   0.190   5.380   3.022 -0.4986  0.0823 -0.7341
 2606SOL    HW112665   0.257   5.341   3.078  0.7789  2.1384 -0.7407
 2606SOL    HW212666   0.115   5.320   3.029  1.1778 -2.1241 -0.4779
 2607SOL     OW12667   1.561   6.175   2.345 -0.3249 -0.0194  0.3164
 2607SOL    HW112668   1.519   6.098   2.307 -2.2547  0.7103  0.8832
 2607SOL    HW212669   1.616   6.209   2.274 -0.5103 -1.1237 -0.3826
 2608SOL     OW12670   8.775   1.909   4.036  0.1993  0.1758 -0.7111
 2608SOL    HW112671   8.790   1.892   4.129  1.8927  0.7169 -0.8614
 2608SOL    HW212672   8.821   1.838   3.991 -1.1882 -0.4793 -1.1561
 2609SOL     OW12673   3.831   5.525   1.244 -0.8142  0.3176  0.7674
 2609SOL    HW112674   3.890   5.546   1.316  0.7768 -0.8906 -0.1264
 2609SOL    HW212675   3.886   5.481   1.179 -2.5421 -0.1751 -0.4442
 2610SOL     OW12676   9.061   3.658   4.821 -0.0498 -0.6874 -0.1473
 2610SOL    HW112677   9.107   3.582   4.857  1.4323  0.5458  0.7055
 2610SOL    HW212678   8.969   3.642   4.843  0.2805 -2.0140  0.4140
 2611SOL     OW12679   2.103   4.635   1.672  0.6061 -0.0044  0.5777
 2611SOL    HW112680   2.159   4.712   1.683 -1.1143  1.1850  1.2925
 2611SOL    HW212681   2.165   4.563   1.657  2.2535  1.9026 -3.2751
 2612SOL     OW12682   0.783   7.118   2.707  0.1669  0.3666 -0.1975
 2612SOL    HW112683   0.734   7.115   2.789  0.6562 -2.2248  0.0822
 2612SOL    HW212684   0.720   7.149   2.642 -1.2045 -0.7720  0.5497
 2613SOL     OW12685   3.741   5.454   2.729 -0.3405 -0.0618  0.3114
 2613SOL    HW112686   3.698   5.450   2.814 -1.9154  0.8800 -0.4011
 2613SOL    HW212687   3.715   5.373   2.684  0.3815 -0.4943  0.6499
 2614SOL     OW12688   0.036   1.893   2.390  0.1571 -0.4915 -0.0905
 2614SOL    HW112689  -0.010   1.848   2.460  0.1922 -0.6357 -0.1613
 2614SOL    HW212690  -0.031   1.946   2.347  0.3596  0.5673  0.8268
 2615SOL     OW12691   9.639   5.404   1.390  0.7227 -0.0000  0.1019
 2615SOL    HW112692   9.570   5.393   1.325  1.5687 -1.4412 -0.5830
 2615SOL    HW212693   9.648   5.499   1.399 -0.4891  0.2130 -0.6887
 2616SOL     OW12694   0.114   3.557   2.487  0.3528 -0.0518 -0.1351
 2616SOL    HW112695   0.127   3.602   2.403  0.6189  0.5647  0.2274
 2616SOL    HW212696   0.150   3.618   2.552 -1.1504  0.1321  0.5621
 2617SOL     OW12697   8.546   5.649   3.389  0.1071  0.0810  0.3916
 2617SOL    HW112698   8.481   5.581   3.373 -0.9531  1.3180 -0.7729
 2617SOL    HW212699   8.572   5.637   3.481 -3.2344  0.7477  1.5558
 2618SOL     OW12700   0.927   5.009   2.218 -0.4051 -0.5316 -0.8366
 2618SOL    HW112701   0.981   5.088   2.218 -0.9066 -0.1594  0.7674
 2618SOL    HW212702   0.988   4.939   2.195  0.8217 -0.1378  0.9799
 2619SOL     OW12703   1.973   3.401   6.168  0.4858 -0.4250  0.2033
 2619SOL    HW112704   1.946   3.370   6.254  0.0886  0.9459  0.5947
 2619SOL    HW212705   1.892   3.407   6.118  0.1187  2.4101  0.9613
 2620SOL     OW12706   3.791   4.369   1.599  0.3985 -0.0940 -0.0521
 2620SOL    HW112707   3.800   4.422   1.679 -1.3341 -0.1624  0.2358
 2620SOL    HW212708   3.880   4.341   1.578  0.8533 -0.5206  2.1794
 2621SOL     OW12709   0.878   2.663   2.756  0.0878 -0.1539  0.5046
 2621SOL    HW112710   0.928   2.736   2.792  0.7083  0.3760 -1.3167
 2621SOL    HW212711   0.944   2.600   2.728 -0.4367 -1.3489  1.8091
 2622SOL     OW12712   8.832   2.464   1.944 -0.0558 -0.7277  0.0785
 2622SOL    HW112713   8.738   2.454   1.931 -0.4805 -1.5210  3.1212
 2622SOL    HW212714   8.870   2.381   1.914 -0.3699 -0.6805 -0.4708
 2623SOL     OW12715   1.772   5.106   1.595 -0.4766  0.2413 -0.4846
 2623SOL    HW112716   1.758   5.018   1.560 -0.1446 -0.6091  1.4109
 2623SOL    HW212717   1.863   5.127   1.572 -0.4245 -0.0890 -0.5836
 2624SOL     OW12718   2.274   3.662   1.467 -0.0372 -0.2663 -0.4202
 2624SOL    HW112719   2.211   3.734   1.473  0.2142 -0.0170 -0.6942
 2624SOL    HW212720   2.226   3.592   1.423  0.0080  0.0802 -1.0349
 2625SOL     OW12721   0.711   3.659   2.537  0.2463 -0.2356  0.2036
 2625SOL    HW112722   0.681   3.673   2.627  0.2497 -1.9713  0.5140
 2625SOL    HW212723   0.693   3.566   2.520  2.3931 -0.5331 -0.7662
 2626SOL     OW12724   0.928   3.923   3.203 -0.1223  0.1029 -0.7372
 2626SOL    HW112725   1.013   3.887   3.179  0.6728 -0.3370  2.4308
 2626SOL    HW212726   0.873   3.846   3.218  0.3710  0.2109  1.9349
 2627SOL     OW12727   3.087   7.080   3.350 -0.3540 -0.0635  0.5712
 2627SOL    HW112728   2.992   7.080   3.362 -0.5427  1.0126 -0.6924
 2627SOL    HW212729   3.111   6.987   3.351 -1.1873 -0.2954  2.3963
 2628SOL     OW12730   2.033   5.022   1.880 -0.2439  0.1600 -0.9087
 2628SOL    HW112731   2.126   5.033   1.858  0.0989 -0.2441  0.2667
 2628SOL    HW212732   2.004   5.109   1.908  0.1730 -0.0018  0.0803
 2629SOL     OW12733   0.109   4.939   9.808  0.0996  0.1804 -0.0927
 2629SOL    HW112734   0.015   4.920   9.802  0.1294  0.1712 -0.6312
 2629SOL    HW212735   0.136   4.901   9.891 -0.2207 -0.5241 -0.3008
 2630SOL     OW12736   0.034   6.213   2.709 -0.2164 -0.6082  0.1947
 2630SOL    HW112737  -0.022   6.142   2.741 -0.6764 -0.0161  0.7160
 2630SOL    HW212738   0.073   6.250   2.788  1.5652 -1.5226 -0.1956
 2631SOL     OW12739   1.187   1.695   1.600 -0.3417  0.4037  0.4377
 2631SOL    HW112740   1.265   1.663   1.555 -0.2779 -0.9547  1.4641
 2631SOL    HW212741   1.217   1.719   1.687 -0.8948  0.7659  0.5347
 2632SOL     OW12742   1.885   3.686   1.692  0.1831 -0.0728  0.7281
 2632SOL    HW112743   1.810   3.696   1.634  0.0808 -0.4656  0.7956
 2632SOL    HW212744   1.876   3.599   1.730  1.7884 -1.0057 -0.8682
 2633SOL     OW12745   0.701   4.417   1.245 -0.1373  0.0233 -0.2894
 2633SOL    HW112746   0.685   4.339   1.192  0.1146  1.3268 -2.3491
 2633SOL    HW212747   0.633   4.414   1.313 -0.2774 -1.8327 -0.4534
 2634SOL     OW12748   0.300   5.095   1.336 -0.2252  0.4368 -0.2559
 2634SOL    HW112749   0.365   5.121   1.401 -1.0360  0.5165  0.5379
 2634SOL    HW212750   0.338   5.017   1.295  0.7946  1.0351 -0.4705
 2635SOL     OW12751   1.299   5.168   1.889  0.3274  0.0100 -0.3610
 2635SOL    HW112752   1.208   5.162   1.920 -0.6093  0.7217 -2.7497
 2635SOL    HW212753   1.345   5.098   1.936 -1.2444  0.1518  1.5206
 2636SOL     OW12754   9.138   4.498   0.965  0.3867 -0.2354 -0.2918
 2636SOL    HW112755   9.148   4.513   0.871  1.1999  0.0085 -0.1713
 2636SOL    HW212756   9.051   4.534   0.985  0.5175  0.4013 -0.8134
 2637SOL     OW12757   8.883   5.625   1.615  0.2857  0.2282  0.4136
 2637SOL    HW112758   8.944   5.559   1.648 -0.5849 -1.0378 -0.4177
 2637SOL    HW212759   8.803   5.611   1.665 -0.3924 -0.3815 -0.7928
 2638SOL     OW12760   1.176   6.701   2.044 -0.6649 -0.9526  0.4422
 2638SOL    HW112761   1.105   6.758   2.014  0.6525  0.7788  0.4758
 2638SOL    HW212762   1.151   6.614   2.014 -1.7267 -0.0356 -1.4860
 2639SOL     OW12763   8.314   3.434   6.517  0.0098 -0.2077  0.0998
 2639SOL    HW112764   8.360   3.392   6.589 -0.5196 -0.5876  0.2168
 2639SOL    HW212765   8.384   3.470   6.462  0.5000 -1.4689 -0.1463
 2640SOL     OW12766   3.142   5.616   0.869  0.1575 -0.5781  0.3788
 2640SOL    HW112767   3.078   5.561   0.915 -0.1271 -0.5308  0.0393
 2640SOL    HW212768   3.213   5.555   0.848  0.6894 -0.4222  1.6350
 2641SOL     OW12769   2.374   3.435   2.846 -0.5079  0.2026  0.1756
 2641SOL    HW112770   2.467   3.457   2.854 -0.1173 -0.1229 -2.5311
 2641SOL    HW212771   2.350   3.461   2.757 -2.3784 -1.9018 -0.0324
 2642SOL     OW12772   1.904   3.017   3.380 -0.2181  0.1359 -0.0638
 2642SOL    HW112773   1.866   2.947   3.434 -0.0078  0.1866  0.1502
 2642SOL    HW212774   1.983   3.043   3.427 -0.4542  0.7251  0.0135
 2643SOL     OW12775   9.846   2.413   1.677  0.1454 -0.3846  0.1879
 2643SOL    HW112776   9.787   2.442   1.747 -0.1360  1.0820 -0.6261
 2643SOL    HW212777   9.920   2.473   1.682 -1.2497  1.7870 -2.6739
 2644SOL     OW12778   3.309   7.409   3.762  0.1485 -0.3653 -0.4574
 2644SOL    HW112779   3.300   7.451   3.847 -1.4360  0.3894 -0.9663
 2644SOL    HW212780   3.253   7.332   3.767  1.2235 -1.1674 -0.3320
 2645SOL     OW12781   1.154   3.644   2.740 -0.3463 -0.5653  0.8208
 2645SOL    HW112782   1.116   3.620   2.825 -0.7516 -0.1923  0.7526
 2645SOL    HW212783   1.131   3.736   2.730 -0.9584 -0.7963 -0.0290
 2646SOL     OW12784   1.924   6.894   3.213  0.2324  0.0630 -0.1869
 2646SOL    HW112785   1.850   6.835   3.227 -0.4121  0.7845 -0.4602
 2646SOL    HW212786   1.989   6.867   3.278 -0.3050 -0.5381  0.1090
 2647SOL     OW12787   1.243   4.198   2.841 -0.7247  0.1597 -0.0359
 2647SOL    HW112788   1.202   4.243   2.915 -0.2668 -1.1567  1.0804
 2647SOL    HW212789   1.201   4.234   2.764 -1.0863  1.7351  0.8523
 2648SOL     OW12790   9.200   4.931   2.650 -0.3106  0.5897 -0.1828
 2648SOL    HW112791   9.245   4.960   2.730  0.8955 -0.2017 -0.5513
 2648SOL    HW212792   9.143   5.004   2.627 -0.9171  0.7206  1.5627
 2649SOL     OW12793   0.135   5.022   0.399  0.0476  0.0951 -0.0825
 2649SOL    HW112794   0.183   4.943   0.376 -0.9088 -0.3957 -0.4755
 2649SOL    HW212795   0.179   5.056   0.477  1.0835 -0.2598 -0.4912
 2650SOL     OW12796   1.128   4.907   3.327 -0.7857 -0.5973 -0.8397
 2650SOL    HW112797   1.089   4.911   3.240  1.7415  1.4433 -2.0118
 2650SOL    HW212798   1.169   4.821   3.331 -1.0060 -0.7440 -1.6280
 2651SOL     OW12799   9.745   2.707   2.901  0.3871  0.3067  0.2138
 2651SOL    HW112800   9.663   2.756   2.902  0.2214  0.0262  0.1449
 2651SOL    HW212801   9.727   2.628   2.851  0.8734  0.5408 -0.3408
 2652SOL     OW12802   2.980   3.772   1.994 -0.1033 -0.0742 -1.0805
 2652SOL    HW112803   3.022   3.770   2.080 -1.3389  0.6620 -0.4309
 2652SOL    HW212804   3.048   3.743   1.934  0.0674 -3.1231  0.4019
 2653SOL     OW12805   8.963   3.390   4.944  0.0674  0.3418 -0.3031
 2653SOL    HW112806   8.909   3.409   5.021 -1.1439 -0.2599 -0.9869
 2653SOL    HW212807   9.006   3.308   4.965 -0.2491  0.1863 -0.2547
 2654SOL     OW12808   1.016   5.015   4.331 -0.2024 -0.3124 -0.4232
 2654SOL    HW112809   1.005   4.935   4.383  0.9420 -1.0794 -1.3116
 2654SOL    HW212810   0.959   5.002   4.255 -0.3192 -0.1171 -0.3662
 2655SOL     OW12811   3.629   1.621   4.560 -0.3955 -0.0851  0.0536
 2655SOL    HW112812   3.627   1.544   4.504  2.3079  1.0376 -1.7892
 2655SOL    HW212813   3.722   1.640   4.573 -0.9554  2.1121  1.5125
 2656SOL     OW12814   0.997   4.826   3.090 -0.0071  0.4684 -0.1403
 2656SOL    HW112815   1.017   4.733   3.088  0.3300  0.5362 -0.0436
 2656SOL    HW212816   0.914   4.834   3.044  0.2485  0.1926 -0.6612
 2657SOL     OW12817   2.308   3.793   2.072 -0.0755  0.2297 -0.8370
 2657SOL    HW112818   2.230   3.738   2.064  0.6057 -0.7588 -0.8710
 2657SOL    HW212819   2.275   3.883   2.064 -1.2012 -0.1697 -0.8519
 2658SOL     OW12820   2.481   3.142   5.236 -0.1804  0.0725  0.5843
 2658SOL    HW112821   2.567   3.111   5.263  0.3090  1.2006  0.3589
 2658SOL    HW212822   2.469   3.105   5.148  0.0286 -0.1598  0.6519
 2659SOL     OW12823   0.213   3.074   4.866 -0.7971  0.1114 -0.0262
 2659SOL    HW112824   0.120   3.094   4.877 -1.3175 -2.0220 -0.1074
 2659SOL    HW212825   0.249   3.078   4.955 -0.7716  1.6443 -0.0771
 2660SOL     OW12826   9.105   4.013   3.983  0.1297 -1.3550  0.4713
 2660SOL    HW112827   9.188   4.038   3.943 -1.1018  2.3643 -0.1128
 2660SOL    HW212828   9.129   3.980   4.070  2.1944  0.4507  0.6507
 2661SOL     OW12829   9.057   5.019   5.232 -0.5069  0.4202 -0.1202
 2661SOL    HW112830   8.983   5.053   5.183 -0.8464 -0.8240 -0.5104
 2661SOL    HW212831   9.094   4.950   5.177  0.7529  0.7890  0.2070
 2662SOL     OW12832   3.161   5.769   2.795 -0.0042  0.5247 -0.1185
 2662SOL    HW112833   3.155   5.682   2.833  0.2776  0.4594 -0.2167
 2662SOL    HW212834   3.135   5.757   2.704  1.3135  0.2825 -0.4855
 2663SOL     OW12835   0.133   3.934   5.452  0.3759  0.2448 -0.0118
 2663SOL    HW112836   0.223   3.915   5.427 -0.3777 -1.4692 -1.6859
 2663SOL    HW212837   0.120   4.025   5.428  0.9012 -0.2323 -2.3808
 2664SOL     OW12838   2.060   5.245   1.546 -0.1429  0.3644  0.3254
 2664SOL    HW112839   2.152   5.237   1.573 -0.0678  2.3529  0.8128
 2664SOL    HW212840   2.023   5.310   1.605 -1.8285 -0.2394 -0.0121
 2665SOL     OW12841   1.908   5.206   5.504  0.0458  0.2856 -0.5335
 2665SOL    HW112842   1.949   5.289   5.480  0.3509 -0.1723 -1.6792
 2665SOL    HW212843   1.891   5.213   5.598  1.9279  0.8292 -0.2056
 2666SOL     OW12844   3.214   2.856   1.986 -0.0161 -0.2202  0.2112
 2666SOL    HW112845   3.298   2.886   1.953  0.5943 -0.2018  1.6986
 2666SOL    HW212846   3.235   2.790   2.052 -1.1962 -0.7939  0.0513
 2667SOL     OW12847   1.104   2.672   1.908  0.3572 -0.1962 -0.0186
 2667SOL    HW112848   1.095   2.578   1.896  1.8979 -0.3477 -0.2129
 2667SOL    HW212849   1.015   2.703   1.924 -0.4545 -1.4146 -1.8135
 2668SOL     OW12850   9.437   5.318   4.203  0.4813  0.7334 -0.0207
 2668SOL    HW112851   9.368   5.341   4.265  1.0295  1.6110  0.2929
 2668SOL    HW212852   9.518   5.329   4.253  0.8828  0.5017 -0.6139
 2669SOL     OW12853   9.394   4.150   2.346  0.4007  0.0950 -0.2069
 2669SOL    HW112854   9.363   4.214   2.281  0.9275  0.1594 -0.3998
 2669SOL    HW212855   9.488   4.165   2.351  0.5591 -0.7773 -0.3723
 2670SOL     OW12856   9.452   4.416   4.145 -0.3948  0.7506 -0.2369
 2670SOL    HW112857   9.531   4.382   4.103  0.6272  1.4425  1.0673
 2670SOL    HW212858   9.435   4.499   4.099 -1.4117 -0.2042 -1.6848
 2671SOL     OW12859   1.154   3.922   3.058  0.3959 -0.1441 -0.0300
 2671SOL    HW112860   1.185   3.930   3.148  0.0443  0.4957  0.0416
 2671SOL    HW212861   1.231   3.893   3.009  0.6737 -0.1771  0.4197
 2672SOL     OW12862   9.358   3.860   1.538 -0.1684 -0.1944  0.0071
 2672SOL    HW112863   9.281   3.829   1.585  0.8397 -1.9338  0.5801
 2672SOL    HW212864   9.336   3.950   1.514 -2.4277 -0.6958 -0.0048
 2673SOL     OW12865   0.771   4.881   2.959 -0.1299  0.0366 -0.1449
 2673SOL    HW112866   0.741   4.795   2.928  0.3783 -0.0184 -0.4938
 2673SOL    HW212867   0.696   4.917   3.007 -0.2480 -0.7140  0.2368
 2674SOL     OW12868   8.857   4.082   4.825 -0.2386  0.0231 -0.9023
 2674SOL    HW112869   8.936   4.028   4.834 -1.2069 -1.3525 -0.2007
 2674SOL    HW212870   8.885   4.158   4.775  1.2704 -0.9920 -1.6780
 2675SOL     OW12871   9.582   6.327   2.011 -0.1868  1.0967 -0.0881
 2675SOL    HW112872   9.533   6.261   1.960 -0.6516  0.2241  1.4224
 2675SOL    HW212873   9.645   6.363   1.948  1.2455 -1.9637 -0.6325
 2676SOL     OW12874   0.246   4.989   4.452 -0.0020 -0.4453  0.6750
 2676SOL    HW112875   0.157   5.002   4.487 -0.7516 -3.9800  0.4373
 2676SOL    HW212876   0.261   5.066   4.397 -3.6536 -0.4701 -0.6576
 2677SOL     OW12877   2.137   5.684   0.847  0.0449  0.0159 -0.1186
 2677SOL    HW112878   2.122   5.658   0.757  0.1525  1.6339 -0.6436
 2677SOL    HW212879   2.210   5.630   0.876  1.2344  0.7206 -1.6270
 2678SOL     OW12880   4.017   6.338   4.054  0.3318  0.1090 -0.3584
 2678SOL    HW112881   4.030   6.425   4.016  0.4921  0.2858  0.0983
 2678SOL    HW212882   4.087   6.284   4.016  0.6578  0.3523 -0.1015
 2679SOL     OW12883   8.957   5.644   2.122  0.4661 -0.1262 -0.6967
 2679SOL    HW112884   9.016   5.719   2.126  0.8526 -0.4703  0.3139
 2679SOL    HW212885   9.015   5.568   2.119  0.1888 -0.6259  3.0740
 2680SOL     OW12886   8.784   4.653   3.085 -0.2741 -0.0357 -0.2844
 2680SOL    HW112887   8.756   4.732   3.130 -2.3082 -0.6178 -0.4356
 2680SOL    HW212888   8.752   4.581   3.139  0.2204 -0.7600 -0.9255
 2681SOL     OW12889   1.334   3.227   2.488  0.1934  0.5643 -0.4876
 2681SOL    HW112890   1.422   3.237   2.453  0.8350  0.5702  1.0114
 2681SOL    HW212891   1.314   3.134   2.477  0.1393  0.6756 -1.3593
 2682SOL     OW12892   1.949   4.353   1.550 -0.2686  0.2773  0.5240
 2682SOL    HW112893   2.036   4.314   1.555  0.6416  2.0206 -0.6037
 2682SOL    HW212894   1.924   4.370   1.641  1.1134  0.8558  0.8133
 2683SOL     OW12895   2.262   7.201   2.747  0.1428  0.3419 -0.3546
 2683SOL    HW112896   2.232   7.111   2.758  0.3259  0.1869 -1.0928
 2683SOL    HW212897   2.219   7.249   2.818  0.0425 -0.3205  0.0462
 2684SOL     OW12898   7.254   6.750   2.994 -0.0034  0.1613 -0.3548
 2684SOL    HW112899   7.225   6.830   2.950 -0.1986  0.1715 -0.2106
 2684SOL    HW212900   7.348   6.764   3.009 -0.4824  1.5050  1.9982
 2685SOL     OW12901   0.752   6.521   3.611 -0.0857 -0.1354  0.0731
 2685SOL    HW112902   0.682   6.456   3.615 -1.9828  1.8081  0.0143
 2685SOL    HW212903   0.752   6.550   3.520  1.3423 -0.6397 -0.1106
 2686SOL     OW12904   9.770   6.208   2.465  0.2637  0.4644  0.1292
 2686SOL    HW112905   9.812   6.248   2.541 -0.5296  1.2411  0.1674
 2686SOL    HW212906   9.827   6.133   2.444  1.5642  1.3656  0.2809
 2687SOL     OW12907   1.700   2.671   1.677 -0.2060  0.2685 -0.4785
 2687SOL    HW112908   1.681   2.584   1.643 -0.6501  1.0630 -2.4171
 2687SOL    HW212909   1.793   2.668   1.702 -0.4600 -1.0045  0.3951
 2688SOL     OW12910   1.644   4.800   1.836  0.0742 -0.2615 -0.3897
 2688SOL    HW112911   1.611   4.809   1.747  1.2417 -1.0749 -0.9375
 2688SOL    HW212912   1.739   4.802   1.827  0.2124  0.0424  0.8935
 2689SOL     OW12913   9.597   4.783   3.305  0.2543  0.1203  0.4427
 2689SOL    HW112914   9.544   4.859   3.282 -0.2141  0.0822  1.3360
 2689SOL    HW212915   9.610   4.736   3.223 -1.0434  0.1680  0.1929
 2690SOL     OW12916   0.356   6.962   1.981  0.0631  0.4462 -0.5848
 2690SOL    HW112917   0.351   7.054   2.006 -1.9958  0.1038  0.5234
 2690SOL    HW212918   0.353   6.962   1.886  0.0928  1.5328 -0.5959
 2691SOL     OW12919   2.845   6.067   3.915 -0.5989  0.1107 -0.2595
 2691SOL    HW112920   2.805   5.980   3.917 -2.0023  0.7222 -0.0119
 2691SOL    HW212921   2.933   6.054   3.949  0.1311 -1.6228 -2.5675
 2692SOL     OW12922   0.980   0.930   2.621 -0.1256 -0.0531  0.0598
 2692SOL    HW112923   0.947   1.019   2.607 -1.0394 -0.6202 -1.7143
 2692SOL    HW212924   1.072   0.942   2.646  0.0100  1.3573 -1.0058
 2693SOL     OW12925   1.180   2.345   3.643 -0.2402 -0.0702  0.7963
 2693SOL    HW112926   1.117   2.278   3.619  1.6507 -1.3007 -1.1385
 2693SOL    HW212927   1.168   2.357   3.737 -2.8356 -0.7026  0.6206
 2694SOL     OW12928   1.440   5.253   0.851 -0.2838  0.6809  0.0451
 2694SOL    HW112929   1.521   5.292   0.819  1.1411 -1.1499  1.2021
 2694SOL    HW212930   1.456   5.238   0.944 -1.7756 -0.1339  0.1956
 2695SOL     OW12931   1.758   5.906   2.752 -0.1740  0.1573  0.0678
 2695SOL    HW112932   1.726   5.826   2.710  1.3831 -0.0110 -0.9118
 2695SOL    HW212933   1.794   5.957   2.679 -0.0598  1.2089  0.8456
 2696SOL     OW12934   8.981   5.087   2.603  0.0727 -0.6624  0.2052
 2696SOL    HW112935   8.942   5.069   2.688 -1.3079 -1.4804 -0.5555
 2696SOL    HW212936   8.918   5.145   2.560 -0.5196 -2.2649 -1.1804
 2697SOL     OW12937   0.984   5.844   0.155 -0.0965  0.1299 -0.0739
 2697SOL    HW112938   1.001   5.804   0.070 -2.1377  0.8568 -0.8841
 2697SOL    HW212939   1.002   5.775   0.218  1.5311 -0.4009 -1.0683
 2698SOL     OW12940   1.201   3.839   4.477 -0.2102  0.0035  0.5125
 2698SOL    HW112941   1.240   3.776   4.537 -0.2583 -0.2072  0.3255
 2698SOL    HW212942   1.117   3.861   4.516 -0.1242  0.0725  0.6593
 2699SOL     OW12943   2.129   6.435   0.634 -0.4576  1.5040  0.4952
 2699SOL    HW112944   2.108   6.441   0.541  0.2608  0.8876  0.2801
 2699SOL    HW212945   2.079   6.360   0.665  1.7740 -0.3657 -0.1595
 2700SOL     OW12946   3.082   4.239   5.730  0.0804  0.6278  0.2606
 2700SOL    HW112947   3.018   4.276   5.792 -1.0446 -0.2291 -0.3607
 2700SOL    HW212948   3.082   4.300   5.656 -0.2858  0.4319  0.1011
 2701SOL     OW12949   9.767   4.383   1.949 -0.1113  0.3128  0.1265
 2701SOL    HW112950   9.750   4.296   1.983 -0.8391  0.8769  1.2512
 2701SOL    HW212951   9.725   4.384   1.863 -3.4127  0.6968  1.5968
 2702SOL     OW12952   8.520   5.229   3.448 -0.1074  0.8126  0.3882
 2702SOL    HW112953   8.491   5.154   3.500  1.7811  0.0070  0.3652
 2702SOL    HW212954   8.517   5.199   3.357  0.8812  0.6476  0.3952
 2703SOL     OW12955   2.050   3.300   3.227 -0.0676 -0.0658 -0.3220
 2703SOL    HW112956   2.111   3.228   3.212 -0.3899 -0.2130 -0.9593
 2703SOL    HW212957   2.011   3.281   3.312 -0.8609 -1.1718 -0.9046
 2704SOL     OW12958   9.445   1.141   2.117 -0.0114 -0.1670  0.4000
 2704SOL    HW112959   9.472   1.051   2.099  0.3217  0.3960 -2.3313
 2704SOL    HW212960   9.361   1.151   2.071 -1.8189 -0.0045  3.4774
 2705SOL     OW12961   0.126   2.728   2.734  0.1782 -0.5958  0.1845
 2705SOL    HW112962   0.123   2.641   2.695 -0.4268  0.2202 -1.6771
 2705SOL    HW212963   0.066   2.723   2.809  0.5581 -1.9011  0.4221
 2706SOL     OW12964   0.481   3.721   2.353  0.0207 -0.0991 -0.1553
 2706SOL    HW112965   0.432   3.785   2.404  1.2532  0.8608 -0.1186
 2706SOL    HW212966   0.566   3.716   2.397  1.4493  1.4033 -2.4877
 2707SOL     OW12967   1.131   3.891   4.016 -0.0530 -0.3125  0.4110
 2707SOL    HW112968   1.092   3.959   4.070 -0.3818 -0.4741  0.3793
 2707SOL    HW212969   1.062   3.867   3.954 -0.2042 -1.2270  0.9262
 2708SOL     OW12970   1.305   6.381   2.665 -0.1240  0.1828 -0.4804
 2708SOL    HW112971   1.266   6.368   2.752  0.4373 -1.8988 -0.4946
 2708SOL    HW212972   1.240   6.432   2.617 -0.9819  0.3197  0.7737
 2709SOL     OW12973   8.751   4.205   2.596  0.2507 -0.1808  0.3781
 2709SOL    HW112974   8.710   4.244   2.674 -0.9092  0.0077 -0.2984
 2709SOL    HW212975   8.751   4.111   2.613 -1.6009 -0.3105 -0.0820
 2710SOL     OW12976   1.288   5.538   2.215 -0.5737 -0.0681 -0.1779
 2710SOL    HW112977   1.376   5.503   2.223 -0.3577  0.3867 -0.4858
 2710SOL    HW212978   1.252   5.535   2.304 -0.6706 -1.3205 -0.2524
 2711SOL     OW12979   9.387   4.438   4.968 -0.1356 -0.2116 -0.1388
 2711SOL    HW112980   9.464   4.391   4.938  0.4102 -0.5879  1.7112
 2711SOL    HW212981   9.380   4.513   4.909  2.3116  0.4429  0.2906
 2712SOL     OW12982   0.915   4.807   4.482  0.0877 -0.2531  0.2283
 2712SOL    HW112983   0.873   4.763   4.557 -1.3806  0.3524 -0.2127
 2712SOL    HW212984   1.008   4.807   4.504 -0.3158 -0.0394  2.0906
 2713SOL     OW12985   3.640   4.823   3.410 -0.2390 -0.5108  0.5748
 2713SOL    HW112986   3.694   4.888   3.366  0.0393 -1.3850 -0.4236
 2713SOL    HW212987   3.695   4.791   3.482  0.1623 -0.6067  0.2327
 2714SOL     OW12988   1.946   4.668   1.468  0.0853  0.3583 -0.1931
 2714SOL    HW112989   2.007   4.654   1.395  0.2941  0.0618  0.0352
 2714SOL    HW212990   2.002   4.667   1.546 -0.0533  1.2400 -0.0663
 2715SOL     OW12991   0.341   5.870   1.703 -0.1769  0.0307 -0.0875
 2715SOL    HW112992   0.296   5.923   1.637 -0.3246  0.1479  0.1103
 2715SOL    HW212993   0.424   5.916   1.718 -0.1843  0.0546 -0.1179
 2716SOL     OW12994   1.226   4.940   0.353 -0.5402  0.3035  0.0015
 2716SOL    HW112995   1.159   4.872   0.352 -1.5482  1.2476 -1.3263
 2716SOL    HW212996   1.202   4.996   0.427  0.5685 -1.0091  1.3880
 2717SOL     OW12997   8.945   3.701   2.141 -0.1789  0.3632 -0.1365
 2717SOL    HW112998   9.007   3.728   2.208 -0.3597  0.6813 -0.0962
 2717SOL    HW212999   8.998   3.658   2.074  0.0628  0.4989 -0.0318
 2718SOL     OW13000   2.208   4.853   2.391  0.0864  0.2137 -0.2554
 2718SOL    HW113001   2.184   4.817   2.306 -0.6696  0.9869 -0.3803
 2718SOL    HW213002   2.125   4.874   2.433  0.4057 -0.9808  1.0571
 2719SOL     OW13003   2.734   5.183   1.873  0.4909  0.3034 -0.1894
 2719SOL    HW113004   2.648   5.200   1.909  0.2287  0.6391 -0.9432
 2719SOL    HW213005   2.785   5.262   1.893  0.8491 -0.1774  0.8723
 2720SOL     OW13006   0.099   6.161   3.350  0.2764  0.2980  0.0245
 2720SOL    HW113007   0.093   6.135   3.442  0.4156  0.2062  0.0081
 2720SOL    HW213008   0.055   6.090   3.302  1.8747 -0.6309 -0.1373
 2721SOL     OW13009   3.710   3.596   5.094  0.5707  0.3156 -0.3461
 2721SOL    HW113010   3.757   3.636   5.167 -0.2100  0.2226  0.2187
 2721SOL    HW213011   3.720   3.502   5.108 -1.5150  0.2159  0.9981
 2722SOL     OW13012   9.630   5.079   2.683 -0.3417 -0.2422  0.4438
 2722SOL    HW113013   9.562   5.139   2.711  1.1569  1.3123  0.9001
 2722SOL    HW213014   9.684   5.130   2.623  0.3851 -1.4490  0.0347
 2723SOL     OW13015   2.644   5.767   3.151  0.4861  0.6836  0.4762
 2723SOL    HW113016   2.697   5.836   3.111  0.1166  0.1233 -1.0486
 2723SOL    HW213017   2.658   5.690   3.095 -0.7272  0.0981  0.9406
 2724SOL     OW13018   2.639   4.671   2.542 -0.6289 -0.0470  0.2885
 2724SOL    HW113019   2.604   4.632   2.462 -1.6134  0.9170  0.2266
 2724SOL    HW213020   2.714   4.723   2.513 -1.2216  0.6175 -0.0767
 2725SOL     OW13021   0.368   2.699   2.548 -0.0090 -0.4159 -0.3758
 2725SOL    HW113022   0.448   2.672   2.595 -0.4515 -2.3244 -0.6397
 2725SOL    HW213023   0.302   2.635   2.576 -2.1888  2.4704  1.7252
 2726SOL     OW13024   1.650   4.540   0.815  0.1529  0.3066  0.3472
 2726SOL    HW113025   1.565   4.562   0.777  0.6064  1.7744  0.1068
 2726SOL    HW213026   1.665   4.449   0.789 -1.2007  0.1220  0.1415
 2727SOL     OW13027   0.765   3.480   2.867  0.3939  0.1797  0.9227
 2727SOL    HW113028   0.796   3.476   2.957  0.8140  1.4865  0.8584
 2727SOL    HW213029   0.749   3.572   2.851  1.5302  0.1511 -0.7162
 2728SOL     OW13030   9.786   4.440   9.681  0.3070 -0.3525  0.6460
 2728SOL    HW113031   9.718   4.384   9.717 -0.4518  0.2294  0.1449
 2728SOL    HW213032   9.826   4.483   9.757 -0.9677  0.5225  0.8517
 2729SOL     OW13033   1.763   3.813   3.622  0.9387 -0.4500  0.1515
 2729SOL    HW113034   1.687   3.871   3.624  0.1504 -1.4594  0.0876
 2729SOL    HW213035   1.826   3.859   3.567  0.6750  0.7460  0.8140
 2730SOL     OW13036   0.379   3.170   3.212  0.2081  0.2472  0.1862
 2730SOL    HW113037   0.418   3.112   3.147 -1.6430 -0.9021  0.0043
 2730SOL    HW213038   0.291   3.188   3.178 -0.5999  0.0937  2.0632
 2731SOL     OW13039   0.514   4.960   1.206 -0.6964 -0.6072  0.3803
 2731SOL    HW113040   0.578   4.951   1.136  1.8090 -0.3304  2.4866
 2731SOL    HW213041   0.508   4.872   1.244 -1.6580 -0.6410  0.1921
 2732SOL     OW13042   9.170   4.304   9.437 -0.0188  0.3965  0.3748
 2732SOL    HW113043   9.175   4.294   9.342 -0.7644  2.3162  0.0843
 2732SOL    HW213044   9.076   4.297   9.457 -0.0374  1.5078  0.7425
 2733SOL     OW13045   8.946   3.724   3.109  0.0667  0.3925  0.3505
 2733SOL    HW113046   8.932   3.773   3.028 -0.3896  0.7274  0.6245
 2733SOL    HW213047   8.929   3.788   3.178 -0.2123 -0.0715  0.7133
 2734SOL     OW13048   1.688   4.229   7.500 -0.0499  0.0996  0.3488
 2734SOL    HW113049   1.637   4.226   7.581  1.0906  0.1375  1.0894
 2734SOL    HW213050   1.740   4.148   7.501  0.9727  0.7347  0.3413
 2735SOL     OW13051   0.753   2.539   5.532 -0.3319 -0.0346  0.1195
 2735SOL    HW113052   0.770   2.451   5.565 -1.6413 -0.1189  0.6589
 2735SOL    HW213053   0.669   2.531   5.487 -0.5271  0.9622  0.2836
 2736SOL     OW13054   4.532   6.914   6.005  0.0912 -0.1481  0.2961
 2736SOL    HW113055   4.506   6.923   5.913  0.0749  1.0210  0.3997
 2736SOL    HW213056   4.504   6.826   6.030 -0.2586 -0.3282 -0.7057
 2737SOL     OW13057   9.610   4.373   4.384  0.3260 -0.3329  0.1479
 2737SOL    HW113058   9.543   4.424   4.339  1.7527 -1.1342 -3.2027
 2737SOL    HW213059   9.644   4.431   4.452 -3.1067  0.3610  1.4821
 2738SOL     OW13060   1.792   3.615   4.979  0.1009  0.1891  0.3011
 2738SOL    HW113061   1.731   3.542   4.967  0.3605 -0.0685  0.5226
 2738SOL    HW213062   1.832   3.628   4.893 -1.0039  1.0309 -0.1069
 2739SOL     OW13063   3.251   2.829   3.126 -0.4740  0.5556  0.0630
 2739SOL    HW113064   3.297   2.829   3.042 -0.8662 -0.7331 -0.1774
 2739SOL    HW213065   3.235   2.737   3.144  0.7487  0.6965  2.1985
 2740SOL     OW13066   9.466   4.671   5.148 -0.5535  0.5775  0.0640
 2740SOL    HW113067   9.561   4.663   5.137 -0.7131  0.7107 -1.6854
 2740SOL    HW213068   9.430   4.601   5.094 -1.4586 -1.6135  3.2176
 2741SOL     OW13069   8.797   3.300   5.554  0.5663  0.1031 -0.0317
 2741SOL    HW113070   8.852   3.259   5.620  1.4921  0.4163 -0.5891
 2741SOL    HW213071   8.829   3.265   5.471 -0.6960 -0.4231 -0.3307
 2742SOL     OW13072   0.065   4.406   5.741 -0.6002 -0.1054  0.0882
 2742SOL    HW113073   0.129   4.458   5.789  0.8296 -0.1558 -1.6602
 2742SOL    HW213074   0.019   4.470   5.686  0.9573 -0.5351 -1.8440
 2743SOL     OW13075   0.090   6.152   4.382 -0.5945 -0.9222  0.0320
 2743SOL    HW113076  -0.003   6.168   4.399 -0.5826 -1.4706  0.6705
 2743SOL    HW213077   0.129   6.239   4.373 -1.0820 -0.6793  0.2521
 2744SOL     OW13078   1.806   4.321   4.895 -0.0454 -0.2492 -0.3039
 2744SOL    HW113079   1.731   4.287   4.846 -1.1280  0.3973  0.8418
 2744SOL    HW213080   1.772   4.399   4.939  1.2904  0.0128  0.3079
 2745SOL     OW13081   6.925   2.402   5.469  0.3775 -0.6280  0.3867
 2745SOL    HW113082   6.845   2.432   5.514  1.1202  1.2506  0.5288
 2745SOL    HW213083   6.960   2.334   5.526 -0.9112 -1.2246  0.5108
 2746SOL     OW13084   0.772   5.102   4.608  0.1630 -0.1833 -0.1744
 2746SOL    HW113085   0.697   5.068   4.658 -0.1881 -0.6946 -1.0264
 2746SOL    HW213086   0.756   5.073   4.519  0.9319  0.4757 -0.5370
 2747SOL     OW13087   8.479   4.034   2.802 -0.4390  0.0838  0.1420
 2747SOL    HW113088   8.387   4.027   2.827 -0.0993 -0.6652  1.2485
 2747SOL    HW213089   8.527   4.018   2.884  0.6912 -0.7117 -0.6523
 2748SOL     OW13090   2.203   5.991   6.736 -0.6624  0.1989 -0.0831
 2748SOL    HW113091   2.242   5.934   6.802  2.3081  1.3540 -0.7016
 2748SOL    HW213092   2.168   5.931   6.670 -0.7263 -0.9065  0.9290
 2749SOL     OW13093   9.292   5.618   4.836 -0.6628 -0.4958 -0.2326
 2749SOL    HW113094   9.281   5.552   4.768 -1.9379 -1.8054  1.1599
 2749SOL    HW213095   9.212   5.613   4.888  1.0255 -1.0937  2.6110
 2750SOL     OW13096   1.150   3.823   5.418 -0.0045  0.2551 -0.5546
 2750SOL    HW113097   1.234   3.779   5.406  0.5248  1.6089 -2.2864
 2750SOL    HW213098   1.086   3.764   5.379  0.6208  0.6599 -2.3045
 2751SOL     OW13099   0.858   7.152   4.501  0.8336 -0.3883 -0.2475
 2751SOL    HW113100   0.896   7.234   4.533  0.9329 -0.2045 -0.8249
 2751SOL    HW213101   0.897   7.140   4.414 -0.1874 -0.3657 -0.7182
 2752SOL     OW13102   9.768   3.354   3.486 -0.3751  0.4955  0.2059
 2752SOL    HW113103   9.724   3.438   3.497 -1.9567 -0.0996 -1.0789
 2752SOL    HW213104   9.828   3.368   3.412 -1.2619  0.3080 -0.5749
 2753SOL     OW13105   2.047   4.449   4.940  0.2102  0.0694  0.1413
 2753SOL    HW113106   2.026   4.484   5.026 -0.7075  0.2440 -0.1409
 2753SOL    HW213107   1.978   4.385   4.922 -0.1193  0.6735 -0.8291
 2754SOL     OW13108   9.245   5.787   6.161 -0.3163 -0.6292 -1.1854
 2754SOL    HW113109   9.154   5.799   6.137 -0.6760 -1.5292 -0.3717
 2754SOL    HW213110   9.255   5.836   6.243  0.1307  0.0603 -1.6429
 2755SOL     OW13111   2.332   4.056   2.999 -0.4080 -0.4703 -0.6739
 2755SOL    HW113112   2.330   4.132   2.941  0.6882 -0.7245 -1.0777
 2755SOL    HW213113   2.325   3.981   2.939  1.5307 -0.7613 -0.5862
 2756SOL     OW13114   0.658   5.498   4.954 -0.7426  0.8056 -0.6285
 2756SOL    HW113115   0.587   5.551   4.919 -0.1033  1.0260 -1.6408
 2756SOL    HW213116   0.731   5.514   4.894  1.1054  2.8442  1.9418
 2757SOL     OW13117   9.565   3.470   4.244 -0.4157  0.3080  0.0746
 2757SOL    HW113118   9.483   3.427   4.220 -0.0418 -0.1624 -0.3646
 2757SOL    HW213119   9.622   3.458   4.169  0.0835  0.5874  0.4000
 2758SOL     OW13120   3.140   3.948   2.700 -0.0907 -0.1189 -0.0293
 2758SOL    HW113121   3.221   3.919   2.658  0.0719  1.3775 -0.8395
 2758SOL    HW213122   3.075   3.884   2.674  0.6290 -0.8154 -0.1607
 2759SOL     OW13123   8.917   3.235   3.831 -0.3156  0.2906 -0.6204
 2759SOL    HW113124   8.858   3.203   3.900 -1.2862  3.2404  0.0682
 2759SOL    HW213125   8.858   3.268   3.763  0.4269  2.9505 -0.0981
 2760SOL     OW13126   0.571   5.252   3.835  0.4800 -0.3872 -0.4200
 2760SOL    HW113127   0.632   5.269   3.763 -0.8000 -1.6366 -1.8993
 2760SOL    HW213128   0.496   5.309   3.817  0.9331  0.6861  1.0245
 2761SOL     OW13129   0.303   2.875   4.055 -0.4544  0.8399  0.2993
 2761SOL    HW113130   0.260   2.790   4.041  1.5816 -0.0979 -0.6911
 2761SOL    HW213131   0.306   2.885   4.150  1.5611 -1.5062  0.5879
 2762SOL     OW13132   0.953   5.000   5.099  0.3898 -0.3003  0.5378
 2762SOL    HW113133   0.892   5.027   5.168 -0.4427  2.7917 -1.2211
 2762SOL    HW213134   1.026   4.961   5.146 -0.5442  0.7979  3.1005
 2763SOL     OW13135   1.189   4.545   4.205  0.4891 -0.1036 -0.2408
 2763SOL    HW113136   1.271   4.549   4.253  0.9908  0.3646 -1.1219
 2763SOL    HW213137   1.193   4.463   4.156 -0.6341 -1.3119  1.5299
 2764SOL     OW13138   9.625   5.096   3.790  0.0668 -0.1306 -0.6098
 2764SOL    HW113139   9.605   5.042   3.713  0.7033  0.0843 -0.9291
 2764SOL    HW213140   9.656   5.179   3.754 -0.1291  0.1636 -0.1150
 2765SOL     OW13141   2.102   4.809   2.151 -0.1356 -0.0555  0.2478
 2765SOL    HW113142   2.126   4.878   2.088  0.9470 -0.7665 -0.1458
 2765SOL    HW213143   2.011   4.790   2.131 -0.0265  0.2571 -0.6259
 2766SOL     OW13144   3.222   7.591   3.232 -0.4850  0.0206 -0.3500
 2766SOL    HW113145   3.148   7.559   3.181 -1.6923  0.2064  1.1951
 2766SOL    HW213146   3.229   7.529   3.305 -0.0499  0.8180  0.3087
 2767SOL     OW13147   1.144   3.884   6.797  0.3970  0.9533  0.0392
 2767SOL    HW113148   1.135   3.826   6.722  0.3184  0.7848  0.1803
 2767SOL    HW213149   1.092   3.961   6.774  0.6888  1.0706 -0.2481
 2768SOL     OW13150   1.348   4.787   6.416 -0.4265  0.2549 -0.1662
 2768SOL    HW113151   1.258   4.788   6.449 -0.1728  0.4170  0.5374
 2768SOL    HW213152   1.340   4.809   6.323 -1.1119  0.2660 -0.1095
 2769SOL     OW13153   0.391   3.931   2.143  0.0593  0.6110  0.3555
 2769SOL    HW113154   0.396   3.837   2.158 -0.5352  0.8074  1.9236
 2769SOL    HW213155   0.349   3.939   2.057  0.9842 -0.5406 -0.2430
 2770SOL     OW13156   1.018   5.791   4.108 -0.0995 -0.2137 -0.2492
 2770SOL    HW113157   1.093   5.777   4.050 -0.1431 -1.3981 -0.0373
 2770SOL    HW213158   1.026   5.882   4.136  0.5277  0.0586 -1.2500
 2771SOL     OW13159   0.881   5.812   4.964 -0.0628 -0.0279  0.0395
 2771SOL    HW113160   0.938   5.736   4.975  1.2869  0.8598 -0.4586
 2771SOL    HW213161   0.942   5.887   4.958 -1.0449  0.6920 -3.1248
 2772SOL     OW13162   3.015   4.742   2.882 -0.0500  0.3146 -0.7468
 2772SOL    HW113163   3.074   4.808   2.919 -0.1445 -0.1340  0.2069
 2772SOL    HW213164   3.073   4.675   2.846  0.0914  1.4650 -2.8459
 2773SOL     OW13165   1.728   2.433   3.672 -0.6932  0.3995 -0.3575
 2773SOL    HW113166   1.795   2.436   3.740  0.2656  1.8311 -1.3081
 2773SOL    HW213167   1.645   2.423   3.719  0.0078  0.6372  0.9531
 2774SOL     OW13168   1.609   7.019   4.102  0.1516 -0.0238  0.6464
 2774SOL    HW113169   1.674   7.060   4.045  0.7719 -0.7104  0.8315
 2774SOL    HW213170   1.530   7.013   4.049  1.2012 -2.2992 -0.8611
 2775SOL     OW13171   8.768   2.862   5.359  0.4183  0.4374 -0.5041
 2775SOL    HW113172   8.789   2.778   5.317  0.2554 -0.1537  0.5681
 2775SOL    HW213173   8.673   2.868   5.354  0.4000  0.3780 -0.2535
 2776SOL     OW13174   8.796   5.270   4.559  0.9820 -0.9578  0.9280
 2776SOL    HW113175   8.798   5.316   4.475 -1.6222 -0.7228  0.9305
 2776SOL    HW213176   8.799   5.178   4.536 -0.3091 -0.9118  0.5014
 2777SOL     OW13177   2.335   5.124   5.636  0.1776 -0.3655 -0.5485
 2777SOL    HW113178   2.334   5.079   5.552 -1.9314  0.2725 -0.9310
 2777SOL    HW213179   2.403   5.191   5.626  0.0043 -0.3360 -1.7221
 2778SOL     OW13180   2.825   6.629   4.848  0.0823  0.3149  0.8665
 2778SOL    HW113181   2.823   6.535   4.862 -1.3822  0.3852  1.3017
 2778SOL    HW213182   2.734   6.657   4.858 -0.0339  1.3835 -2.0770
 2779SOL     OW13183   2.081   5.833   3.894 -0.0510  0.8675 -0.4808
 2779SOL    HW113184   2.054   5.924   3.895 -2.8728  0.1320 -0.6311
 2779SOL    HW213185   2.037   5.796   3.818  1.9418 -0.4101 -1.0846
 2780SOL     OW13186   2.136   4.059   3.677  0.2028 -0.9913 -0.0660
 2780SOL    HW113187   2.092   4.109   3.746  0.4577  2.6194 -2.2745
 2780SOL    HW213188   2.229   4.073   3.694  0.2669  0.0045 -1.1097
 2781SOL     OW13189   0.766   5.895   6.100 -0.4269  0.4366 -0.4777
 2781SOL    HW113190   0.828   5.831   6.133 -0.6665  0.5035  0.1202
 2781SOL    HW213191   0.816   5.948   6.039 -0.6728 -1.5053 -2.5039
 2782SOL     OW13192   8.538   5.492   5.639 -0.1884  0.6110 -0.4134
 2782SOL    HW113193   8.460   5.545   5.656  0.0963  1.1434 -0.7490
 2782SOL    HW213194   8.563   5.459   5.725 -0.7726  0.4520 -0.3000
 2783SOL     OW13195   3.077   7.433   2.023  0.0033  0.6666 -0.6284
 2783SOL    HW113196   3.029   7.368   1.971  3.1485 -2.7590  0.3487
 2783SOL    HW213197   3.131   7.479   1.959 -0.9754  1.1979 -1.1075
 2784SOL     OW13198   8.806   4.864   5.179  0.2824 -0.2390 -0.6459
 2784SOL    HW113199   8.837   4.809   5.252 -1.4912 -1.0188 -0.4186
 2784SOL    HW213200   8.768   4.802   5.117 -2.8157  0.7394  0.1342
 2785SOL     OW13201   4.691   6.831   2.964  0.6965 -0.1652  0.3019
 2785SOL    HW113202   4.621   6.882   3.004  2.5995  1.4867  1.7565
 2785SOL    HW213203   4.676   6.742   2.994 -1.2632 -0.0616 -0.2086
 2786SOL     OW13204   8.764   4.446   3.251  0.1432 -0.7189 -0.2353
 2786SOL    HW113205   8.772   4.356   3.219 -1.2130 -1.1520  0.5365
 2786SOL    HW213206   8.854   4.475   3.264  0.6414 -1.5196 -1.6722
 2787SOL     OW13207   0.456   2.385   4.209 -0.5329  0.1186  0.1488
 2787SOL    HW113208   0.426   2.340   4.288 -0.2778 -1.3769 -0.5535
 2787SOL    HW213209   0.524   2.327   4.173 -0.0131  1.2089 -0.6837
 2788SOL     OW13210   0.648   6.330   5.757  0.0364  0.5283  0.3305
 2788SOL    HW113211   0.667   6.237   5.767 -0.7911  0.4583  1.6132
 2788SOL    HW213212   0.728   6.368   5.723 -0.0269 -0.8432 -1.4634
 2789SOL     OW13213   9.354   5.430   4.658 -0.0948 -0.2515 -0.1936
 2789SOL    HW113214   9.430   5.372   4.651  0.6162  0.8043 -1.5697
 2789SOL    HW213215   9.302   5.413   4.580 -0.5522  0.0297  0.0423
 2790SOL     OW13216   0.245   5.924   4.445  0.1488 -0.4810  0.2866
 2790SOL    HW113217   0.336   5.902   4.466  0.9541  0.3596 -2.0318
 2790SOL    HW213218   0.236   6.016   4.469  1.0273  0.4401 -2.5240
 2791SOL     OW13219   9.639   3.549   6.226  0.9050  0.3116 -0.0654
 2791SOL    HW113220   9.683   3.605   6.162 -0.9448  1.2379 -0.5982
 2791SOL    HW213221   9.584   3.609   6.277 -0.7959 -0.9114 -0.3659
 2792SOL     OW13222   1.020   3.623   4.824 -0.0325  0.2141  0.4686
 2792SOL    HW113223   1.042   3.530   4.818 -2.4381 -0.3309 -2.0829
 2792SOL    HW213224   0.959   3.628   4.898  2.1221  0.3340  2.3395
 2793SOL     OW13225   6.828   3.700   5.621  1.2548 -0.1174  0.3004
 2793SOL    HW113226   6.906   3.652   5.649  3.7902  2.7524 -1.2977
 2793SOL    HW213227   6.824   3.776   5.679  0.0442  0.1650 -0.1122
 2794SOL     OW13228   1.515   4.461   4.943 -0.0195  0.4787 -0.1773
 2794SOL    HW113229   1.587   4.517   4.913 -1.1336  0.5555 -2.9568
 2794SOL    HW213230   1.506   4.394   4.875 -1.0137 -0.9933  1.3361
 2795SOL     OW13231   2.947   4.308   5.247  0.1338 -0.6873  0.0648
 2795SOL    HW113232   2.903   4.393   5.258 -1.3744 -1.5705  1.2178
 2795SOL    HW213233   2.885   4.256   5.195  0.7585 -1.3007 -0.0748
 2796SOL     OW13234   1.884   4.162   5.146  0.3368 -0.0520 -0.3038
 2796SOL    HW113235   1.881   4.207   5.062  2.1431 -1.3941 -1.1537
 2796SOL    HW213236   1.792   4.139   5.163 -0.1076  0.4884 -1.7609
 2797SOL     OW13237   8.785   5.176   3.331 -0.9760  0.6058  0.3412
 2797SOL    HW113238   8.778   5.180   3.426 -0.6017  1.0807  0.3508
 2797SOL    HW213239   8.879   5.171   3.315 -1.0639 -0.3728  0.0250
 2798SOL     OW13240   0.549   4.155   3.821  0.4213  0.5366 -0.0995
 2798SOL    HW113241   0.638   4.151   3.856  0.1848 -1.9547  0.4272
 2798SOL    HW213242   0.503   4.084   3.866 -1.3951  0.7292 -1.5493
 2799SOL     OW13243   1.729   6.714   3.248  0.4314 -0.1297 -0.0441
 2799SOL    HW113244   1.792   6.651   3.213  0.8738  0.1685  0.2150
 2799SOL    HW213245   1.649   6.698   3.197  0.6972 -0.5377 -0.3427
 2800SOL     OW13246   9.648   5.328   4.686  0.3749  0.6746 -0.0985
 2800SOL    HW113247   9.682   5.414   4.710 -0.5359  1.4291 -1.3508
 2800SOL    HW213248   9.720   5.268   4.703  1.2542  1.7743  0.1940
 2801SOL     OW13249   2.145   3.953   5.419  0.0154 -0.0878  0.2415
 2801SOL    HW113250   2.146   3.918   5.330  0.5522  0.4640  0.0239
 2801SOL    HW213251   2.077   3.903   5.464  0.7543 -1.4004 -0.0598
 2802SOL     OW13252   1.194   2.967   5.233  0.0284 -0.1224 -0.6042
 2802SOL    HW113253   1.232   3.037   5.180  0.6177 -0.6717 -0.9140
 2802SOL    HW213254   1.184   3.005   5.320 -0.8994  0.7750 -1.0747
 2803SOL     OW13255   1.786   3.404   3.447 -0.0314 -0.7920 -0.1130
 2803SOL    HW113256   1.765   3.387   3.355 -0.0172  2.9375 -0.9615
 2803SOL    HW213257   1.702   3.430   3.486  0.1380 -1.4555  0.7262
 2804SOL     OW13258   9.017   5.430   4.595  0.0479 -0.3684  0.0086
 2804SOL    HW113259   8.962   5.369   4.546 -0.5156  0.1658 -0.0412
 2804SOL    HW213260   8.987   5.423   4.685 -0.0564 -0.1235 -0.0066
 2805SOL     OW13261   1.434   3.827   3.588  0.0293 -0.3639  0.0198
 2805SOL    HW113262   1.401   3.803   3.501  0.5621 -0.3871 -0.1809
 2805SOL    HW213263   1.499   3.895   3.571  0.6844 -0.9049  0.3347
 2806SOL     OW13264   1.288   2.359   2.541  0.1628  0.3549 -0.1583
 2806SOL    HW113265   1.343   2.437   2.552  2.0639 -0.7320 -1.3341
 2806SOL    HW213266   1.350   2.289   2.520 -1.1963 -1.9792  2.7809
 2807SOL     OW13267   2.387   3.381   3.153 -0.0761 -0.0681 -0.2725
 2807SOL    HW113268   2.371   3.474   3.164 -1.3124  0.0075 -2.2541
 2807SOL    HW213269   2.404   3.370   3.060 -0.8768 -1.9471 -0.2428
 2808SOL     OW13270   0.044   4.676   4.756 -0.6319 -0.3732 -0.5387
 2808SOL    HW113271   0.084   4.757   4.786  0.2901  0.0306 -2.6409
 2808SOL    HW213272   0.085   4.608   4.809  0.2378  0.3603 -0.2416
 2809SOL     OW13273   9.569   2.596   4.900  0.0342 -0.1606 -0.0368
 2809SOL    HW113274   9.583   2.689   4.884  1.0870 -0.3236 -0.1309
 2809SOL    HW213275   9.622   2.577   4.978 -1.1114 -0.4348  0.6951
 2810SOL     OW13276   9.723   4.130   4.368 -0.4535 -0.1380 -0.0867
 2810SOL    HW113277   9.773   4.129   4.449 -0.9264  0.8924  0.2316
 2810SOL    HW213278   9.710   4.222   4.348  0.6468 -0.3225 -1.9745
 2811SOL     OW13279   1.470   3.121   5.784 -0.1721 -0.1657 -0.2733
 2811SOL    HW113280   1.417   3.187   5.828 -0.5245 -0.2095 -0.6141
 2811SOL    HW213281   1.540   3.101   5.845  0.1929  0.8372 -0.3446
 2812SOL     OW13282   1.516   4.309   3.623  0.2032  0.4102 -0.9201
 2812SOL    HW113283   1.441   4.319   3.681 -0.4583 -1.0056 -1.4752
 2812SOL    HW213284   1.487   4.348   3.540 -0.2114 -0.7953 -1.3542
 2813SOL     OW13285   9.009   5.212   6.043 -0.4510 -0.2773 -0.1408
 2813SOL    HW113286   8.975   5.267   5.972 -1.8528  0.1475  0.8213
 2813SOL    HW213287   9.076   5.266   6.085 -1.2889  0.4104  0.3295
 2814SOL     OW13288   2.436   5.638   2.865 -0.7723 -0.0516  0.3160
 2814SOL    HW113289   2.442   5.728   2.833  2.7218  0.7446  2.6011
 2814SOL    HW213290   2.363   5.639   2.926 -1.6117  0.8468 -0.6579
 2815SOL     OW13291   9.108   3.764   4.580  0.3465  0.7260  0.0901
 2815SOL    HW113292   9.150   3.685   4.544  1.5647  1.6360 -0.5546
 2815SOL    HW213293   9.087   3.741   4.671 -0.0977 -0.6180 -0.3305
 2816SOL     OW13294   0.875   2.983   3.583  0.8512 -0.1126  0.3755
 2816SOL    HW113295   0.958   3.024   3.605  0.7142  0.5361 -0.2469
 2816SOL    HW213296   0.816   3.008   3.655  1.4806 -1.5923  1.4548
 2817SOL     OW13297   0.868   3.193   3.212 -0.0907 -0.0223  0.3715
 2817SOL    HW113298   0.859   3.116   3.157  2.4974 -0.4061  0.3845
 2817SOL    HW213299   0.788   3.194   3.265 -0.6878 -2.0399 -0.4020
 2818SOL     OW13300   0.887   6.096   6.930 -0.3250 -0.2672 -0.7153
 2818SOL    HW113301   0.912   6.007   6.908  1.2236  0.2849 -1.2720
 2818SOL    HW213302   0.791   6.094   6.929 -0.3477 -2.1391  0.2473
 2819SOL     OW13303   1.662   4.376   4.467 -0.2704 -0.0442  0.2312
 2819SOL    HW113304   1.660   4.280   4.470 -0.1040 -0.0972 -1.0942
 2819SOL    HW213305   1.582   4.403   4.512 -0.7628 -0.8316 -0.1516
 2820SOL     OW13306   2.181   3.317   4.971  0.1835 -0.9182 -0.5243
 2820SOL    HW113307   2.152   3.231   4.941 -1.6733 -0.6084  0.2688
 2820SOL    HW213308   2.196   3.306   5.065 -0.5419 -0.2713 -0.3247
 2821SOL     OW13309   1.391   6.189   3.359  0.2395  0.5280  0.1503
 2821SOL    HW113310   1.323   6.245   3.394 -0.0944  0.7422 -0.8056
 2821SOL    HW213311   1.363   6.169   3.270  1.7175  1.1159 -0.4857
 2822SOL     OW13312   6.982   5.460   5.327  0.4343  0.2862  0.3351
 2822SOL    HW113313   6.970   5.432   5.236  1.7673  1.0126 -0.1023
 2822SOL    HW213314   7.013   5.382   5.373  1.9024  0.4195 -0.3588
 2823SOL     OW13315   9.292   4.191   6.210  0.5864  0.1153 -0.1449
 2823SOL    HW113316   9.320   4.101   6.223  3.7191  1.0006  0.0719
 2823SOL    HW213317   9.331   4.216   6.126  2.0779  1.9899  1.0173
 2824SOL     OW13318   0.749   5.034   3.913 -0.2432  0.1225 -0.0846
 2824SOL    HW113319   0.679   5.077   3.863  0.4173 -0.6453 -1.7193
 2824SOL    HW213320   0.771   4.956   3.862  1.2045 -0.1218  0.8623
 2825SOL     OW13321   0.693   3.843   5.125 -0.0887 -0.2537 -0.0498
 2825SOL    HW113322   0.751   3.778   5.088  1.1103  0.2291  0.9144
 2825SOL    HW213323   0.642   3.795   5.191  2.4091  0.1064  2.3559
 2826SOL     OW13324   9.478   5.185   5.708 -0.1756  0.3437  0.3583
 2826SOL    HW113325   9.496   5.278   5.721  1.4997 -0.3041  3.8019
 2826SOL    HW213326   9.491   5.171   5.614  1.0495  3.2794 -0.0140
 2827SOL     OW13327   1.340   4.538   3.771  0.4411 -0.1182  0.2166
 2827SOL    HW113328   1.366   4.604   3.706  3.0636 -0.9862  0.2558
 2827SOL    HW213329   1.295   4.470   3.720  2.7802 -0.9714 -0.8689
 2828SOL     OW13330   1.779   4.874   2.944 -0.3702 -0.0618  0.3554
 2828SOL    HW113331   1.831   4.794   2.934 -0.7320 -0.2272 -0.2535
 2828SOL    HW213332   1.767   4.906   2.855  0.6408  1.2402  0.6689
 2829SOL     OW13333   1.765   6.892   5.183  0.7154 -0.1929 -0.1791
 2829SOL    HW113334   1.689   6.868   5.236  0.9040  1.2007  0.7881
 2829SOL    HW213335   1.752   6.985   5.165  1.8422 -0.1051 -0.6048
 2830SOL     OW13336   2.185   3.583   5.405  0.4372 -0.1499  0.2579
 2830SOL    HW113337   2.135   3.636   5.467  3.4466  0.8002  2.0321
 2830SOL    HW213338   2.124   3.569   5.332 -1.6297  2.8927  1.1968
 2831SOL     OW13339   1.202   3.383   6.415 -0.0717 -0.6975  0.9870
 2831SOL    HW113340   1.207   3.337   6.499 -3.4748  0.6420  2.0859
 2831SOL    HW213341   1.138   3.334   6.364  1.4543 -1.0972 -0.6527
 2832SOL     OW13342   0.376   6.019   6.860  0.3631 -0.2001  0.3064
 2832SOL    HW113343   0.370   5.998   6.767  0.2592  1.6754 -0.1592
 2832SOL    HW213344   0.355   5.937   6.905 -0.0887 -1.0156 -1.3123
 2833SOL     OW13345   0.634   4.601   6.330  0.5100  0.6401  0.6007
 2833SOL    HW113346   0.559   4.593   6.389 -0.4584  0.7159 -0.5719
 2833SOL    HW213347   0.599   4.646   6.253  1.7816  0.7236  0.0495
 2834SOL     OW13348   0.283   2.713   2.270  0.1550  0.0715  0.4788
 2834SOL    HW113349   0.218   2.772   2.233 -0.5449 -0.7445  0.3985
 2834SOL    HW213350   0.291   2.741   2.361  0.9737  1.2814  0.0633
 2835SOL     OW13351   1.007   5.348   5.522 -0.0773  0.0654 -0.4079
 2835SOL    HW113352   0.966   5.329   5.437  0.2568 -0.1777 -0.5166
 2835SOL    HW213353   1.072   5.279   5.533 -0.4432 -0.1816  0.2671
 2836SOL     OW13354   8.565   5.782   4.720 -0.1111  0.4377 -0.7675
 2836SOL    HW113355   8.520   5.703   4.748 -0.6563  1.6591  2.0815
 2836SOL    HW213356   8.501   5.852   4.730  1.1473  1.6211 -0.6505
 2837SOL     OW13357   1.529   6.425   2.842  0.2929 -0.2305  0.0561
 2837SOL    HW113358   1.478   6.407   2.921 -0.0608 -1.4103 -0.4285
 2837SOL    HW213359   1.475   6.394   2.770  1.9296 -2.1380 -0.4324
 2838SOL     OW13360   0.610   2.580   5.251  0.0318 -0.6403  0.2184
 2838SOL    HW113361   0.601   2.529   5.332 -0.2971 -1.4901 -0.3371
 2838SOL    HW213362   0.673   2.531   5.198 -1.8074 -1.6358 -1.1700
 2839SOL     OW13363   9.753   4.670   4.280  0.0921 -0.1907 -0.1589
 2839SOL    HW113364   9.821   4.648   4.344  0.7565  0.2334 -0.7129
 2839SOL    HW213365   9.772   4.614   4.205 -1.0538 -1.1370  0.2233
 2840SOL     OW13366   1.519   4.998   5.266  0.4308  0.4715 -0.0862
 2840SOL    HW113367   1.480   4.914   5.290  0.4543  0.6730  0.6696
 2840SOL    HW213368   1.600   5.002   5.317 -0.6696  1.9507  1.6602
 2841SOL     OW13369   1.648   5.251   6.101 -0.1583  0.1286  0.0295
 2841SOL    HW113370   1.584   5.321   6.115 -1.4316 -1.2513  1.4892
 2841SOL    HW213371   1.729   5.285   6.139 -0.7977  0.7877  0.8561
 2842SOL     OW13372   4.012   3.946   4.583 -0.6226  0.2166 -0.9311
 2842SOL    HW113373   4.008   4.034   4.620  0.2879  0.1611 -0.6713
 2842SOL    HW213374   4.061   3.956   4.501 -0.6764 -0.0146 -0.9928
 2843SOL     OW13375   0.898   2.822   4.660 -0.1005 -0.1445 -0.0604
 2843SOL    HW113376   0.863   2.812   4.572  0.9848  0.2447 -0.5578
 2843SOL    HW213377   0.824   2.853   4.712 -0.1165  2.6518 -1.5060
 2844SOL     OW13378   2.493   4.251   3.606  0.2946  0.1010 -0.0337
 2844SOL    HW113379   2.459   4.222   3.691 -0.1168 -0.2196 -0.3017
 2844SOL    HW213380   2.429   4.314   3.575  1.0106  1.0546  0.3857
 2845SOL     OW13381   4.428   3.308   5.076  0.0232 -0.2356 -0.1592
 2845SOL    HW113382   4.450   3.400   5.092  1.0610 -0.2810 -1.1955
 2845SOL    HW213383   4.512   3.267   5.053 -0.3934 -1.4888  0.4548
 2846SOL     OW13384   9.772   5.062   1.145  0.3054  0.4539  0.7165
 2846SOL    HW113385   9.815   5.030   1.066 -1.0729  2.0088 -0.7396
 2846SOL    HW213386   9.833   5.127   1.180  0.2518  0.8606  0.0688
 2847SOL     OW13387   2.385   5.468   4.982  0.0367 -0.2186  0.1240
 2847SOL    HW113388   2.376   5.376   5.008 -1.2704 -0.3831 -0.7941
 2847SOL    HW213389   2.455   5.467   4.917 -0.8187 -0.8136 -0.8352
 2848SOL     OW13390   2.200   2.631   5.663 -0.6789  0.2064  0.5581
 2848SOL    HW113391   2.105   2.641   5.661 -0.7076  0.1551  1.3108
 2848SOL    HW213392   2.234   2.721   5.662 -0.6830  0.2152 -1.0638
 2849SOL     OW13393   1.271   2.626   5.243  0.0249  0.0293  0.1443
 2849SOL    HW113394   1.186   2.644   5.203  0.2746  1.0517  0.0461
 2849SOL    HW213395   1.251   2.604   5.334 -0.5031 -1.7883 -0.3735
 2850SOL     OW13396   0.757   4.670   4.699 -0.1337 -0.0052 -0.1028
 2850SOL    HW113397   0.799   4.594   4.740 -2.3141 -1.1147  0.2468
 2850SOL    HW213398   0.710   4.713   4.771 -0.4570  0.5593 -0.6414
 2851SOL     OW13399   0.474   4.428   3.942 -0.3711  0.1683  0.0094
 2851SOL    HW113400   0.445   4.518   3.958  0.6456  0.4977  0.0752
 2851SOL    HW213401   0.561   4.438   3.905 -0.1045 -0.8029  0.3581
 2852SOL     OW13402   9.729   4.869   5.116  0.2183  0.2017 -0.3461
 2852SOL    HW113403   9.670   4.943   5.106 -1.0588 -1.0100 -2.2515
 2852SOL    HW213404   9.807   4.894   5.067 -0.4410  0.0737 -1.4870
 2853SOL     OW13405   9.402   5.618   5.114  0.3222  0.0501  0.0917
 2853SOL    HW113406   9.358   5.681   5.056  0.5650  1.3238  1.2515
 2853SOL    HW213407   9.334   5.554   5.136  0.2799 -0.6179 -1.7525
 2854SOL     OW13408   2.006   3.850   3.818  0.1126  0.0409 -0.1896
 2854SOL    HW113409   1.940   3.781   3.814  0.3009 -0.1507 -0.0202
 2854SOL    HW213410   1.985   3.908   3.745  0.3069 -0.5146 -0.6877
 2855SOL     OW13411   9.508   3.132   6.871 -0.4732 -0.2176  0.0094
 2855SOL    HW113412   9.549   3.124   6.785  4.1127  1.7256  1.6826
 2855SOL    HW213413   9.508   3.226   6.889 -1.1388 -0.5786  2.1592
 2856SOL     OW13414   9.416   3.429   5.381  0.6759  0.5547 -0.0537
 2856SOL    HW113415   9.433   3.521   5.400 -1.8386  1.9062 -3.2681
 2856SOL    HW213416   9.473   3.409   5.306 -1.7681  1.0157 -2.1960
 2857SOL     OW13417   1.269   3.618   4.686 -0.0704 -0.2562 -0.1661
 2857SOL    HW113418   1.187   3.647   4.727  0.6173  0.6724  0.6205
 2857SOL    HW213419   1.297   3.543   4.738  0.7314  0.8396  1.0723
 2858SOL     OW13420   8.303   4.365   3.513 -0.0897  0.4290  1.5229
 2858SOL    HW113421   8.239   4.405   3.455  1.7245 -1.8242 -2.4451
 2858SOL    HW213422   8.259   4.288   3.549 -0.2312 -0.1450  0.1855
 2859SOL     OW13423   8.901   2.871   3.281  0.0619 -0.2484 -0.4846
 2859SOL    HW113424   8.944   2.936   3.337 -1.3399 -0.0492  0.4072
 2859SOL    HW213425   8.860   2.922   3.212  0.3531 -0.3496 -0.7373
 2860SOL     OW13426   7.781   5.464   3.866 -0.3019  0.2129  0.2759
 2860SOL    HW113427   7.839   5.415   3.809  0.8961 -0.8803  2.3366
 2860SOL    HW213428   7.766   5.547   3.819  1.0687 -0.3928 -1.3307
 2861SOL     OW13429   1.762   4.854   4.030 -0.2578  1.0562  0.3684
 2861SOL    HW113430   1.726   4.920   4.089 -1.9849  1.6497 -1.2351
 2861SOL    HW213431   1.686   4.804   4.001  0.4630  1.0070 -1.5915
 2862SOL     OW13432   0.686   5.708   3.789  0.3045  0.5309 -0.2025
 2862SOL    HW113433   0.642   5.791   3.809 -1.4918 -0.5917  0.8928
 2862SOL    HW213434   0.615   5.650   3.764  1.4349 -0.8788 -0.2344
 2863SOL     OW13435   1.383   4.133   5.059  0.0669  0.0779  0.4528
 2863SOL    HW113436   1.366   4.065   4.994 -0.4694  0.6679 -0.0444
 2863SOL    HW213437   1.298   4.147   5.102  0.2586  0.1682  0.8042
 2864SOL     OW13438   1.066   7.502   4.549 -0.2637 -0.0316 -0.4453
 2864SOL    HW113439   1.026   7.589   4.556 -0.2732 -0.0888  0.3147
 2864SOL    HW213440   1.032   7.454   4.625  0.6966 -0.3105 -0.1869
 2865SOL     OW13441   0.816   4.614   7.032 -0.2775  0.7017 -0.4341
 2865SOL    HW113442   0.779   4.599   6.946 -0.5856  0.8366 -0.3271
 2865SOL    HW213443   0.751   4.669   7.077 -0.8850 -0.6697  0.4310
 2866SOL     OW13444   1.933   5.741   4.133 -0.3825  0.4566 -0.1687
 2866SOL    HW113445   1.884   5.780   4.060  0.0620  0.3198 -0.5418
 2866SOL    HW213446   2.024   5.745   4.105 -0.0584  1.6327  0.9394
 2867SOL     OW13447   0.997   7.027   4.302 -0.6991 -0.2555  0.5157
 2867SOL    HW113448   1.071   6.971   4.327 -0.9606 -0.5066  0.7378
 2867SOL    HW213449   0.956   6.981   4.229 -1.2131 -0.6186  1.0203
 2868SOL     OW13450   0.402   4.749   3.072 -0.6748 -0.1262 -0.5546
 2868SOL    HW113451   0.369   4.816   3.132 -1.2572 -0.3957 -0.5595
 2868SOL    HW213452   0.438   4.681   3.129 -1.6711 -0.6078 -0.4780
 2869SOL     OW13453   0.651   4.994   4.381 -0.3161  0.0037  0.4560
 2869SOL    HW113454   0.608   4.920   4.422 -0.6120 -0.0931 -0.0258
 2869SOL    HW213455   0.703   4.956   4.310 -0.0909  0.2068  0.5087
 2870SOL     OW13456   0.001   3.376   1.164 -0.5176 -0.0467  0.0702
 2870SOL    HW113457  -0.028   3.458   1.123  1.0523 -0.1484 -1.3621
 2870SOL    HW213458  -0.067   3.356   1.228 -1.5198  1.7702 -0.3456
 2871SOL     OW13459   0.162   3.873   4.232  0.1264  0.3003 -0.5572
 2871SOL    HW113460   0.223   3.800   4.245 -1.7257 -0.8855  2.5150
 2871SOL    HW213461   0.196   3.944   4.286 -1.3125 -0.5199  1.5398
 2872SOL     OW13462   0.727   6.145   5.018  0.4464 -0.2021 -0.5037
 2872SOL    HW113463   0.725   6.188   5.103  1.6493 -0.0473 -0.5420
 2872SOL    HW213464   0.656   6.187   4.969 -1.1311 -1.2169  0.8316
 2873SOL     OW13465   1.875   5.682   5.584 -0.2875  0.3263  0.2314
 2873SOL    HW113466   1.828   5.759   5.616  0.6042  1.1066 -0.2920
 2873SOL    HW213467   1.811   5.611   5.590 -1.4901  1.3286 -0.3273
 2874SOL     OW13468   9.620   6.105   5.286  0.0936 -0.4370  0.0225
 2874SOL    HW113469   9.632   6.112   5.191  0.9637  1.4627  0.2302
 2874SOL    HW213470   9.694   6.153   5.323 -0.0800 -1.3780  1.6828
 2875SOL     OW13471   9.723   7.513   4.374 -0.2000 -0.0458  0.1009
 2875SOL    HW113472   9.815   7.489   4.361  0.3489  2.1720 -0.6447
 2875SOL    HW213473   9.708   7.582   4.310 -2.0118  0.5506  1.1095
 2876SOL     OW13474   0.953   2.153   1.617 -0.6369  0.0250  0.2032
 2876SOL    HW113475   1.031   2.189   1.659  0.2619  0.4905 -1.7100
 2876SOL    HW213476   0.927   2.220   1.554 -3.1459  0.2468  1.3886
 2877SOL     OW13477   8.385   3.999   4.032  0.0188 -0.3051  0.1323
 2877SOL    HW113478   8.331   3.965   3.961  0.4475 -0.5948 -0.0541
 2877SOL    HW213479   8.445   4.061   3.990 -1.4506  1.5384  0.6012
 2878SOL     OW13480   0.322   5.236   4.274  0.0693 -0.2917  0.1851
 2878SOL    HW113481   0.361   5.317   4.304 -0.4672  0.4229 -0.9641
 2878SOL    HW213482   0.342   5.232   4.180 -3.1736  0.5251 -0.6714
 2879SOL     OW13483   0.758   3.137   5.920 -0.2907 -0.2139 -0.0955
 2879SOL    HW113484   0.821   3.190   5.969 -0.0628 -2.9576  2.8860
 2879SOL    HW213485   0.811   3.093   5.853 -0.0559  1.2740 -0.9487
 2880SOL     OW13486   1.739   4.592   3.319 -0.0142 -0.3015 -0.7399
 2880SOL    HW113487   1.679   4.542   3.374  1.3099 -0.9048  0.2135
 2880SOL    HW213488   1.812   4.614   3.377  2.0782 -2.0811 -2.5180
 2881SOL     OW13489   2.228   5.420   1.800 -0.0502  0.0654  0.4470
 2881SOL    HW113490   2.195   5.495   1.850 -2.0114 -0.9435  0.7289
 2881SOL    HW213491   2.160   5.353   1.809 -0.3205 -0.3207 -3.2406
 2882SOL     OW13492   8.417   5.581   4.467  0.5048 -0.2963 -0.0546
 2882SOL    HW113493   8.382   5.601   4.554 -2.3135  0.2187 -1.2230
 2882SOL    HW213494   8.504   5.621   4.467 -0.5391  2.2455  1.5711
 2883SOL     OW13495   8.785   5.996   4.607 -0.1307  0.2046 -0.1958
 2883SOL    HW113496   8.861   6.049   4.630  1.5310 -1.7369 -0.9137
 2883SOL    HW213497   8.795   5.979   4.513 -0.7469 -1.0970 -0.0549
 2884SOL     OW13498   1.913   3.840   3.094 -0.2851 -0.6166 -0.0907
 2884SOL    HW113499   1.877   3.752   3.084 -0.4596 -0.5875  0.2490
 2884SOL    HW213500   2.004   3.832   3.066 -0.5417 -0.6966 -0.9266
 2885SOL     OW13501   1.929   4.067   3.243 -0.0760  0.0404 -0.2445
 2885SOL    HW113502   1.928   3.981   3.202 -0.1318  0.0447 -0.2530
 2885SOL    HW213503   1.918   4.128   3.170 -2.7691 -0.0388 -0.0013
 2886SOL     OW13504   8.743   8.941   4.389  0.3810  0.4294 -0.1357
 2886SOL    HW113505   8.685   8.867   4.405 -2.1954  2.5541  1.1144
 2886SOL    HW213506   8.811   8.934   4.456 -1.1719  0.4313  1.4952
 2887SOL     OW13507   2.858   4.072   4.435  0.3025  0.5359 -0.3295
 2887SOL    HW113508   2.850   4.102   4.526 -2.0933  1.6671 -0.8161
 2887SOL    HW213509   2.794   4.125   4.387  0.1648 -1.3143 -2.3542
 2888SOL     OW13510   8.701   7.396   3.830 -0.0741  0.2741 -0.3440
 2888SOL    HW113511   8.700   7.306   3.799 -0.1761  0.6618 -1.4944
 2888SOL    HW213512   8.789   7.428   3.810  0.1574  0.2572  0.5984
 2889SOL     OW13513   8.993   4.662   4.360  0.1079  0.7607  0.0071
 2889SOL    HW113514   8.971   4.624   4.446  0.3994  0.1726 -0.1729
 2889SOL    HW213515   9.024   4.750   4.381 -1.9245  1.4734  0.3192
 2890SOL     OW13516   9.067   4.301   6.378 -0.1883  0.2900 -0.2548
 2890SOL    HW113517   9.083   4.356   6.455  0.5619 -0.0219 -0.1797
 2890SOL    HW213518   9.151   4.298   6.333 -0.4831  0.0221 -0.7936
 2891SOL     OW13519   0.532   3.489   2.180 -0.0648  0.2532  0.0093
 2891SOL    HW113520   0.625   3.478   2.197 -0.2340 -0.6230  0.4387
 2891SOL    HW213521   0.501   3.548   2.248  0.2561  0.9133 -0.4078
 2892SOL     OW13522   1.161   5.680   6.708 -0.1216  0.3871  0.3025
 2892SOL    HW113523   1.190   5.589   6.709 -0.2179  0.2895 -1.7856
 2892SOL    HW213524   1.235   5.729   6.745 -0.0470 -0.4954  1.3973
 2893SOL     OW13525   9.035   4.509   2.975  0.2704  0.6746 -0.1251
 2893SOL    HW113526   9.096   4.449   3.018 -0.1806 -0.9941 -1.6574
 2893SOL    HW213527   8.999   4.562   3.046  1.3907 -0.2394  1.1785
 2894SOL     OW13528   1.956   6.736   3.484 -0.4000 -0.1343 -0.3830
 2894SOL    HW113529   1.911   6.651   3.477  0.5597 -0.8850  1.6925
 2894SOL    HW213530   1.961   6.753   3.578  0.0939  1.8843 -0.7345
 2895SOL     OW13531   9.320   6.659   4.849 -0.9862 -0.9563  0.1435
 2895SOL    HW113532   9.336   6.565   4.843 -0.1782 -1.0054  2.3542
 2895SOL    HW213533   9.251   6.668   4.914 -2.4588 -0.0764 -1.4559
 2896SOL     OW13534   1.045   3.740   5.913  0.1439 -0.2373 -0.2567
 2896SOL    HW113535   0.968   3.777   5.957 -0.1079 -0.5207 -0.4572
 2896SOL    HW213536   1.049   3.786   5.829  0.3534 -0.0297 -0.1348
 2897SOL     OW13537   2.024   5.879   3.446 -0.3904  0.3468 -0.4262
 2897SOL    HW113538   1.959   5.822   3.487  0.5825 -0.6912 -0.2816
 2897SOL    HW213539   2.079   5.908   3.519  1.3191 -1.4623 -0.9176
 2898SOL     OW13540   3.624   0.810   4.012 -0.2310  0.2654 -0.0534
 2898SOL    HW113541   3.636   0.784   4.104  1.5078 -0.3450 -0.4057
 2898SOL    HW213542   3.603   0.903   4.017 -0.4370  0.1827  0.9728
 2899SOL     OW13543   2.831   4.050   4.859  0.1817  0.5369 -0.1631
 2899SOL    HW113544   2.807   4.120   4.798 -0.4129  0.6235  0.1583
 2899SOL    HW213545   2.793   4.077   4.942  0.1966 -0.0303  0.0315
 2900SOL     OW13546   2.097   2.356   5.741 -0.1071 -0.6407 -0.3150
 2900SOL    HW113547   2.009   2.367   5.706 -0.0444  0.0467 -0.2568
 2900SOL    HW213548   2.141   2.439   5.724 -0.1250 -0.2104  1.5366
 2901SOL     OW13549   1.005   4.714   4.079  0.0689 -0.6409  0.2731
 2901SOL    HW113550   0.938   4.647   4.092 -1.2206  0.8690  2.0638
 2901SOL    HW213551   1.084   4.677   4.117 -0.4642 -1.3885  0.6860
 2902SOL     OW13552   0.821   6.997   4.704 -0.7797 -0.1962  0.2935
 2902SOL    HW113553   0.906   6.953   4.700 -1.4242 -1.4216 -0.9715
 2902SOL    HW213554   0.829   7.070   4.642  0.0605  1.1003  1.8694
 2903SOL     OW13555   2.776   4.831   4.241 -0.5227 -0.6006 -0.2602
 2903SOL    HW113556   2.722   4.756   4.215 -1.1160  0.1237 -1.1547
 2903SOL    HW213557   2.720   4.883   4.298 -0.4772 -0.3012 -0.4858
 2904SOL     OW13558   1.650   4.235   1.487  0.0384 -0.2115  0.4492
 2904SOL    HW113559   1.628   4.178   1.560  0.8845 -1.6236 -0.3404
 2904SOL    HW213560   1.624   4.322   1.515 -2.1024 -1.0836  1.3757
 2905SOL     OW13561   1.176   4.834   4.591  0.0014 -0.2814  0.2927
 2905SOL    HW113562   1.173   4.865   4.681  1.2978 -3.0074  1.3951
 2905SOL    HW213563   1.183   4.738   4.599 -2.4969 -0.8858 -2.7489
 2906SOL     OW13564   0.767   3.201   5.442  0.0320 -0.3117  0.3767
 2906SOL    HW113565   0.824   3.202   5.365 -1.2324 -0.7810 -0.5993
 2906SOL    HW213566   0.723   3.116   5.438 -1.3958  0.3839  0.5946
 2907SOL     OW13567   0.218   6.300   4.635 -0.1634  0.0217 -0.3252
 2907SOL    HW113568   0.255   6.368   4.691  1.5684 -0.3319 -0.9987
 2907SOL    HW213569   0.135   6.338   4.604  1.6753  2.7787 -2.3393
 2908SOL     OW13570   2.300   4.914   4.911 -0.2425  0.1984 -0.0026
 2908SOL    HW113571   2.223   4.881   4.958 -0.5221 -0.4469 -0.8938
 2908SOL    HW213572   2.271   4.924   4.821  0.6352  0.2485 -0.2895
 2909SOL     OW13573   0.264   2.372   5.594  0.2836 -0.2297  0.3998
 2909SOL    HW113574   0.181   2.329   5.611  0.0580 -0.3099 -0.7841
 2909SOL    HW213575   0.287   2.346   5.504  1.7257 -0.4403  0.7949
 2910SOL     OW13576   2.364   3.671   4.775 -0.5404 -0.4049 -0.3068
 2910SOL    HW113577   2.328   3.685   4.687 -0.8325  0.4202 -0.0700
 2910SOL    HW213578   2.286   3.665   4.831 -0.3380  0.1574  0.0396
 2911SOL     OW13579   1.127   6.347   6.416  0.0649  0.1675 -0.3256
 2911SOL    HW113580   1.046   6.331   6.464 -0.9529 -0.1624 -2.0782
 2911SOL    HW213581   1.169   6.261   6.411  0.2653  0.2360  0.1052
 2912SOL     OW13582   9.387   3.591   7.326  0.0187 -0.2142 -0.2371
 2912SOL    HW113583   9.390   3.555   7.238  0.6323 -1.2616  0.2000
 2912SOL    HW213584   9.464   3.556   7.370 -0.1846  0.4208  0.6762
 2913SOL     OW13585   1.261   5.083   5.680 -0.2320  0.0832 -0.3314
 2913SOL    HW113586   1.290   5.109   5.592 -1.0751 -1.5832 -1.1476
 2913SOL    HW213587   1.301   4.997   5.694 -3.2136 -1.5484 -0.8214
 2914SOL     OW13588   4.027   3.331   4.454  0.0416 -0.0027  0.1757
 2914SOL    HW113589   4.021   3.272   4.379 -0.3709  0.7067 -0.3587
 2914SOL    HW213590   4.021   3.418   4.417 -1.2486  0.3392  1.1220
 2915SOL     OW13591   2.457   3.543   5.222  0.2217 -0.0521  0.1944
 2915SOL    HW113592   2.506   3.505   5.149  0.3571  0.0478  0.2312
 2915SOL    HW213593   2.436   3.632   5.194 -2.2456 -0.9176 -0.8922
 2916SOL     OW13594   2.537   8.160   2.176 -0.0528  0.0679  0.1700
 2916SOL    HW113595   2.553   8.212   2.256  0.4364  1.6008 -0.8682
 2916SOL    HW213596   2.487   8.219   2.119  0.0425 -0.8169 -0.8552
 2917SOL     OW13597   1.638   4.077   3.959  0.4408  0.6654  0.6153
 2917SOL    HW113598   1.639   4.051   4.051  0.3799  0.0557  0.4473
 2917SOL    HW213599   1.557   4.039   3.924  1.1164 -0.2455 -0.0071
 2918SOL     OW13600   8.530   3.385   3.850  0.1426 -0.4389  0.4730
 2918SOL    HW113601   8.561   3.343   3.930  1.2910 -1.1859 -0.3394
 2918SOL    HW213602   8.435   3.393   3.863  0.5368  1.6240  2.8811
 2919SOL     OW13603   2.137   4.710   5.723  0.4073 -0.0132 -1.0098
 2919SOL    HW113604   2.169   4.632   5.679  0.3360  0.4268 -1.8620
 2919SOL    HW213605   2.071   4.746   5.664 -1.1341 -0.4595  0.3369
 2920SOL     OW13606   1.354   4.576   5.113  0.9420  0.0806 -0.4824
 2920SOL    HW113607   1.424   4.555   5.051  1.6720  4.1048 -1.3233
 2920SOL    HW213608   1.278   4.596   5.057 -0.1784 -1.6910  0.3058
 2921SOL     OW13609   8.795   6.319   2.631 -0.0382  0.7136  0.2337
 2921SOL    HW113610   8.867   6.346   2.575 -0.6104 -0.1397 -0.9607
 2921SOL    HW213611   8.813   6.227   2.652 -0.4237  0.6959  0.5075
 2922SOL     OW13612   3.140   5.588   5.072  0.1173 -0.2332 -0.2641
 2922SOL    HW113613   3.151   5.604   5.166  4.0168  0.5798 -0.7084
 2922SOL    HW213614   3.187   5.506   5.056  1.3680  0.7083 -1.7493
 2923SOL     OW13615   0.905   3.631   7.337 -0.4937  0.7173  0.3638
 2923SOL    HW113616   0.863   3.593   7.414  0.8594  1.2640  1.4190
 2923SOL    HW213617   0.909   3.725   7.356  1.1584  0.6920  0.3184
 2924SOL     OW13618   0.258   3.645   6.461 -0.3973 -0.3595 -0.0428
 2924SOL    HW113619   0.193   3.715   6.452  0.3596  0.4914  0.9020
 2924SOL    HW213620   0.283   3.647   6.553  0.5105 -1.0910 -0.2597
 2925SOL     OW13621   2.216   5.678   4.923  0.0431  0.1472 -0.3153
 2925SOL    HW113622   2.253   5.759   4.889 -2.8462  1.9414  0.5329
 2925SOL    HW213623   2.291   5.618   4.929  2.2807  2.7182 -0.9369
 2926SOL     OW13624   9.220   4.117   5.444 -0.2940  0.2707 -1.2416
 2926SOL    HW113625   9.226   4.213   5.447 -0.7241  0.2916 -0.9670
 2926SOL    HW213626   9.236   4.089   5.534 -3.1075  0.2745 -0.6523
 2927SOL     OW13627   7.949   3.548   7.072 -0.2625 -0.4963 -0.5578
 2927SOL    HW113628   7.945   3.633   7.116 -0.5782 -0.2304 -1.0894
 2927SOL    HW213629   8.037   3.546   7.033  0.0826 -0.8068  0.2136
 2928SOL     OW13630   0.364   6.091   4.724 -0.0913 -0.0379  0.1347
 2928SOL    HW113631   0.301   6.031   4.764  0.1656  0.7411  1.7772
 2928SOL    HW213632   0.313   6.168   4.700  0.1413  0.4258  1.0897
 2929SOL     OW13633   0.262   4.092   8.622 -0.3403 -0.6095 -0.1496
 2929SOL    HW113634   0.246   4.003   8.654  0.5276 -1.3931 -1.7463
 2929SOL    HW213635   0.278   4.081   8.528  0.6859  1.1265 -0.2283
 2930SOL     OW13636   0.534   4.233   6.702  0.3212 -0.0356 -0.1894
 2930SOL    HW113637   0.618   4.188   6.713  0.0139 -0.4786  0.4289
 2930SOL    HW213638   0.542   4.311   6.757  0.4292  0.0633 -0.3462
 2931SOL     OW13639   2.473   7.511   7.043  0.6074 -0.4857 -0.5399
 2931SOL    HW113640   2.411   7.503   7.115  0.3150 -0.1905 -0.7588
 2931SOL    HW213641   2.555   7.539   7.085  0.3560 -0.0092 -0.3555
 2932SOL     OW13642   1.582   3.819   5.653 -0.0673  0.3911  0.5070
 2932SOL    HW113643   1.645   3.751   5.629 -0.5465  0.4820 -1.1240
 2932SOL    HW213644   1.508   3.771   5.689 -0.5088 -0.0082 -0.8722
 2933SOL     OW13645   8.533   5.293   4.876 -0.2406  0.1308 -0.2843
 2933SOL    HW113646   8.547   5.312   4.969  0.9124 -0.8929 -0.2106
 2933SOL    HW213647   8.526   5.378   4.834  0.3755  0.6330  0.5936
 2934SOL     OW13648   1.804   3.657   8.183 -0.1359 -0.1688  0.3993
 2934SOL    HW113649   1.836   3.618   8.264 -2.3015 -2.9092  0.0857
 2934SOL    HW213650   1.851   3.612   8.113 -0.5701 -0.1402  0.0787
 2935SOL     OW13651   0.721   6.787   6.145 -0.1582  0.5444  0.2623
 2935SOL    HW113652   0.650   6.730   6.116 -0.3344  0.0209  1.6503
 2935SOL    HW213653   0.695   6.874   6.114 -1.2587  0.3108  0.4695
 2936SOL     OW13654   0.573   5.673   5.648 -0.6646 -0.4596 -0.2394
 2936SOL    HW113655   0.481   5.701   5.649 -0.3577  0.6814 -1.4261
 2936SOL    HW213656   0.616   5.735   5.590  0.8408 -1.0838  0.1736
 2937SOL     OW13657   9.585   4.628   6.920 -0.2376 -0.7116  0.8000
 2937SOL    HW113658   9.619   4.673   6.844 -0.1093 -0.4656  1.0044
 2937SOL    HW213659   9.583   4.694   6.989 -0.7282 -0.8262  0.9047
 2938SOL     OW13660   2.553   6.163   5.711  0.0488 -0.1800 -0.1859
 2938SOL    HW113661   2.519   6.079   5.742 -1.5011  0.7430  0.7797
 2938SOL    HW213662   2.475   6.210   5.682  0.6081  1.6739  1.1624
 2939SOL     OW13663   1.562   4.197   6.938  0.0841 -0.0218  0.0535
 2939SOL    HW113664   1.473   4.195   6.902 -0.6063  0.7460  1.6274
 2939SOL    HW213665   1.551   4.173   7.030  1.9300 -3.0896 -0.3672
 2940SOL     OW13666   2.415   5.745   5.726 -0.3412 -0.6086  0.2252
 2940SOL    HW113667   2.322   5.742   5.748 -0.3037  0.1346  0.4928
 2940SOL    HW213668   2.449   5.819   5.776  0.1577 -0.1559 -0.7659
 2941SOL     OW13669   8.527   4.910   6.463  0.4084 -0.7408  0.0522
 2941SOL    HW113670   8.433   4.889   6.457  0.3354 -0.3805 -0.0967
 2941SOL    HW213671   8.569   4.847   6.404  0.0068  0.7069 -1.9099
 2942SOL     OW13672   9.643   4.553   5.824  0.0656  0.7235  0.2514
 2942SOL    HW113673   9.700   4.566   5.899  2.0977  0.6044 -1.1688
 2942SOL    HW213674   9.628   4.459   5.820  2.0353  0.4111 -0.8516
 2943SOL     OW13675   2.383   5.904   5.285 -0.1982 -0.5791  0.1776
 2943SOL    HW113676   2.364   5.811   5.275 -1.4235 -0.4542  1.0773
 2943SOL    HW213677   2.478   5.908   5.297 -0.2306 -1.8018  1.0319
 2944SOL     OW13678   9.700   4.799   6.686 -0.0431  0.0019 -0.1929
 2944SOL    HW113679   9.776   4.749   6.658  0.2779  0.4104 -0.0541
 2944SOL    HW213680   9.734   4.861   6.750 -0.4154  0.4733 -0.4470
 2945SOL     OW13681   1.404   4.412   7.171 -0.1532  0.0453  0.1578
 2945SOL    HW113682   1.448   4.482   7.123 -0.2348 -0.5792 -0.8713
 2945SOL    HW213683   1.439   4.417   7.260  0.0029  1.2333  0.0417
 2946SOL     OW13684   0.715   4.250   5.814 -0.3721  0.1661 -0.0438
 2946SOL    HW113685   0.781   4.183   5.795 -1.3180 -0.7721 -0.1451
 2946SOL    HW213686   0.635   4.217   5.772 -0.8970  1.3027  0.0225
 2947SOL     OW13687   9.047   5.803   6.400  0.2380  0.2424 -0.4986
 2947SOL    HW113688   9.032   5.722   6.448  1.8789  1.0713  1.5621
 2947SOL    HW213689   8.965   5.852   6.408  0.5241  0.4446  1.7444
 2948SOL     OW13690   3.162   5.939   6.491  0.2226 -0.0152 -0.3409
 2948SOL    HW113691   3.092   5.987   6.447 -1.1583 -1.6888 -0.0311
 2948SOL    HW213692   3.242   5.985   6.464 -0.9336  1.8187 -0.8558
 2949SOL     OW13693   0.725   1.877   6.563  0.4423  0.4314  0.2897
 2949SOL    HW113694   0.701   1.933   6.637 -0.2135  2.6495 -1.4752
 2949SOL    HW213695   0.805   1.916   6.529  0.4982 -0.2996 -0.4472
 2950SOL     OW13696   3.233   3.539   7.738 -0.1837  0.0754 -0.2197
 2950SOL    HW113697   3.178   3.483   7.683 -1.4093  0.6444  0.3960
 2950SOL    HW213698   3.298   3.480   7.774 -1.3492 -0.9445  0.2823
 2951SOL     OW13699   1.980   6.673   5.649  0.0707  0.3188  0.0552
 2951SOL    HW113700   1.956   6.759   5.683  0.2762  0.1758  0.5729
 2951SOL    HW213701   2.025   6.631   5.722 -2.3798 -1.2579  0.8008
 2952SOL     OW13702   1.906   6.177   4.587  0.1972 -0.4401 -0.8285
 2952SOL    HW113703   1.885   6.084   4.601  0.9794 -0.2115  3.3614
 2952SOL    HW213704   1.825   6.215   4.554 -1.1873 -2.1487  0.3528
 2953SOL     OW13705   1.299   6.885   4.802  0.0261 -0.2384 -0.3091
 2953SOL    HW113706   1.330   6.846   4.884  1.6307  0.6465 -0.4594
 2953SOL    HW213707   1.321   6.820   4.736 -1.3084 -0.9729 -0.0784
 2954SOL     OW13708   0.655   2.363   7.087  0.1632  0.2389 -0.6326
 2954SOL    HW113709   0.602   2.316   7.023  2.8824 -1.6089 -1.7587
 2954SOL    HW213710   0.722   2.407   7.035  2.1265 -0.8498  0.8172
 2955SOL     OW13711   1.525   5.026   6.433  0.0004 -0.6334  0.1656
 2955SOL    HW113712   1.567   5.081   6.499  0.0958 -1.2142  0.5959
 2955SOL    HW213713   1.435   5.015   6.465  0.0575 -0.9452  0.2255
 2956SOL     OW13714   9.415   3.908   7.861  0.2831  0.0499  0.2812
 2956SOL    HW113715   9.443   3.824   7.897  0.9401  0.2972  0.3821
 2956SOL    HW213716   9.357   3.945   7.927 -0.4520 -0.5708 -0.0185
 2957SOL     OW13717   1.518   3.744   7.281 -0.5301 -0.1026 -0.9054
 2957SOL    HW113718   1.581   3.678   7.313  0.1908  0.3454 -1.3656
 2957SOL    HW213719   1.481   3.782   7.361  0.4257  0.2227 -0.5943
 2958SOL     OW13720   0.480   3.978   6.004  0.1710  0.0949 -0.2238
 2958SOL    HW113721   0.456   3.909   5.941 -1.3962  0.2882  0.0988
 2958SOL    HW213722   0.429   4.054   5.976  0.5685  0.6098  0.4268
 2959SOL     OW13723   2.684   3.874   4.563 -0.0920 -0.6495 -0.5446
 2959SOL    HW113724   2.684   3.782   4.537  0.0481 -0.1760 -2.3445
 2959SOL    HW213725   2.772   3.905   4.542  0.1273 -0.2824  0.8067
 2960SOL     OW13726   8.662   8.303   8.601 -0.0800  0.1237 -0.1891
 2960SOL    HW113727   8.650   8.209   8.613  0.8373 -0.1016 -0.9825
 2960SOL    HW213728   8.748   8.321   8.639 -0.0581  0.5662 -0.4504
 2961SOL     OW13729   0.161   3.122   5.635 -0.5747 -0.6556  0.2839
 2961SOL    HW113730   0.214   3.200   5.616  0.6104 -1.1242  1.4811
 2961SOL    HW213731   0.224   3.059   5.669 -1.8089 -1.5069  1.0531
 2962SOL     OW13732   0.952   2.954   8.459 -0.0620 -0.0018  0.6168
 2962SOL    HW113733   0.896   2.884   8.426 -1.3897  0.0096  2.6834
 2962SOL    HW213734   1.033   2.945   8.410 -0.4737 -2.4738  0.2654
 2963SOL     OW13735   2.099   6.496   6.743  0.4390  0.0734 -1.1863
 2963SOL    HW113736   2.175   6.550   6.722  0.7531  0.6511  1.1794
 2963SOL    HW213737   2.125   6.407   6.718  2.1778  0.1525  0.1307
 2964SOL     OW13738   1.415   2.517   8.178 -0.0062 -0.1077  0.3176
 2964SOL    HW113739   1.498   2.504   8.132 -0.6490 -0.9825 -0.6431
 2964SOL    HW213740   1.391   2.608   8.161 -1.4588 -1.0012 -3.2932
 2965SOL     OW13741   1.254   6.035   6.932  0.3096 -0.0851 -0.3342
 2965SOL    HW113742   1.313   5.967   6.899  0.3725 -0.1157 -0.1608
 2965SOL    HW213743   1.254   6.023   7.027  1.1024  0.7762 -0.2123
 2966SOL     OW13744   0.042   4.400   4.265 -0.4104 -0.4441  0.9065
 2966SOL    HW113745   0.074   4.371   4.351 -0.4703  0.0302  1.0883
 2966SOL    HW213746   0.115   4.384   4.206 -0.4070 -0.8755  1.0224
 2967SOL     OW13747   1.419   4.866   6.896  0.1936 -0.1582  0.2039
 2967SOL    HW113748   1.326   4.854   6.877  0.2270  1.0932 -0.8669
 2967SOL    HW213749   1.421   4.902   6.984 -0.3892  0.5466 -0.0593
 2968SOL     OW13750   2.575   4.104   7.384  0.7101  0.6032 -0.1087
 2968SOL    HW113751   2.625   4.172   7.428  1.6810 -0.0377 -0.1784
 2968SOL    HW213752   2.492   4.145   7.361  0.9979  1.5383  0.4862
 2969SOL     OW13753   0.963   4.169   6.297 -0.2842 -0.0269 -0.2156
 2969SOL    HW113754   0.873   4.192   6.273 -1.2302 -1.1864  1.8593
 2969SOL    HW213755   0.971   4.077   6.274 -0.1645 -0.3206  0.9445
 2970SOL     OW13756   0.246   6.146   8.316  0.3256  0.2514 -0.4841
 2970SOL    HW113757   0.249   6.216   8.381  0.6753  2.0935 -2.3722
 2970SOL    HW213758   0.337   6.117   8.308  0.3216  0.1920 -0.3050
 2971SOL     OW13759   0.471   5.431   6.523  0.7140 -0.4749  0.0207
 2971SOL    HW113760   0.509   5.477   6.448  1.5852 -0.8384  0.2271
 2971SOL    HW213761   0.465   5.339   6.494  0.5867 -0.5290  0.2191
 2972SOL     OW13762   9.494   4.421   6.168 -0.0606  0.0146  0.4193
 2972SOL    HW113763   9.502   4.361   6.094 -1.4931 -1.8820  1.7009
 2972SOL    HW213764   9.573   4.407   6.220  1.2310  1.7690 -0.9456
 2973SOL     OW13765   3.181   8.629   6.186 -0.4107 -0.4343 -0.3994
 2973SOL    HW113766   3.092   8.594   6.180 -1.1282  1.0200  1.1825
 2973SOL    HW213767   3.214   8.600   6.271 -0.1549  0.7162 -0.0815
 2974SOL     OW13768   9.833   4.576   6.022 -0.3378  0.1840 -0.1241
 2974SOL    HW113769   9.836   4.555   6.115  0.5486  1.7027  0.2284
 2974SOL    HW213770   9.902   4.522   5.983  0.4613  0.8096  0.3999
 2975SOL     OW13771   1.858   4.146   6.819  0.2168 -0.5804 -0.0717
 2975SOL    HW113772   1.786   4.084   6.825  0.2110 -0.7565 -1.5581
 2975SOL    HW213773   1.898   4.129   6.733  2.0439 -0.5017  0.7071
 2976SOL     OW13774   1.985   5.980   6.941 -0.3900  0.1254 -0.2620
 2976SOL    HW113775   2.008   5.969   6.848  0.4320  0.4633 -0.1004
 2976SOL    HW213776   1.947   5.896   6.966  0.9084 -0.5492 -0.4703
 2977SOL     OW13777   1.350   4.568   5.562 -0.0228 -0.8886 -0.2205
 2977SOL    HW113778   1.325   4.577   5.654  1.2009  2.8516 -0.0761
 2977SOL    HW213779   1.401   4.488   5.559 -0.6379 -1.4618  2.2229
 2978SOL     OW13780   2.449   3.666   5.498  0.2232 -0.0458  0.0889
 2978SOL    HW113781   2.354   3.659   5.503 -0.0833  2.5715 -0.5592
 2978SOL    HW213782   2.472   3.627   5.414 -0.5109  0.8480 -0.5472
 2979SOL     OW13783   1.548   6.842   6.052 -0.2445  0.1056 -0.4882
 2979SOL    HW113784   1.586   6.927   6.077 -1.0316 -0.3634  2.8119
 2979SOL    HW213785   1.456   6.860   6.037 -0.4438 -0.1570  0.3675
 2980SOL     OW13786   0.700   3.622   8.444 -0.0834 -0.5945  0.2055
 2980SOL    HW113787   0.769   3.688   8.434  0.5449 -1.5053 -2.2137
 2980SOL    HW213788   0.690   3.613   8.538  4.4524 -1.7244  0.8327
 2981SOL     OW13789   0.732   2.917   7.984  0.1870 -0.0282 -0.5137
 2981SOL    HW113790   0.644   2.951   7.997 -0.1215 -0.7400 -0.7015
 2981SOL    HW213791   0.729   2.828   8.020  0.8147 -0.0781 -0.5683
 2982SOL     OW13792   0.174   4.553   6.263 -0.3123 -0.3916  0.7666
 2982SOL    HW113793   0.085   4.530   6.290 -2.2097  1.9811 -2.6524
 2982SOL    HW213794   0.197   4.488   6.197 -0.9701  0.7613 -0.6740
 2983SOL     OW13795   0.089   3.843   6.544  0.1290  0.0872  0.3262
 2983SOL    HW113796   0.055   3.764   6.585 -2.0802  2.0613  2.6825
 2983SOL    HW213797   0.018   3.874   6.488  1.9271 -0.8280 -2.6898
 2984SOL     OW13798   1.606   6.818   5.749 -0.6256  0.4676  0.1944
 2984SOL    HW113799   1.693   6.856   5.738 -1.2679  2.0315  0.3047
 2984SOL    HW213800   1.598   6.804   5.844 -0.6389  0.6679  0.2229
 2985SOL     OW13801   9.661   2.585   7.352 -0.0559 -0.0516  0.1352
 2985SOL    HW113802   9.644   2.657   7.291  1.4550 -0.5944 -1.0103
 2985SOL    HW213803   9.732   2.617   7.408 -0.6565  0.0213  0.8638
 2986SOL     OW13804   2.473   6.934   8.697  0.3941  0.2022  0.5514
 2986SOL    HW113805   2.519   7.006   8.656 -0.4990  0.0717 -0.7445
 2986SOL    HW213806   2.397   6.975   8.739  1.4740  0.3795  2.4297
 2987SOL     OW13807   8.671   2.456   5.126 -0.1620 -0.0994  0.2130
 2987SOL    HW113808   8.710   2.470   5.212 -0.8736  0.6380  0.4292
 2987SOL    HW213809   8.746   2.444   5.067  0.3443  0.0157  0.8300
 2988SOL     OW13810   0.753   3.621   6.136  0.2699  0.2661 -0.0586
 2988SOL    HW113811   0.669   3.617   6.182  0.7783  0.4558  0.9052
 2988SOL    HW213812   0.731   3.598   6.046 -0.4254 -2.3658  0.6830
 2989SOL     OW13813   2.796   4.056   6.656 -0.8973  0.5527  0.4756
 2989SOL    HW113814   2.755   4.090   6.576 -0.3005  0.4628  0.1310
 2989SOL    HW213815   2.819   3.966   6.635 -1.1396  0.3854  0.9029
 2990SOL     OW13816   1.126   3.978   6.505 -0.4987  0.6089 -0.2289
 2990SOL    HW113817   1.073   4.058   6.502 -0.3599  0.7528  0.6565
 2990SOL    HW213818   1.063   3.909   6.528 -0.1941  0.9300  1.7523
 2991SOL     OW13819   0.258   4.937   6.635  0.2274  0.2833  0.1455
 2991SOL    HW113820   0.184   4.993   6.659 -0.9791 -0.5343 -1.4877
 2991SOL    HW213821   0.334   4.979   6.676 -1.0834  1.2646  1.6880
 2992SOL     OW13822   3.604   8.259   5.174  0.2068 -0.0020 -0.2489
 2992SOL    HW113823   3.579   8.351   5.180  1.4076  0.2597  1.7049
 2992SOL    HW213824   3.563   8.218   5.250  1.5818 -0.5462  0.2489
 2993SOL     OW13825   2.138   5.163   6.511  0.0744  0.4718 -0.3263
 2993SOL    HW113826   2.086   5.182   6.433  0.2990  0.3504 -0.5059
 2993SOL    HW213827   2.098   5.085   6.548 -1.6158  1.9313  1.0896
 2994SOL     OW13828   0.874   3.125   7.796 -0.6189 -0.1757  0.2532
 2994SOL    HW113829   0.935   3.052   7.798 -0.8143 -0.3237  1.0089
 2994SOL    HW213830   0.788   3.085   7.802 -1.0372 -0.1930 -3.5580
 2995SOL     OW13831   8.790   2.182   7.730 -0.0438 -0.5119  0.4250
 2995SOL    HW113832   8.826   2.265   7.762 -0.5723 -0.5518  1.1613
 2995SOL    HW213833   8.764   2.200   7.640  1.2893 -0.3314  0.0491
 2996SOL     OW13834   0.466   2.499   9.575  0.4376 -0.6290  0.3451
 2996SOL    HW113835   0.512   2.432   9.626 -0.1755  0.0974  1.9099
 2996SOL    HW213836   0.394   2.452   9.533 -0.2418 -0.9017  1.7618
 2997SOL     OW13837   4.086   2.924   7.973  0.1552 -0.0560  0.4056
 2997SOL    HW113838   4.144   3.000   7.969  0.2832 -0.2017 -0.5499
 2997SOL    HW213839   4.003   2.959   8.008  0.1098  0.5898 -0.3367
 2998SOL     OW13840   1.575   5.862   6.609  0.6612 -0.2974 -0.2620
 2998SOL    HW113841   1.646   5.857   6.545  2.1312  2.0430  1.0370
 2998SOL    HW213842   1.618   5.882   6.692 -1.5131  2.4868  0.3650
 2999SOL     OW13843   1.095   3.805   3.590 -0.5175 -0.0989  0.5659
 2999SOL    HW113844   1.036   3.730   3.582 -1.1301  0.5443 -1.6137
 2999SOL    HW213845   1.181   3.769   3.571 -0.8331 -0.2579 -0.6532
 3000SOL     OW13846   3.172   3.975   7.336  0.7565 -0.1379 -0.4852
 3000SOL    HW113847   3.228   3.958   7.412  2.2881 -1.9487 -1.9140
 3000SOL    HW213848   3.098   3.915   7.347 -0.9737  2.1480  1.3251
 3001SOL     OW13849   9.781   3.167   6.436  0.3799 -0.4858  0.4180
 3001SOL    HW113850   9.740   3.224   6.372  0.1489  0.8715  1.7194
 3001SOL    HW213851   9.859   3.215   6.464  2.8163 -2.8406 -1.7622
 3002SOL     OW13852   1.005   3.214   7.256  0.0684 -0.4314 -0.2067
 3002SOL    HW113853   1.019   3.233   7.349 -1.2676 -1.4447  0.2315
 3002SOL    HW213854   1.057   3.280   7.210 -0.8819  1.4024  1.2371
 3003SOL     OW13855   7.679   2.121   7.354  0.1527  0.2822  0.2013
 3003SOL    HW113856   7.628   2.097   7.432 -1.3734  4.0876  0.5992
 3003SOL    HW213857   7.769   2.128   7.386 -0.4777  2.0097  1.8276
 3004SOL     OW13858   0.835   3.970   7.956 -0.1840  0.1946 -0.2659
 3004SOL    HW113859   0.855   3.898   7.896  0.0092 -0.2358  0.3038
 3004SOL    HW213860   0.920   3.996   7.992 -0.3406  0.1529  0.1443
 3005SOL     OW13861   2.290   4.360   6.994  0.2771 -0.1578 -0.1286
 3005SOL    HW113862   2.311   4.345   6.902 -1.5445  0.2360 -0.6532
 3005SOL    HW213863   2.254   4.449   6.997  1.2843  0.2431  1.1542
 3006SOL     OW13864   0.788   4.334   6.842  0.3221  0.4873 -1.0156
 3006SOL    HW113865   0.790   4.315   6.936  2.8275  2.0896 -0.6667
 3006SOL    HW213866   0.735   4.413   6.834  1.2235  1.1381 -0.7371
 3007SOL     OW13867   2.465   3.796   9.198 -0.3141 -0.5810  0.3123
 3007SOL    HW113868   2.422   3.736   9.260  1.2054 -1.2320  0.8081
 3007SOL    HW213869   2.490   3.740   9.125  1.7769 -0.7863  1.1043
 3008SOL     OW13870   9.257   4.045   9.115  0.3815  0.5882 -0.1433
 3008SOL    HW113871   9.324   4.022   9.180  2.4027 -1.4511 -2.6998
 3008SOL    HW213872   9.246   4.140   9.124 -0.8708  0.2471  4.2844
 3009SOL     OW13873   1.901   4.583   7.577 -0.1366  0.3846 -0.0006
 3009SOL    HW113874   1.829   4.606   7.518 -0.4409  1.6891  0.8403
 3009SOL    HW213875   1.963   4.655   7.569  1.3106 -0.9036 -1.0110
 3010SOL     OW13876   8.850   4.811   6.885  0.5055  0.1241  0.1275
 3010SOL    HW113877   8.822   4.721   6.902  2.5618 -1.1592 -2.4335
 3010SOL    HW213878   8.804   4.836   6.805  0.8411  0.8950  0.1634
 3011SOL     OW13879   8.434   5.083   4.638  0.0986  0.0580 -0.1747
 3011SOL    HW113880   8.423   5.020   4.566 -1.4727 -1.0684  0.9716
 3011SOL    HW213881   8.410   5.167   4.599  3.5305  0.3096 -2.1038
 3012SOL     OW13882   0.797   4.647   3.505  0.0166  0.6677  0.3657
 3012SOL    HW113883   0.791   4.623   3.412 -0.8949 -1.8968  0.9825
 3012SOL    HW213884   0.890   4.662   3.520  0.6918 -2.0994 -0.3652
 3013SOL     OW13885   0.561   6.401   6.995 -0.3188  0.5917  0.2253
 3013SOL    HW113886   0.544   6.331   7.059  0.9106 -0.6125 -0.7032
 3013SOL    HW213887   0.484   6.457   7.000 -1.8536 -1.4003  0.2630
 3014SOL     OW13888   2.438   6.517   7.130  0.4100  0.3336  0.0482
 3014SOL    HW113889   2.383   6.577   7.180 -1.0767  0.1473 -1.3076
 3014SOL    HW213890   2.484   6.573   7.068 -0.6958  0.1606 -0.9643
 3015SOL     OW13891   3.665   3.780   6.638 -0.0224 -0.0984 -1.0416
 3015SOL    HW113892   3.577   3.757   6.667  0.7881 -0.2894  1.5197
 3015SOL    HW213893   3.709   3.811   6.717  2.3018 -0.2565 -2.1819
 3016SOL     OW13894   0.698   4.813   8.993  0.5488  0.2611  0.3775
 3016SOL    HW113895   0.624   4.752   8.986 -0.5861  1.6191 -0.0170
 3016SOL    HW213896   0.762   4.767   9.048  0.6791 -2.1415 -1.6136
 3017SOL     OW13897   9.251   4.345   9.128  0.1909  0.0380 -0.1867
 3017SOL    HW113898   9.211   4.423   9.167  1.5664  0.3786  0.6364
 3017SOL    HW213899   9.338   4.375   9.100 -0.0775 -0.6731 -1.8738
 3018SOL     OW13900   9.513   2.934   7.454  0.1013  0.5987 -0.0586
 3018SOL    HW113901   9.449   2.999   7.424  1.0143  1.0922 -0.9884
 3018SOL    HW213902   9.542   2.890   7.374 -3.3435 -3.8506  0.6936
 3019SOL     OW13903   8.730   5.337   6.422 -0.2272 -0.1163 -0.1750
 3019SOL    HW113904   8.813   5.369   6.389 -0.4772 -0.7846 -1.5167
 3019SOL    HW213905   8.725   5.372   6.511 -0.8232  4.1555 -1.6493
 3020SOL     OW13906   0.551   4.730   6.091 -0.0296  0.0481 -0.1996
 3020SOL    HW113907   0.598   4.800   6.046  1.8571 -0.7587  0.4401
 3020SOL    HW213908   0.465   4.728   6.049 -0.0511  2.5339 -0.4389
 3021SOL     OW13909   1.426   3.392   4.994 -0.4408  0.1695 -0.2983
 3021SOL    HW113910   1.406   3.305   5.028 -0.8719  0.2807 -0.2666
 3021SOL    HW213911   1.361   3.406   4.925  0.5593 -0.1535 -1.3417
 3022SOL     OW13912   9.530   4.490   5.413 -0.0141 -0.5421  0.3844
 3022SOL    HW113913   9.558   4.580   5.432  1.0100 -0.7544 -0.0702
 3022SOL    HW213914   9.435   4.497   5.401 -0.0888  0.3068  1.3308
 3023SOL     OW13915   9.093   6.212   7.517 -0.2759  0.2113 -0.3108
 3023SOL    HW113916   9.188   6.209   7.507 -0.2441  1.1931 -0.4441
 3023SOL    HW213917   9.072   6.139   7.576  0.6786  0.5519  0.4821
 3024SOL     OW13918   0.883   5.693   5.614  0.0520 -0.0266  0.0878
 3024SOL    HW113919   0.799   5.680   5.570 -0.3923  2.0344  0.2389
 3024SOL    HW213920   0.947   5.657   5.553 -0.7826  0.1062 -0.9056
 3025SOL     OW13921   1.802   3.003   4.567 -0.2892  0.1713 -0.1562
 3025SOL    HW113922   1.881   2.972   4.521 -0.4978 -0.2356 -0.2491
 3025SOL    HW213923   1.834   3.071   4.627  0.6246 -1.9002  1.8922
 3026SOL     OW13924   2.571   5.263   5.688  0.0198 -0.0690  0.2348
 3026SOL    HW113925   2.543   5.341   5.641 -2.4565 -0.9768  0.0125
 3026SOL    HW213926   2.541   5.278   5.778  0.9950 -0.0917  0.5695
 3027SOL     OW13927   8.575   2.933   7.456 -0.1572  0.5847 -0.2557
 3027SOL    HW113928   8.638   2.873   7.418 -0.1403  0.9444 -0.7977
 3027SOL    HW213929   8.514   2.877   7.504 -0.0727  0.1507 -0.6564
 3028SOL     OW13930   8.002   5.505   6.487 -0.0822  0.0219 -0.4110
 3028SOL    HW113931   7.977   5.423   6.444  1.8434 -0.6360 -0.3448
 3028SOL    HW213932   8.021   5.565   6.416 -1.3415  0.3981 -0.4577
 3029SOL     OW13933   1.340   6.654   8.686  0.1922  0.4170  0.1901
 3029SOL    HW113934   1.264   6.664   8.628 -0.1023  0.0256  0.5028
 3029SOL    HW213935   1.389   6.581   8.650  1.0024  1.3417 -0.6315
 3030SOL     OW13936   9.774   3.177   6.998 -0.2016  0.0729 -0.2430
 3030SOL    HW113937   9.703   3.157   6.936 -2.1493  1.0775  1.5533
 3030SOL    HW213938   9.796   3.092   7.037  0.6227 -0.4694 -1.8053
 3031SOL     OW13939   2.493   4.525   6.364 -0.1536 -0.4262  0.6507
 3031SOL    HW113940   2.417   4.478   6.396 -1.0784  0.0704 -0.7326
 3031SOL    HW213941   2.566   4.491   6.416 -1.3653 -0.5906  2.3089
 3032SOL     OW13942   2.694   6.723   8.242 -0.0143 -0.0791  0.4597
 3032SOL    HW113943   2.610   6.710   8.197  0.5701 -2.1028 -0.1671
 3032SOL    HW213944   2.727   6.806   8.208 -2.2396  1.3390  1.5653
 3033SOL     OW13945   0.676   5.507   5.844  0.1308 -0.5271  0.2676
 3033SOL    HW113946   0.684   5.461   5.761  2.0692  1.1491 -0.5639
 3033SOL    HW213947   0.649   5.596   5.819  1.4355  0.1998  1.3285
 3034SOL     OW13948   0.948   6.702   4.535 -0.5045  0.8094 -0.0525
 3034SOL    HW113949   1.004   6.777   4.556  3.6058 -2.3448  1.3709
 3034SOL    HW213950   0.920   6.669   4.620 -0.1938 -0.6616 -0.5025
 3035SOL     OW13951   0.212   4.791   6.132  0.3096 -0.3674  0.3976
 3035SOL    HW113952   0.196   4.857   6.200 -0.6660  0.4784 -0.6084
 3035SOL    HW213953   0.234   4.712   6.181  0.7819  0.5032  1.6606
 3036SOL     OW13954   2.322   6.968   6.709  0.2349 -0.0666  0.3386
 3036SOL    HW113955   2.258   7.013   6.654  2.0615  0.3488 -1.6399
 3036SOL    HW213956   2.280   6.957   6.793 -1.5831  2.1879 -0.1977
 3037SOL     OW13957   8.515   3.301   9.478 -0.5129 -0.3316 -0.6863
 3037SOL    HW113958   8.608   3.303   9.500 -0.7729 -0.2303  0.4682
 3037SOL    HW213959   8.507   3.231   9.414  0.3609 -0.3487 -0.7841
 3038SOL     OW13960   9.065   4.933   4.620 -0.0584 -0.1873  0.0450
 3038SOL    HW113961   8.972   4.948   4.602 -0.3534  0.9274  2.1891
 3038SOL    HW213962   9.103   4.913   4.534 -1.5770  3.0404 -1.5629
 3039SOL     OW13963   0.543   5.656   4.023 -0.6119 -0.5233  1.1118
 3039SOL    HW113964   0.575   5.716   4.090 -0.6339 -1.7288  2.2288
 3039SOL    HW213965   0.490   5.711   3.966  1.8674  1.1672  0.2614
 3040SOL     OW13966   1.556   4.265   4.772 -0.1190 -0.0338 -0.2679
 3040SOL    HW113967   1.536   4.247   4.680 -0.3089  0.5061 -0.3378
 3040SOL    HW213968   1.526   4.188   4.818  0.7384 -0.6740 -0.7438
 3041SOL     OW13969   0.466   3.635   5.356  0.0113 -0.9418  0.4383
 3041SOL    HW113970   0.475   3.621   5.450 -1.6162 -1.0996  0.6092
 3041SOL    HW213971   0.546   3.599   5.318 -0.0698 -2.4621  1.6202
 3042SOL     OW13972   9.004   4.320   7.606  0.2230  0.4305 -0.3191
 3042SOL    HW113973   9.080   4.262   7.608  1.1716  1.6114 -0.4071
 3042SOL    HW213974   8.929   4.262   7.606  1.1355 -0.7951 -1.1113
 3043SOL     OW13975   7.800   5.310   8.354 -0.1331  0.1285 -0.2229
 3043SOL    HW113976   7.808   5.402   8.380  0.2819  0.5942 -1.9248
 3043SOL    HW213977   7.832   5.307   8.264 -2.2319 -1.2709 -1.0049
 3044SOL     OW13978   1.672   5.760   8.523 -0.3246  0.2499 -0.3136
 3044SOL    HW113979   1.605   5.756   8.591  1.0724 -1.2748  1.0808
 3044SOL    HW213980   1.624   5.759   8.441 -2.0133 -1.1701  0.6329
 3045SOL     OW13981   1.743   3.627   8.605  0.1747  0.1690  0.1316
 3045SOL    HW113982   1.683   3.638   8.531  0.0051 -1.0494  0.0694
 3045SOL    HW213983   1.685   3.617   8.681  0.2568 -1.5176  0.0022
 3046SOL     OW13984   0.165   5.965   5.896 -0.1075 -0.5916  0.2033
 3046SOL    HW113985   0.161   5.993   5.988  1.8281  0.6987 -0.0509
 3046SOL    HW213986   0.220   5.886   5.898  1.6197  0.5544 -0.0162
 3047SOL     OW13987   0.260   6.167   7.828  0.0557  0.3050 -0.2838
 3047SOL    HW113988   0.340   6.190   7.875  1.3676  0.8308 -2.6023
 3047SOL    HW213989   0.189   6.199   7.883  1.5312  1.8859  0.7783
 3048SOL     OW13990   1.534   3.066   6.840  0.1657  0.2859  0.0643
 3048SOL    HW113991   1.541   2.986   6.892  0.0363 -0.5583 -1.1700
 3048SOL    HW213992   1.597   3.053   6.768 -0.8949  0.6264 -0.9603
 3049SOL     OW13993   1.351   6.831   5.641  0.0399  0.4414  0.3857
 3049SOL    HW113994   1.443   6.818   5.666 -0.1554 -0.0669  0.8443
 3049SOL    HW213995   1.344   6.926   5.626  0.4700  0.5790  1.0102
 3050SOL     OW13996   9.353   2.799   4.757  0.2932  0.2444  0.1743
 3050SOL    HW113997   9.321   2.714   4.726  0.7636 -0.3003  1.1602
 3050SOL    HW213998   9.447   2.787   4.767  0.4017  0.9647  0.0776
 3051SOL     OW13999   2.125   4.294   5.227 -0.3876 -0.2263 -0.0356
 3051SOL    HW114000   2.086   4.354   5.290  0.6050  0.0385  0.3450
 3051SOL    HW214001   2.051   4.246   5.191 -1.2306  1.2755 -0.4062
 3052SOL     OW14002   1.089   2.851   5.559  0.0846  0.0264  0.7547
 3052SOL    HW114003   1.105   2.941   5.530 -1.1898 -0.1656 -0.6913
 3052SOL    HW214004   1.174   2.820   5.590  0.0711  2.5304  3.7562
 3053SOL     OW14005   2.176   7.105   5.965  0.0473  0.1432  0.2017
 3053SOL    HW114006   2.271   7.093   5.964 -0.1622 -1.9372  0.4129
 3053SOL    HW214007   2.153   7.127   5.875  0.7198  0.4721  0.1117
 3054SOL     OW14008   2.270   4.906   6.401 -0.5320 -0.3796 -0.3831
 3054SOL    HW114009   2.343   4.849   6.423  0.8506  1.0401 -1.1523
 3054SOL    HW214010   2.195   4.847   6.394  0.5245 -1.8760  0.3779
 3055SOL     OW14011   0.919   4.826   6.749 -0.4036 -0.4660  0.0844
 3055SOL    HW114012   0.825   4.843   6.746 -0.2938  0.1994  0.1603
 3055SOL    HW214013   0.929   4.737   6.715 -0.8843  0.1162 -1.6660
 3056SOL     OW14014   1.356   5.220   6.218  0.0001  0.2394  0.2689
 3056SOL    HW114015   1.334   5.162   6.145  0.3558  1.4158 -0.8023
 3056SOL    HW214016   1.293   5.197   6.286  0.0903 -1.3499 -0.1390
 3057SOL     OW14017   9.692   6.304   7.912 -0.0864 -0.0896  0.5151
 3057SOL    HW114018   9.646   6.385   7.932  1.4793  1.4508 -1.6937
 3057SOL    HW214019   9.771   6.307   7.967  0.7155  0.6855 -0.6290
 3058SOL     OW14020   2.417   4.290   8.092  0.4222 -0.0832  0.6518
 3058SOL    HW114021   2.404   4.224   8.024 -0.1103  0.8589 -0.1803
 3058SOL    HW214022   2.508   4.319   8.081  0.7617 -0.8803  1.2276
 3059SOL     OW14023   1.075   4.238   6.032 -0.1519 -0.6407  0.7368
 3059SOL    HW114024   1.168   4.218   6.038 -0.1393 -0.6302  0.5935
 3059SOL    HW214025   1.065   4.321   6.079  0.0621 -0.1961  0.0217
 3060SOL     OW14026   9.384   4.712   7.531  0.3739  0.0331 -0.8612
 3060SOL    HW114027   9.325   4.736   7.602  1.4837  1.7667 -0.4688
 3060SOL    HW214028   9.335   4.647   7.480 -1.1221  0.0588  0.4768
 3061SOL     OW14029   1.681   3.916   6.891 -0.3111  0.9664  0.3368
 3061SOL    HW114030   1.603   3.866   6.864  0.2841  0.4320 -0.4478
 3061SOL    HW214031   1.672   3.926   6.986 -0.8135  0.0003  0.4014
 3062SOL     OW14032   9.366   1.620   7.149 -0.5779  0.2415  0.2258
 3062SOL    HW114033   9.323   1.606   7.233 -3.0145  1.1906 -0.7770
 3062SOL    HW214034   9.377   1.715   7.143  0.4127  0.1131 -0.1514
 3063SOL     OW14035   1.387   3.629   6.306  0.1829  0.4755 -0.1748
 3063SOL    HW114036   1.323   3.576   6.353 -0.3006  0.4502 -0.8560
 3063SOL    HW214037   1.402   3.582   6.224  0.6306  0.7916 -0.2793
 3064SOL     OW14038   3.491   4.540   4.940  0.9741  0.3468  0.6205
 3064SOL    HW114039   3.476   4.635   4.948 -3.4450  0.2376 -2.3665
 3064SOL    HW214040   3.566   4.533   4.881  0.3191  2.1159 -0.5098
 3065SOL     OW14041   8.452   3.929   6.556 -0.1733  0.2952 -0.0391
 3065SOL    HW114042   8.406   3.914   6.474  0.5893 -0.5658 -0.3301
 3065SOL    HW214043   8.417   3.864   6.616  1.8747 -1.6444 -0.7875
 3066SOL     OW14044   3.354   6.500   5.031 -0.0591  0.0356 -0.1844
 3066SOL    HW114045   3.281   6.525   4.974 -1.0616  1.5516  1.6528
 3066SOL    HW214046   3.381   6.581   5.073  3.3751 -0.3055 -1.4188
 3067SOL     OW14047   1.319   5.800   5.584  0.2144  0.0282 -0.0907
 3067SOL    HW114048   1.250   5.759   5.635  0.6159  0.1869  0.5945
 3067SOL    HW214049   1.308   5.764   5.496  1.4891 -2.7908  0.7734
 3068SOL     OW14050   3.560   8.448   5.556 -0.0715 -0.6600  0.1422
 3068SOL    HW114051   3.576   8.365   5.511 -2.1626 -2.2229  2.0769
 3068SOL    HW214052   3.632   8.455   5.618  0.9413 -0.2199 -1.0472
 3069SOL     OW14053   1.119   5.583   5.512 -0.7018 -0.4022 -0.3830
 3069SOL    HW114054   1.099   5.490   5.519  1.1922 -0.7972  0.7732
 3069SOL    HW214055   1.200   5.586   5.461 -0.7332  0.6013 -0.3953
 3070SOL     OW14056   1.830   3.214   6.317  0.3559  0.2599  0.3965
 3070SOL    HW114057   1.796   3.300   6.341 -1.6427 -0.2974 -0.2710
 3070SOL    HW214058   1.752   3.161   6.299  1.5482 -1.5489  0.2749
 3071SOL     OW14059   9.352   6.931   7.669  0.1554 -0.1358  0.0503
 3071SOL    HW114060   9.268   6.887   7.669 -0.0354  0.2096 -0.7403
 3071SOL    HW214061   9.336   7.014   7.714  0.0378 -0.0148 -0.2119
 3072SOL     OW14062   0.153   4.381   7.624 -0.2068 -0.6855  0.1511
 3072SOL    HW114063   0.115   4.383   7.536 -0.9168  0.5987  0.4616
 3072SOL    HW214064   0.077   4.377   7.682  0.1918  0.1277  0.7368
 3073SOL     OW14065   1.136   2.486   2.226 -0.3454 -0.4241 -0.0611
 3073SOL    HW114066   1.049   2.448   2.221 -0.3972 -0.2244 -0.7342
 3073SOL    HW214067   1.148   2.507   2.319 -0.8053 -0.9276  0.1123
 3074SOL     OW14068   2.030   7.146   5.128  0.0369  0.4608  0.4650
 3074SOL    HW114069   2.029   7.165   5.222 -0.9060 -0.0315  0.5667
 3074SOL    HW214070   2.006   7.230   5.087  1.5911  0.9976  0.5718
 3075SOL     OW14071   0.786   6.322   6.764  0.3925  0.4307 -0.5740
 3075SOL    HW114072   0.816   6.335   6.675  1.3430 -1.3495 -0.5548
 3075SOL    HW214073   0.764   6.229   6.769 -4.5256  1.2914 -0.3667
 3076SOL     OW14074   7.540   3.903   7.844  0.2961 -0.3029  0.6902
 3076SOL    HW114075   7.455   3.946   7.844 -0.3582 -1.4531  2.9254
 3076SOL    HW214076   7.522   3.813   7.816  1.3098  0.1574 -1.7435
 3077SOL     OW14077   3.066   3.044   7.259 -0.4693 -0.5151 -0.3812
 3077SOL    HW114078   3.019   3.098   7.196  0.7919  0.5707 -0.4300
 3077SOL    HW214079   3.091   2.965   7.210 -1.4534 -0.7048 -0.5873
 3078SOL     OW14080   9.743   2.914   5.819  0.2387 -0.0927  0.6998
 3078SOL    HW114081   9.795   2.892   5.896  0.1642 -1.5079  0.3709
 3078SOL    HW214082   9.749   2.837   5.762 -2.6068 -0.5719  0.8753
 3079SOL     OW14083   2.523   1.388   8.125  0.0829  0.2043  0.0601
 3079SOL    HW114084   2.595   1.450   8.119 -0.3948  0.8821  1.0306
 3079SOL    HW214085   2.446   1.442   8.144 -0.5386 -0.5796 -0.1399
 3080SOL     OW14086   9.099   2.619   5.222  0.0656  0.2425 -0.5166
 3080SOL    HW114087   9.191   2.643   5.218  0.4667 -1.2766 -3.5325
 3080SOL    HW214088   9.099   2.526   5.248 -0.8340  0.7639  1.6115
 3081SOL     OW14089   0.033   4.229   7.114  0.2817  0.0832  0.1265
 3081SOL    HW114090   0.036   4.251   7.207  2.4836 -0.2237  0.1729
 3081SOL    HW214091   0.009   4.136   7.112 -1.4545  0.4987  0.2744
 3082SOL     OW14092   2.997   7.010   6.294 -0.8743 -0.0989 -0.0607
 3082SOL    HW114093   3.014   6.917   6.310  0.5959  0.3132  0.9256
 3082SOL    HW214094   3.003   7.019   6.198  0.4953 -0.7647 -0.0632
 3083SOL     OW14095   0.184   4.876   4.892 -0.6973  0.2126 -0.3548
 3083SOL    HW114096   0.226   4.799   4.931 -1.0354  0.4886  0.5645
 3083SOL    HW214097   0.173   4.937   4.964 -1.5119  0.6554 -0.8368
 3084SOL     OW14098   2.231   6.025   8.115 -0.0885  0.0083  0.3963
 3084SOL    HW114099   2.258   6.081   8.187 -1.5906 -0.5469  1.4493
 3084SOL    HW214100   2.310   5.978   8.090  1.2112  2.5282 -0.5312
 3085SOL     OW14101   0.830   4.942   7.600 -0.0228 -0.3633  0.2307
 3085SOL    HW114102   0.763   4.954   7.668  0.4217  0.5537  0.5294
 3085SOL    HW214103   0.897   4.888   7.640 -0.3123 -0.8004  0.1263
 3086SOL     OW14104   1.794   5.433   6.228  0.3973 -0.9261 -0.1100
 3086SOL    HW114105   1.728   5.459   6.293  1.3699  0.1820  0.4681
 3086SOL    HW214106   1.804   5.510   6.172  0.0148 -1.6625 -1.2157
 3087SOL     OW14107   0.140   5.057   7.093 -1.0793 -0.0719 -0.0209
 3087SOL    HW114108   0.135   5.033   7.185 -0.7787 -1.2614 -0.2934
 3087SOL    HW214109   0.091   5.139   7.086 -0.8901  0.1600  1.2314
 3088SOL     OW14110   0.950   4.790   5.715 -0.5814  0.2864  0.4240
 3088SOL    HW114111   0.903   4.769   5.634  1.6833  0.0356 -0.9110
 3088SOL    HW214112   0.979   4.880   5.704 -1.5423  0.7692  1.6608
 3089SOL     OW14113   2.261   5.361   6.041  0.2836 -0.3090  0.5951
 3089SOL    HW114114   2.232   5.450   6.059  0.6060  0.0223 -0.4561
 3089SOL    HW214115   2.222   5.340   5.956  0.1676 -1.1902  0.8569
 3090SOL     OW14116   0.980   5.077   5.625 -0.2457 -0.2400  0.6452
 3090SOL    HW114117   0.917   5.133   5.670 -0.2180 -1.2867  2.0335
 3090SOL    HW214118   1.065   5.100   5.663  0.0616  0.2711 -0.3158
 3091SOL     OW14119   2.612   6.872   4.103  0.3889 -0.9050  0.5266
 3091SOL    HW114120   2.543   6.870   4.168  0.1264 -0.5125  0.2627
 3091SOL    HW214121   2.588   6.804   4.039 -2.2643  2.1591 -2.0830
 3092SOL     OW14122   0.249   4.736   5.340 -0.1587  0.2328 -0.0670
 3092SOL    HW114123   0.209   4.822   5.350 -3.2906 -1.2113  0.9450
 3092SOL    HW214124   0.182   4.682   5.299  1.5689 -1.8378 -0.3533
 3093SOL     OW14125   3.446   3.882   6.974 -0.3579 -0.4657 -0.0231
 3093SOL    HW114126   3.420   3.825   6.902 -1.5082 -0.2663  0.2038
 3093SOL    HW214127   3.445   3.970   6.937 -0.1805 -0.4388  0.0357
 3094SOL     OW14128   8.978   4.571   5.593 -0.1345  0.0894  0.1928
 3094SOL    HW114129   9.029   4.547   5.670 -1.9495  0.5663  1.6209
 3094SOL    HW214130   9.039   4.561   5.520  0.7201 -3.7155  1.2080
 3095SOL     OW14131   9.739   3.613   5.022 -0.0487 -0.0867  0.1001
 3095SOL    HW114132   9.729   3.553   4.949  0.4104  0.8264 -0.7351
 3095SOL    HW214133   9.683   3.687   5.001  3.3176  2.2548 -1.6378
 3096SOL     OW14134   0.202   4.559   8.590 -0.1396 -0.2567  0.0035
 3096SOL    HW114135   0.278   4.588   8.640  1.3917  0.3465 -2.4833
 3096SOL    HW214136   0.158   4.495   8.647  1.2245  0.6767  2.2006
 3097SOL     OW14137   9.506   5.158   6.717 -0.0271 -0.1627 -0.4421
 3097SOL    HW114138   9.536   5.153   6.627 -0.5694  0.1946 -0.6533
 3097SOL    HW214139   9.585   5.177   6.768  0.5660 -1.9614 -0.6255
 3098SOL     OW14140   9.770   3.727   4.062 -0.6537  0.0911  0.4225
 3098SOL    HW114141   9.763   3.644   4.015 -1.3280  0.6143 -0.4290
 3098SOL    HW214142   9.857   3.724   4.103 -0.3998 -0.7442 -0.1428
 3099SOL     OW14143   3.079   4.618   4.917  0.2516  0.1874  0.0836
 3099SOL    HW114144   3.156   4.589   4.965  0.1494 -1.0114 -0.4350
 3099SOL    HW214145   3.028   4.537   4.903 -1.0991  0.9419  0.4191
 3100SOL     OW14146   1.167   2.966   7.898  0.4515  0.1175 -0.0616
 3100SOL    HW114147   1.196   3.033   7.960 -0.6388  1.0018 -0.4831
 3100SOL    HW214148   1.104   2.913   7.948  2.4314 -1.6304  0.7651
 3101SOL     OW14149   1.647   2.918   5.662  0.0414 -0.1403  0.5518
 3101SOL    HW114150   1.582   2.904   5.731  0.7918 -1.1674  1.0741
 3101SOL    HW214151   1.609   2.987   5.608 -1.4873 -0.7115  0.8344
 3102SOL     OW14152   1.508   5.596   6.921  0.2723 -0.3336 -0.0281
 3102SOL    HW114153   1.556   5.660   6.973  0.4439 -0.3894 -0.1169
 3102SOL    HW214154   1.461   5.543   6.985  0.4659 -0.3881  0.0693
 3103SOL     OW14155   1.577   2.491   6.418  0.0209 -0.8012  0.5771
 3103SOL    HW114156   1.541   2.575   6.386  1.5795  0.8680  2.8799
 3103SOL    HW214157   1.519   2.466   6.490 -0.6827 -2.0072 -0.3619
 3104SOL     OW14158   1.318   4.201   5.466 -0.1236 -0.6224  0.4537
 3104SOL    HW114159   1.339   4.202   5.559 -0.0693  0.1880  0.4366
 3104SOL    HW214160   1.347   4.286   5.433 -3.7959  0.8856  0.5479
 3105SOL     OW14161   1.156   4.796   6.890 -0.0695  0.5179  0.0392
 3105SOL    HW114162   1.062   4.793   6.870 -0.0714  0.0963  0.1147
 3105SOL    HW214163   1.161   4.776   6.983  0.1578 -0.2936 -0.1401
 3106SOL     OW14164   1.445   3.640   8.505  0.2045 -0.2762 -0.5371
 3106SOL    HW114165   1.379   3.573   8.490  1.2705 -1.4427 -0.1541
 3106SOL    HW214166   1.404   3.702   8.566 -0.3727 -1.2153  0.0415
 3107SOL     OW14167   0.025   4.686   7.244 -0.5928  0.1215 -0.1640
 3107SOL    HW114168   0.035   4.595   7.214 -1.7590  0.2406 -0.9845
 3107SOL    HW214169  -0.059   4.714   7.207 -0.2657  1.5229  0.1127
 3108SOL     OW14170   2.588   5.366   6.496 -0.1100  0.4479 -0.2947
 3108SOL    HW114171   2.500   5.336   6.474 -0.3496  1.0498 -0.1636
 3108SOL    HW214172   2.575   5.450   6.540  0.5187  0.4613 -0.1214
 3109SOL     OW14173   2.833   7.009   4.191 -0.2872  0.6149 -0.0857
 3109SOL    HW114174   2.803   6.987   4.279  1.2058  0.9621  0.5438
 3109SOL    HW214175   2.779   6.956   4.133  1.4131 -2.7928  1.2172
 3110SOL     OW14176   1.352   4.327   8.043 -0.2634  0.4482  0.5750
 3110SOL    HW114177   1.285   4.272   8.002  0.5767  0.0977 -0.3942
 3110SOL    HW214178   1.327   4.333   8.135 -1.2452 -0.2348  0.3599
 3111SOL     OW14179   1.519   4.372   8.823  0.2616  0.2381  0.1426
 3111SOL    HW114180   1.450   4.309   8.803  0.2607  0.1862  0.2990
 3111SOL    HW214181   1.475   4.440   8.874  0.2044  0.5134 -0.2755
 3112SOL     OW14182   0.134   3.412   9.301 -0.6761 -0.7215 -0.1823
 3112SOL    HW114183   0.040   3.421   9.310 -0.4145  0.2327  2.3713
 3112SOL    HW214184   0.160   3.354   9.372  0.8307  0.5785  0.4030
 3113SOL     OW14185   1.531   5.402   9.010  0.1697 -0.2608 -0.1785
 3113SOL    HW114186   1.504   5.489   8.980  1.2163 -0.0579 -0.6013
 3113SOL    HW214187   1.491   5.392   9.096  1.1133  1.1983  0.4544
 3114SOL     OW14188   2.365   7.078   9.250  0.0035  0.2951 -0.0177
 3114SOL    HW114189   2.407   7.056   9.166  0.4193  1.2455 -0.0745
 3114SOL    HW214190   2.277   7.040   9.243  0.3435 -0.4296 -0.5099
 3115SOL     OW14191   1.516   5.089   8.927  0.4078  0.1606  0.0887
 3115SOL    HW114192   1.503   5.006   8.881  0.7726  0.4163 -0.4800
 3115SOL    HW214193   1.481   5.073   9.015 -0.6868 -0.2066 -0.3861
 3116SOL     OW14194   0.246   2.804   8.152  0.0155  0.1376  0.6306
 3116SOL    HW114195   0.336   2.776   8.133  0.5125  2.3733 -0.6577
 3116SOL    HW214196   0.251   2.845   8.238  0.3113  0.5676  0.4116
 3117SOL     OW14197   9.613   3.003   8.475  0.0903 -0.3295  0.1454
 3117SOL    HW114198   9.689   2.953   8.507  1.0788  0.2658 -1.1477
 3117SOL    HW214199   9.566   3.029   8.554  1.2992 -0.6405  1.0000
 3118SOL     OW14200   1.176   4.982   7.837  0.0159 -0.5925 -0.9291
 3118SOL    HW114201   1.093   5.010   7.876  0.8340 -0.2184  0.6095
 3118SOL    HW214202   1.180   4.888   7.854  1.6633 -0.0514  2.6787
 3119SOL     OW14203   1.462   4.151   6.612  0.2301  0.3276  0.9873
 3119SOL    HW114204   1.411   4.175   6.690 -0.7948  0.3337  0.3377
 3119SOL    HW214205   1.513   4.075   6.640 -2.0692 -1.3429  0.9764
 3120SOL     OW14206   1.353   4.814   0.776 -0.3439 -0.3962  0.1532
 3120SOL    HW114207   1.266   4.847   0.796  0.1440  0.2187  1.3854
 3120SOL    HW214208   1.367   4.742   0.837 -0.2181 -0.9050 -0.4642
 3121SOL     OW14209   0.137   4.579   9.851 -0.2553 -0.2479  0.2619
 3121SOL    HW114210   0.156   4.512   9.916 -0.5889 -0.3917  0.2150
 3121SOL    HW214211   0.129   4.660   9.901  1.6728  0.0549  0.1558
 3122SOL     OW14212   3.371   4.362   6.649 -0.0380  0.1369 -0.5903
 3122SOL    HW114213   3.289   4.408   6.628 -0.0547  0.8145  0.7883
 3122SOL    HW214214   3.414   4.348   6.565 -0.9456  0.9855 -1.2158
 3123SOL     OW14215   0.190   2.464   7.608 -0.9415 -0.4767  0.0812
 3123SOL    HW114216   0.172   2.520   7.532  0.0960  0.1000  0.2422
 3123SOL    HW214217   0.106   2.422   7.627 -1.7342  0.9641 -0.0923
 3124SOL     OW14218   1.595   3.458   8.212 -0.6800  0.1029  0.4587
 3124SOL    HW114219   1.514   3.507   8.226  0.0158  0.8512  2.0392
 3124SOL    HW214220   1.657   3.523   8.180 -0.4827 -0.3181 -0.0347
 3125SOL     OW14221   2.894   4.548   6.321  0.1424 -0.1801 -0.0659
 3125SOL    HW114222   2.914   4.461   6.356 -0.0471 -0.0025  0.4956
 3125SOL    HW214223   2.947   4.555   6.242  0.8725 -0.4338  0.3994
 3126SOL     OW14224   0.075   3.292   8.984 -0.2819  0.2923  0.2351
 3126SOL    HW114225   0.038   3.333   9.062  0.6117  2.0448 -0.2039
 3126SOL    HW214226   0.058   3.355   8.914  0.7418 -0.3168 -0.5882
 3127SOL     OW14227   2.277   5.558   8.541 -0.3394  0.5524 -0.0034
 3127SOL    HW114228   2.190   5.530   8.511 -0.4771 -0.2312  1.0847
 3127SOL    HW214229   2.259   5.617   8.614  0.0399  0.4786  0.1514
 3128SOL     OW14230   0.228   3.858   7.655  0.0087 -0.5983 -0.0939
 3128SOL    HW114231   0.314   3.819   7.641  1.4004  2.1816 -0.0179
 3128SOL    HW214232   0.208   3.841   7.747  1.0304 -0.2668  0.1988
 3129SOL     OW14233   1.444   4.524   7.847  0.1420  0.4484  0.0187
 3129SOL    HW114234   1.415   4.445   7.893  3.3937  0.2541  2.0741
 3129SOL    HW214235   1.489   4.492   7.769  0.3447  0.3254  0.1834
 3130SOL     OW14236   6.778   4.930   6.420 -0.1754  0.7067  0.3870
 3130SOL    HW114237   6.790   4.872   6.496 -2.9347 -0.4309  0.0631
 3130SOL    HW214238   6.838   4.896   6.354  1.1710  0.7715  1.5310
 3131SOL     OW14239   0.657   5.868   7.700 -0.1758 -0.1915 -0.3230
 3131SOL    HW114240   0.660   5.793   7.640 -0.1760 -0.2712 -0.2240
 3131SOL    HW214241   0.577   5.915   7.675 -0.5592 -0.6211  0.0897
 3132SOL     OW14242   9.534   4.661   8.087 -0.5693 -0.0119  0.4006
 3132SOL    HW114243   9.597   4.732   8.073  1.5816 -1.6399  1.1588
 3132SOL    HW214244   9.486   4.655   8.005  1.1098  0.5347 -0.6695
 3133SOL     OW14245   2.192   1.718   6.336 -0.0533  0.2226  0.2581
 3133SOL    HW114246   2.208   1.691   6.427 -1.4179 -0.9138  0.2085
 3133SOL    HW214247   2.231   1.805   6.329 -0.8889  0.8071  2.2684
 3134SOL     OW14248   3.159   4.373   9.240 -0.0556 -0.1725  0.1486
 3134SOL    HW114249   3.182   4.400   9.329 -0.6346  0.8889 -0.0145
 3134SOL    HW214250   3.209   4.293   9.226  0.7026  0.1124  1.1254
 3135SOL     OW14251   9.651   5.545   0.298  0.0707  0.4250  0.7764
 3135SOL    HW114252   9.623   5.464   0.339  0.4162  1.3101  2.8926
 3135SOL    HW214253   9.665   5.605   0.371 -2.2424  3.0908 -0.7459
 3136SOL     OW14254   0.771   5.987   8.932  0.9343 -0.3259  0.0129
 3136SOL    HW114255   0.782   6.073   8.891  0.4399  0.4467  1.4200
 3136SOL    HW214256   0.813   5.996   9.018  1.3788 -1.6807 -0.0311
 3137SOL     OW14257   1.752   4.432   8.355 -0.0055  0.0034 -0.1121
 3137SOL    HW114258   1.691   4.506   8.357  0.5287  0.4615  2.4520
 3137SOL    HW214259   1.699   4.358   8.328 -0.7648  1.1046 -1.8118
 3138SOL     OW14260   8.512   5.993   9.324  0.2895 -0.2614 -0.1092
 3138SOL    HW114261   8.423   5.961   9.339  0.7100 -1.0269  0.9145
 3138SOL    HW214262   8.518   6.072   9.378 -0.5867  1.3522 -2.2449
 3139SOL     OW14263   1.013   5.116   9.517 -0.0587 -0.2136 -0.4089
 3139SOL    HW114264   0.995   5.177   9.589  0.7554  1.7165 -1.7335
 3139SOL    HW214265   0.927   5.091   9.485 -0.4247  0.3829  0.0793
 3140SOL     OW14266   0.584   5.991   1.974 -0.7756  0.0789 -0.3695
 3140SOL    HW114267   0.531   6.069   1.992  0.2147  0.9066 -0.9262
 3140SOL    HW214268   0.646   5.987   2.047 -0.2515  0.3366 -0.7922
 3141SOL     OW14269   1.340   5.881   0.275 -0.1435 -0.3627  0.4071
 3141SOL    HW114270   1.323   5.920   0.361 -0.7599 -0.0759  0.1598
 3141SOL    HW214271   1.374   5.953   0.222 -1.4756 -0.0965 -0.1103
 3142SOL     OW14272   9.051   4.037   5.936 -0.0140 -0.1313 -0.5626
 3142SOL    HW114273   9.025   4.032   6.027  0.6191 -0.7969 -0.4070
 3142SOL    HW214274   9.145   4.058   5.939  0.7628 -3.1494 -0.9526
 3143SOL     OW14275   1.394   4.830   7.180  0.1468 -0.1329  0.2569
 3143SOL    HW114276   1.351   4.840   7.265  0.7712  0.1938  0.5429
 3143SOL    HW214277   1.481   4.796   7.201  0.4109  0.2303 -0.2289
 3144SOL     OW14278   1.792   5.667   5.963 -0.2314 -0.0638  0.4692
 3144SOL    HW114279   1.730   5.731   5.930  0.1349  0.1855  0.2558
 3144SOL    HW214280   1.850   5.650   5.889 -0.5172 -0.8813  0.4220
 3145SOL     OW14281   1.942   3.773   7.632 -0.2971 -0.2752  0.6024
 3145SOL    HW114282   1.971   3.800   7.545 -2.4720 -0.1935 -0.1462
 3145SOL    HW214283   1.904   3.686   7.620 -0.4687 -0.3384  1.5009
 3146SOL     OW14284   1.667   3.443   6.398 -0.0109 -0.4155  0.5608
 3146SOL    HW114285   1.630   3.507   6.459 -0.2812  0.9298 -0.9555
 3146SOL    HW214286   1.595   3.422   6.339  0.3827 -1.3167  0.3819
 3147SOL     OW14287   9.506   3.526   6.529 -0.1192 -0.1281  0.0192
 3147SOL    HW114288   9.581   3.476   6.561 -0.5241 -0.8317 -0.1027
 3147SOL    HW214289   9.543   3.608   6.498  0.3619  0.3027  1.6560
 3148SOL     OW14290   0.649   3.163   9.269 -0.1975  0.3967  0.5140
 3148SOL    HW114291   0.597   3.225   9.218  0.0199  0.1657  0.0108
 3148SOL    HW214292   0.697   3.218   9.332 -0.7274  0.6479  0.7051
 3149SOL     OW14293   1.541   1.715   0.848  0.1652  0.3349  0.8437
 3149SOL    HW114294   1.458   1.755   0.820 -0.4148 -0.8170  0.8831
 3149SOL    HW214295   1.518   1.658   0.921  0.6388 -1.4918 -0.3575
 3150SOL     OW14296   6.406   4.646   8.730  0.2909  0.0249  0.2968
 3150SOL    HW114297   6.430   4.665   8.640 -1.0343  2.3756  0.3613
 3150SOL    HW214298   6.310   4.641   8.729  0.2900 -0.6189  1.4552
 3151SOL     OW14299   9.168   6.520   8.316  0.3356  0.3531  0.1621
 3151SOL    HW114300   9.125   6.500   8.399 -0.0607 -0.8317 -0.3111
 3151SOL    HW214301   9.100   6.564   8.264  0.6349  1.2524  0.5097
 3152SOL     OW14302   8.780   7.565   7.305  0.2464  0.2429 -0.0094
 3152SOL    HW114303   8.849   7.626   7.332 -0.7035  0.6359  1.7015
 3152SOL    HW214304   8.826   7.488   7.274  1.4632  0.9277  0.0534
 3153SOL     OW14305   0.277   4.112   8.352  0.0533 -0.2841  0.0001
 3153SOL    HW114306   0.192   4.090   8.314  0.3861 -0.7824 -0.4702
 3153SOL    HW214307   0.341   4.088   8.285  0.4596  2.4191 -0.7122
 3154SOL     OW14308   3.936   7.072   6.716  0.6995  0.1335 -0.0551
 3154SOL    HW114309   4.009   7.134   6.717  0.9602 -0.0787  2.4212
 3154SOL    HW214310   3.905   7.071   6.807 -2.2227 -0.0271 -0.9375
 3155SOL     OW14311   0.620   3.873   9.175 -0.4241  0.0534 -0.3878
 3155SOL    HW114312   0.597   3.907   9.261 -1.2749  0.8338 -0.9057
 3155SOL    HW214313   0.630   3.779   9.188  0.6000  0.2968  0.7895
 3156SOL     OW14314   1.602   4.238   8.008 -0.4582 -0.1665  0.5372
 3156SOL    HW114315   1.639   4.209   8.091 -0.5489 -1.1696  0.2410
 3156SOL    HW214316   1.516   4.273   8.032 -0.5564 -0.6075  0.8489
 3157SOL     OW14317   9.660   4.105   9.552 -0.0928  0.5268  0.3718
 3157SOL    HW114318   9.670   4.009   9.552 -0.3200  0.4949  1.0379
 3157SOL    HW214319   9.576   4.119   9.508  0.0899  0.4420 -0.0098
 3158SOL     OW14320   1.457   3.917   0.048  0.4410  0.1722 -0.3234
 3158SOL    HW114321   1.460   3.829   0.083  0.5066 -0.6067 -2.1682
 3158SOL    HW214322   1.438   3.973   0.123  1.8056 -1.2452  1.1354
 3159SOL     OW14323   1.572   4.139   9.814 -0.5013 -1.0399 -0.5531
 3159SOL    HW114324   1.548   4.050   9.838 -0.1507 -1.3910 -1.4842
 3159SOL    HW214325   1.571   4.140   9.719  2.4319 -0.8749 -0.6549
 3160SOL     OW14326   8.409   3.467   5.650 -1.1923 -0.7903  0.0569
 3160SOL    HW114327   8.318   3.469   5.681 -1.1371  0.0430  0.1891
 3160SOL    HW214328   8.415   3.542   5.590 -0.1516  0.2151  1.3491
 3161SOL     OW14329   2.223   5.262   7.991 -0.4786  0.4973 -0.1349
 3161SOL    HW114330   2.215   5.356   7.977 -1.9608  0.7702  2.0546
 3161SOL    HW214331   2.149   5.239   8.048  1.2633 -1.5179  1.5079
 3162SOL     OW14332   8.903   6.271   7.818 -0.2835  0.3706  0.2277
 3162SOL    HW114333   8.991   6.263   7.855 -0.5111  1.5586  1.0764
 3162SOL    HW214334   8.916   6.315   7.734 -0.0259  0.1664  0.1609
 3163SOL     OW14335   0.369   4.673   6.442 -0.2461  0.3666  0.1114
 3163SOL    HW114336   0.305   4.601   6.438 -2.3087  1.8957  2.5340
 3163SOL    HW214337   0.317   4.752   6.429  1.3654  1.6162  0.8751
 3164SOL     OW14338   1.368   6.302   6.984 -0.0100 -0.0795 -0.1526
 3164SOL    HW114339   1.383   6.353   6.904  1.9429 -1.0355 -0.4619
 3164SOL    HW214340   1.334   6.218   6.952 -1.7228  0.4145  0.2479
 3165SOL     OW14341   3.434   4.503   7.173 -0.2208 -0.0930  0.2651
 3165SOL    HW114342   3.428   4.477   7.081 -0.3119 -1.7648  0.7110
 3165SOL    HW214343   3.391   4.432   7.221 -1.7487  1.5788  1.5031
 3166SOL     OW14344   1.037   4.310   8.634 -0.1423 -0.0625  0.0616
 3166SOL    HW114345   0.983   4.246   8.681 -1.2618 -0.0894 -1.1997
 3166SOL    HW214346   1.028   4.286   8.542 -0.3595  1.7311 -0.4274
 3167SOL     OW14347   1.159   3.909   9.379 -0.0108 -0.4623 -0.9886
 3167SOL    HW114348   1.088   3.880   9.321 -0.1557 -0.3262 -0.8824
 3167SOL    HW214349   1.193   3.828   9.418 -2.7538 -0.3503  2.0465
 3168SOL     OW14350   9.841   4.425   6.624  0.0585  0.6818 -0.5157
 3168SOL    HW114351   9.769   4.366   6.647 -0.8297  1.0200 -2.2298
 3168SOL    HW214352   9.919   4.370   6.623 -0.8929 -0.8067 -3.1034
 3169SOL     OW14353   3.195   3.525   0.658 -0.2500  0.3240 -0.4073
 3169SOL    HW114354   3.115   3.512   0.709  0.1455  0.4363  0.2538
 3169SOL    HW214355   3.195   3.454   0.594  0.3404 -1.1334  1.1570
 3170SOL     OW14356   1.551   5.295   6.572 -0.5585  0.3893 -0.0762
 3170SOL    HW114357   1.495   5.363   6.607 -0.1028  0.5044  0.4435
 3170SOL    HW214358   1.636   5.338   6.558  0.1777 -0.4033  1.6586
 3171SOL     OW14359   1.414   3.432   0.031 -0.1608  0.6060  0.1070
 3171SOL    HW114360   1.497   3.452   0.074 -0.3516 -0.6987  1.1527
 3171SOL    HW214361   1.432   3.354  -0.021 -0.8335 -0.0270  0.7848
 3172SOL     OW14362   1.228   5.038   7.059  0.2697 -0.8955 -0.0793
 3172SOL    HW114363   1.301   5.002   7.109 -0.7809 -0.9546  1.4784
 3172SOL    HW214364   1.177   4.962   7.031  1.1055 -0.8947 -1.7117
 3173SOL     OW14365   3.823   3.678   0.221 -0.3261  0.2179 -0.1516
 3173SOL    HW114366   3.862   3.756   0.181 -1.5771  0.9613  0.0634
 3173SOL    HW214367   3.734   3.675   0.186  0.0053 -1.7059 -0.9695
 3174SOL     OW14368   1.932   2.099   8.703  0.9820  0.0556 -0.3220
 3174SOL    HW114369   1.960   2.085   8.612  0.1297  0.3725 -0.6408
 3174SOL    HW214370   1.881   2.021   8.724  0.0029  0.6040 -0.5963
 3175SOL     OW14371   0.389   6.421   9.584  0.0890  0.4934  0.3374
 3175SOL    HW114372   0.340   6.361   9.527 -1.2786  1.5968  0.2715
 3175SOL    HW214373   0.340   6.503   9.578  0.5156  0.9311  2.2921
 3176SOL     OW14374   1.494   3.592   6.985  0.0037  0.2529  0.7405
 3176SOL    HW114375   1.409   3.584   6.942  0.5893 -0.6261 -0.2961
 3176SOL    HW214376   1.479   3.654   7.057 -1.3986  0.4420  0.3088
 3177SOL     OW14377   1.088   2.162   7.281  0.2279 -0.1341  0.3476
 3177SOL    HW114378   0.995   2.150   7.297 -0.0196 -0.9454 -1.4456
 3177SOL    HW214379   1.097   2.255   7.258 -0.6242 -0.5787 -2.0777
 3178SOL     OW14380   1.320   3.224   7.235  0.1028  0.4854 -0.1548
 3178SOL    HW114381   1.261   3.275   7.179 -1.0845  0.0820  0.6879
 3178SOL    HW214382   1.389   3.286   7.260 -1.3350  1.7509  0.9015
 3179SOL     OW14383   1.401   3.800   8.282  0.4497 -0.5273  0.1893
 3179SOL    HW114384   1.330   3.747   8.246  0.7000 -0.3364 -0.5963
 3179SOL    HW214385   1.438   3.746   8.352  0.2074 -1.0670 -0.0960
 3180SOL     OW14386   0.644   3.789   6.746 -0.5551 -0.1082 -0.2271
 3180SOL    HW114387   0.701   3.731   6.797 -0.0252 -0.0099 -0.6968
 3180SOL    HW214388   0.627   3.741   6.665  0.2414  0.5561 -0.8076
 3181SOL     OW14389   2.604   4.934   6.388 -0.0744  0.1485  0.4980
 3181SOL    HW114390   2.605   4.859   6.328 -0.6471 -0.5262  1.3074
 3181SOL    HW214391   2.673   4.915   6.451 -0.1197  0.3784  0.6163
 3182SOL     OW14392   3.424   4.771   8.370  0.1312 -0.1988 -0.2364
 3182SOL    HW114393   3.366   4.801   8.300  0.4470 -0.8117 -0.7748
 3182SOL    HW214394   3.408   4.831   8.442 -1.7834 -0.8301 -0.0702
 3183SOL     OW14395   0.673   4.948   7.819  0.4381 -0.7752  0.1017
 3183SOL    HW114396   0.593   4.997   7.841 -1.2912 -2.4585 -2.0645
 3183SOL    HW214397   0.645   4.857   7.815  2.7067 -1.5300  0.1217
 3184SOL     OW14398   0.237   4.389   8.297 -0.4058 -0.0230  0.2796
 3184SOL    HW114399   0.257   4.295   8.304 -2.3645 -0.3715  2.1858
 3184SOL    HW214400   0.179   4.407   8.371 -3.0150  1.8970 -2.0243
 3185SOL     OW14401   1.101   2.787   8.762  0.4545 -0.0218  0.2121
 3185SOL    HW114402   1.057   2.727   8.822  0.7736  0.5052  0.9837
 3185SOL    HW214403   1.093   2.745   8.676 -2.8672  0.7172  0.0198
 3186SOL     OW14404   9.624   4.333   7.975  0.5954 -0.0847 -0.3308
 3186SOL    HW114405   9.551   4.363   8.029  0.4147 -0.8701 -0.1208
 3186SOL    HW214406   9.701   4.342   8.032  0.8891  1.9134 -0.9595
 3187SOL     OW14407   1.159   4.003   8.737 -1.2774  0.3554 -0.7164
 3187SOL    HW114408   1.109   4.015   8.817 -1.1512  0.5021 -0.6594
 3187SOL    HW214409   1.094   3.978   8.672 -1.5587  1.3342 -0.8374
 3188SOL     OW14410   1.112   5.390   8.246  0.7290  0.0553 -0.4483
 3188SOL    HW114411   1.044   5.432   8.194  2.3354 -0.8690 -3.5434
 3188SOL    HW214412   1.125   5.305   8.203  3.7358  0.1650  0.0905
 3189SOL     OW14413   2.547   5.162   7.390  0.4087  0.3417 -0.0466
 3189SOL    HW114414   2.573   5.095   7.452 -0.4808 -2.5039 -2.4877
 3189SOL    HW214415   2.613   5.231   7.399  0.7050 -0.2466  3.4063
 3190SOL     OW14416   3.948   2.530   8.373  0.1343  0.2167  0.2218
 3190SOL    HW114417   3.996   2.492   8.299  0.1652 -0.2171  0.4624
 3190SOL    HW214418   3.935   2.457   8.433  0.5827  0.6765  0.8922
 3191SOL     OW14419   8.663   4.678   7.821 -0.2339 -0.3777  0.1344
 3191SOL    HW114420   8.715   4.604   7.852  0.1949  0.2930  1.0534
 3191SOL    HW214421   8.623   4.647   7.740  1.1868 -1.0756 -0.3210
 3192SOL     OW14422   1.094   7.721   7.275 -0.0819  0.1565  0.1359
 3192SOL    HW114423   1.047   7.638   7.264  0.6375 -0.3616  0.8184
 3192SOL    HW214424   1.046   7.767   7.344 -0.3386  0.2037 -0.0721
 3193SOL     OW14425   1.225   2.336   9.042 -0.0019 -0.0472 -0.2016
 3193SOL    HW114426   1.277   2.413   9.066  0.1777  0.0328 -0.8205
 3193SOL    HW214427   1.136   2.357   9.071 -0.1455  0.7942 -1.1525
 3194SOL     OW14428   4.366   4.909   9.763  0.3456  0.6666 -0.0339
 3194SOL    HW114429   4.379   4.975   9.696 -1.4043 -0.4551 -1.5738
 3194SOL    HW214430   4.337   4.958   9.840  2.2974  1.9652 -0.0451
 3195SOL     OW14431   2.618   5.259   8.366  0.2541 -0.2299 -0.3030
 3195SOL    HW114432   2.545   5.321   8.356 -0.0301 -0.3215  0.9433
 3195SOL    HW214433   2.579   5.174   8.346  0.6250 -0.0450 -1.9396
 3196SOL     OW14434   2.162   5.832   0.146 -0.0012 -0.0183  0.2365
 3196SOL    HW114435   2.114   5.758   0.109 -1.3594  1.4303 -1.0215
 3196SOL    HW214436   2.180   5.889   0.071  2.4485  0.1980  0.9038
 3197SOL     OW14437   0.857   4.891   6.408 -0.4989 -0.5191  0.3011
 3197SOL    HW114438   0.763   4.875   6.415 -0.4320 -0.5384  1.3256
 3197SOL    HW214439   0.873   4.967   6.464  0.3445 -1.5834  1.5683
 3198SOL     OW14440   2.563   4.065   7.697  0.1373  0.1592  0.0165
 3198SOL    HW114441   2.497   4.125   7.730 -0.0516 -0.4574  0.8067
 3198SOL    HW214442   2.534   4.042   7.609 -0.0175  0.8792 -0.1211
 3199SOL     OW14443   1.394   2.693   8.424 -0.1103  0.1491  0.5369
 3199SOL    HW114444   1.462   2.627   8.409 -0.6514 -0.4817  0.7572
 3199SOL    HW214445   1.417   2.733   8.508  0.4176  0.4940  0.2317
 3200SOL     OW14446   3.096   4.151   8.687 -0.3624  0.1670 -0.6393
 3200SOL    HW114447   3.111   4.099   8.608 -2.7410 -0.7004 -0.5896
 3200SOL    HW214448   3.129   4.238   8.665 -0.4459 -0.2085 -2.3688
 3201SOL     OW14449   9.548   6.225   8.751 -0.9516  0.2322  0.0933
 3201SOL    HW114450   9.486   6.267   8.811 -0.0172 -0.9532  1.9866
 3201SOL    HW214451   9.629   6.276   8.762 -1.0088  0.5509 -0.8641
 3202SOL     OW14452   2.643   4.783   9.079  0.5847  0.4092  0.1293
 3202SOL    HW114453   2.620   4.809   9.169  2.1827  0.2108  0.6337
 3202SOL    HW214454   2.683   4.862   9.042  0.5783  0.2738 -0.1638
 3203SOL     OW14455   2.028   3.618   0.391  0.1078 -0.3264  0.0406
 3203SOL    HW114456   2.120   3.614   0.418  0.2967  1.6191 -0.1671
 3203SOL    HW214457   2.028   3.584   0.301  0.7203  0.1516 -0.1462
 3204SOL     OW14458   9.664   3.965   7.707 -0.0487 -0.1510  0.9534
 3204SOL    HW114459   9.677   3.907   7.632  0.7029 -1.0931  1.7755
 3204SOL    HW214460   9.710   3.921   7.779 -0.4938  0.8777  1.8924
 3205SOL     OW14461   8.499   3.091   9.290 -0.7740 -0.5243 -0.0336
 3205SOL    HW114462   8.424   3.089   9.231 -0.0595 -1.1695 -0.9450
 3205SOL    HW214463   8.501   3.005   9.330 -0.9893 -0.2384  0.5922
 3206SOL     OW14464   3.271   3.865   8.122  0.0605 -0.3267  0.0531
 3206SOL    HW114465   3.303   3.838   8.036 -0.2723  2.2728 -0.9918
 3206SOL    HW214466   3.346   3.855   8.180 -0.0109 -3.1515 -0.2363
 3207SOL     OW14467   0.028   5.704   8.253  0.1467 -0.3037 -0.0651
 3207SOL    HW114468   0.121   5.726   8.254  0.0295  0.3285  2.0657
 3207SOL    HW214469  -0.017   5.787   8.266 -0.6936 -0.7026 -0.3092
 3208SOL     OW14470   0.162   3.966   6.815 -0.8950  0.3258  0.0169
 3208SOL    HW114471   0.107   3.928   6.747  0.2885  0.0276 -0.8086
 3208SOL    HW214472   0.129   3.930   6.897 -2.4093  0.7796 -0.3755
 3209SOL     OW14473   0.489   3.938   7.492 -0.3429 -0.1930  0.2668
 3209SOL    HW114474   0.446   4.007   7.543  0.9499 -0.2185  1.4400
 3209SOL    HW214475   0.476   3.859   7.543 -0.4936 -0.5388 -0.3042
 3210SOL     OW14476   1.046   5.319   2.169  0.3108 -0.7253  0.5641
 3210SOL    HW114477   1.125   5.265   2.165  1.4720  0.8607  1.2858
 3210SOL    HW214478   1.025   5.337   2.077  0.6751 -1.3089  0.3606
 3211SOL     OW14479   1.404   4.329   0.420  0.9134 -0.1263 -0.7696
 3211SOL    HW114480   1.474   4.352   0.481  1.2371  2.0649 -1.8911
 3211SOL    HW214481   1.377   4.412   0.381 -1.3657 -1.0841 -1.4134
 3212SOL     OW14482   2.121   5.540   7.986  0.5216 -0.4907  0.7664
 3212SOL    HW114483   2.068   5.619   7.976  2.2969  0.4771 -2.3717
 3212SOL    HW214484   2.068   5.483   8.042 -1.9349  1.9409  1.1448
 3213SOL     OW14485   8.123   4.133   9.374  0.1785  0.6163 -0.1094
 3213SOL    HW114486   8.065   4.200   9.409  0.6548  1.8252 -1.5498
 3213SOL    HW214487   8.073   4.052   9.383  0.0259  0.9031  2.6988
 3214SOL     OW14488   9.831   3.044   0.580  0.2316  0.2122 -0.0019
 3214SOL    HW114489   9.865   2.965   0.538 -1.9220 -0.1105 -1.2950
 3214SOL    HW214490   9.816   3.018   0.671 -0.9441 -1.0709 -0.5282
 3215SOL     OW14491   0.023   2.173   7.309  0.0318  0.1309 -0.1850
 3215SOL    HW114492   0.003   2.245   7.250  1.9091 -0.0126 -1.0574
 3215SOL    HW214493   0.063   2.106   7.253  0.1662 -0.7705  0.9434
 3216SOL     OW14494   9.027   3.421   8.602  0.5595  0.5294  0.2214
 3216SOL    HW114495   9.032   3.450   8.694 -1.5205  1.1351  0.1935
 3216SOL    HW214496   8.937   3.440   8.576  0.5102 -1.5493 -1.3399
 3217SOL     OW14497   7.315   3.078   9.680  0.5211 -0.0510 -0.9488
 3217SOL    HW114498   7.298   3.118   9.766  2.1138  1.4406 -1.2801
 3217SOL    HW214499   7.229   3.051   9.649 -0.6528  2.8038 -0.5021
 3218SOL     OW14500   1.413   4.306   1.004 -0.9040 -1.0827  0.0075
 3218SOL    HW114501   1.331   4.312   1.053 -0.9872 -1.8640 -0.0224
 3218SOL    HW214502   1.479   4.288   1.071 -0.4643  1.1551  0.2589
 3219SOL     OW14503   1.282   4.425   2.456 -0.0147  0.1646 -0.4522
 3219SOL    HW114504   1.287   4.400   2.363 -0.0470 -2.4084  0.1684
 3219SOL    HW214505   1.342   4.365   2.500 -0.2967  1.0836  1.2653
 3220SOL     OW14506   0.463   2.504   7.540 -0.0622  0.0469  0.4538
 3220SOL    HW114507   0.381   2.455   7.546  1.5029 -2.8589  0.0797
 3220SOL    HW214508   0.461   2.542   7.452 -1.3149  0.6781  0.7328
 3221SOL     OW14509   1.083   4.518   8.953  0.1554 -0.2954 -0.3056
 3221SOL    HW114510   1.174   4.505   8.978  0.0228 -1.5936 -0.4250
 3221SOL    HW214511   1.037   4.441   8.988 -0.9245  0.3971 -0.1247
 3222SOL     OW14512   0.778   2.201   9.444 -0.3444 -0.6746 -0.0965
 3222SOL    HW114513   0.689   2.220   9.417  0.0492  0.8109 -0.4430
 3222SOL    HW214514   0.773   2.189   9.539 -0.8489 -0.1889 -0.0622
 3223SOL     OW14515   1.155   4.469   8.224 -0.1811 -0.1471 -0.2139
 3223SOL    HW114516   1.102   4.391   8.209 -1.0476  0.3588  0.1182
 3223SOL    HW214517   1.101   4.541   8.191 -0.1490  0.4909  1.0692
 3224SOL     OW14518   0.721   6.053   7.904  0.1406  0.5984 -0.1917
 3224SOL    HW114519   0.793   6.113   7.884 -0.2596  1.2282  0.2364
 3224SOL    HW214520   0.702   6.009   7.821  0.5956  0.8910 -0.4519
 3225SOL     OW14521   4.634   4.829   9.215  0.0015  0.4393 -0.1698
 3225SOL    HW114522   4.676   4.908   9.249  0.1999 -0.5356  1.9841
 3225SOL    HW214523   4.561   4.861   9.162  1.8837  2.1184 -1.9394
 3226SOL     OW14524   2.193   4.596   7.817 -0.0351 -0.1853  0.3835
 3226SOL    HW114525   2.252   4.666   7.789  0.4459  0.2737  2.4020
 3226SOL    HW214526   2.108   4.621   7.781 -0.2780  2.4514  2.4555
 3227SOL     OW14527   3.665   5.056   7.507 -0.3470  0.2881 -0.0643
 3227SOL    HW114528   3.637   4.998   7.436  0.8231 -0.3181 -0.0562
 3227SOL    HW214529   3.758   5.037   7.518  0.0191  2.0294  0.0862
 3228SOL     OW14530   7.715   3.130   8.948  0.6071  0.4883 -0.7648
 3228SOL    HW114531   7.731   3.045   8.907  1.1982 -0.4580  1.2818
 3228SOL    HW214532   7.703   3.191   8.875 -1.4135 -1.6061 -2.2981
 3229SOL     OW14533   7.287   2.774   6.366  0.0540  0.2794  0.2008
 3229SOL    HW114534   7.361   2.718   6.391 -1.0382 -1.2852  0.0494
 3229SOL    HW214535   7.325   2.838   6.306  0.9399 -1.7891 -1.5765
 3230SOL     OW14536   9.171   3.564   0.752  0.4811  0.2208 -0.0652
 3230SOL    HW114537   9.175   3.557   0.848  2.5933  0.4907 -0.0937
 3230SOL    HW214538   9.169   3.473   0.722  1.3264  0.1040  0.2109
 3231SOL     OW14539   0.415   3.386   7.249 -0.1786 -0.2874 -0.0471
 3231SOL    HW114540   0.334   3.335   7.243 -1.3955  1.5816 -0.2357
 3231SOL    HW214541   0.438   3.383   7.341 -1.6159  0.7906  0.3934
 3232SOL     OW14542   8.886   6.436   7.550  0.3114  0.6577  0.2195
 3232SOL    HW114543   8.899   6.478   7.466  0.2101 -0.1890 -0.2325
 3232SOL    HW214544   8.973   6.405   7.575 -0.0673 -1.3989 -0.8453
 3233SOL     OW14545   1.285   4.281   8.735 -0.3601 -0.2040 -0.7769
 3233SOL    HW114546   1.202   4.302   8.694 -0.3714 -1.2272 -1.3089
 3233SOL    HW214547   1.283   4.186   8.747 -0.8032  0.0983  2.5633
 3234SOL     OW14548   8.725   4.911   8.252  0.0051 -0.0602 -0.0571
 3234SOL    HW114549   8.751   4.927   8.161  0.4749  0.5520  0.1816
 3234SOL    HW214550   8.644   4.961   8.263 -1.3838 -2.0053 -0.8146
 3235SOL     OW14551   8.647   4.312   9.090 -0.2216  0.0775 -0.1362
 3235SOL    HW114552   8.561   4.276   9.070  0.0519 -1.1428  0.7620
 3235SOL    HW214553   8.670   4.364   9.013 -2.2791  1.4576  0.1244
 3236SOL     OW14554   1.426   5.518   7.797 -0.8774  0.3949 -0.2820
 3236SOL    HW114555   1.452   5.509   7.706  0.3515 -0.3654  0.1076
 3236SOL    HW214556   1.356   5.454   7.809 -0.2486 -0.3418 -0.4271
 3237SOL     OW14557   8.019   3.990   7.767  0.4330  0.1755 -0.1136
 3237SOL    HW114558   8.070   4.039   7.830 -0.9965  0.7327  0.6680
 3237SOL    HW214559   7.929   3.994   7.800 -0.0474 -1.2496 -1.1068
 3238SOL     OW14560   2.397   5.011   0.021 -0.5475  0.3524 -0.0168
 3238SOL    HW114561   2.492   5.006   0.028 -0.4989 -0.4541 -1.1046
 3238SOL    HW214562   2.365   4.943   0.080 -0.3823 -0.5548 -0.9440
 3239SOL     OW14563   2.664   3.849   0.215 -0.0038 -0.4013 -0.5291
 3239SOL    HW114564   2.621   3.852   0.130 -0.2611  0.8076 -0.3735
 3239SOL    HW214565   2.611   3.906   0.271  0.9400 -0.0786  0.0644
 3240SOL     OW14566   1.574   3.217   8.925  0.9441  0.0380  0.8325
 3240SOL    HW114567   1.667   3.238   8.916  1.3410 -1.5156  0.9583
 3240SOL    HW214568   1.561   3.205   9.019  0.2536  1.6769  0.9754
 3241SOL     OW14569   0.956   3.956   7.271  0.0279 -0.2861 -0.9296
 3241SOL    HW114570   0.965   3.927   7.180  1.6113  0.7592 -1.1502
 3241SOL    HW214571   1.043   3.945   7.309 -0.3220  0.3853  0.1187
 3242SOL     OW14572   9.154   3.810   8.417 -0.0690  0.1373  0.5946
 3242SOL    HW114573   9.195   3.786   8.500 -0.4101 -0.5812  0.5707
 3242SOL    HW214574   9.228   3.830   8.359  0.2697 -1.0429  0.5787
 3243SOL     OW14575   2.505   4.611   1.143  0.6931  0.2820 -0.0507
 3243SOL    HW114576   2.414   4.640   1.149  1.2454  1.8036  1.6149
 3243SOL    HW214577   2.524   4.615   1.049 -1.6743 -2.6110 -0.8086
 3244SOL     OW14578   1.760   4.456   8.042 -0.3479  0.3715  0.2082
 3244SOL    HW114579   1.831   4.409   7.999 -0.0132  1.6867 -0.7532
 3244SOL    HW214580   1.680   4.414   8.012 -0.0155 -1.8251  2.1287
 3245SOL     OW14581   9.427   3.595   9.559  0.1179  0.1206 -0.2136
 3245SOL    HW114582   9.521   3.577   9.565 -0.0438 -0.2755  1.9302
 3245SOL    HW214583   9.413   3.624   9.469  2.2968  0.2314 -0.5499
 3246SOL     OW14584   4.095   2.152   7.411 -0.0753 -0.4663 -0.1302
 3246SOL    HW114585   4.161   2.085   7.393  0.9223  0.1053  1.2329
 3246SOL    HW214586   4.018   2.103   7.441  0.3462 -1.0453  0.0093
 3247SOL     OW14587   1.973   5.375   8.124 -0.0252  0.2228  0.2985
 3247SOL    HW114588   1.932   5.290   8.106  0.1620  0.2695 -0.3547
 3247SOL    HW214589   1.961   5.387   8.218  0.0163 -0.5643  0.4141
 3248SOL     OW14590   0.712   5.026   8.093 -0.2160  0.4509 -0.0122
 3248SOL    HW114591   0.685   4.934   8.095  0.0072  0.3743 -0.3100
 3248SOL    HW214592   0.655   5.066   8.027  0.5798  0.2242 -0.8562
 3249SOL     OW14593   8.845   3.431   8.055 -0.2514 -0.2280  0.1919
 3249SOL    HW114594   8.900   3.494   8.101 -0.2261 -0.0645 -0.0561
 3249SOL    HW214595   8.896   3.350   8.054 -0.7441 -0.5719  1.4702
 3250SOL     OW14596   9.304   3.248   9.551 -0.1031 -0.2014 -0.7522
 3250SOL    HW114597   9.241   3.261   9.480  0.8721  2.6053 -1.2372
 3250SOL    HW214598   9.253   3.255   9.631 -0.5937  1.0420 -1.1550
 3251SOL     OW14599   2.210   4.385   0.419 -0.1047  0.3027 -0.1057
 3251SOL    HW114600   2.243   4.435   0.345  3.2443  0.0980  1.0944
 3251SOL    HW214601   2.218   4.294   0.391 -0.9572  0.2675 -0.2643
 3252SOL     OW14602   4.231   4.155   7.194 -0.0974 -0.4733  0.0320
 3252SOL    HW114603   4.231   4.134   7.287 -1.0431 -1.3399 -0.1469
 3252SOL    HW214604   4.222   4.251   7.190  1.1541 -0.2972  0.8232
 3253SOL     OW14605   0.211   5.280   2.006  0.1835 -0.1619 -0.4592
 3253SOL    HW114606   0.228   5.232   1.924  0.9990 -0.2364 -0.2580
 3253SOL    HW214607   0.187   5.368   1.977 -0.1990 -0.3774 -0.7998
 3254SOL     OW14608   5.767   4.554   9.019  0.3926 -0.2164 -0.7122
 3254SOL    HW114609   5.773   4.637   9.064 -3.5882 -0.6593  1.1117
 3254SOL    HW214610   5.766   4.577   8.926 -0.7573  1.8310 -0.2492
 3255SOL     OW14611   0.790   3.749   7.023 -0.5181 -0.1544  0.1494
 3255SOL    HW114612   0.816   3.658   7.027 -0.4666 -0.1100  0.9620
 3255SOL    HW214613   0.871   3.797   7.004 -0.5082 -0.2535 -0.0621
 3256SOL     OW14614   9.561   4.831   9.149 -0.0567  0.2282  0.3074
 3256SOL    HW114615   9.471   4.864   9.153 -0.8549 -1.6768 -0.7198
 3256SOL    HW214616   9.566   4.764   9.218  0.6429  0.4449  0.4775
 3257SOL     OW14617   9.369   5.306   8.791 -0.1742  0.4212  0.1781
 3257SOL    HW114618   9.461   5.304   8.764 -0.2184 -0.2777  0.0660
 3257SOL    HW214619   9.328   5.371   8.734 -0.3238 -1.2095 -1.6427
 3258SOL     OW14620   2.140   5.011   9.749 -0.0592 -0.0037  0.0035
 3258SOL    HW114621   2.102   4.930   9.782 -0.9695  0.3212 -0.1972
 3258SOL    HW214622   2.224   5.019   9.794 -0.6844 -0.2283  1.2606
 3259SOL     OW14623   7.277   4.692   6.206 -0.6663 -0.4775 -0.2247
 3259SOL    HW114624   7.261   4.786   6.206 -2.3119 -0.7287  0.5766
 3259SOL    HW214625   7.240   4.662   6.123  2.1614 -0.1287 -1.7359
 3260SOL     OW14626   0.037   5.442   8.839 -0.3935 -0.3607 -0.3832
 3260SOL    HW114627  -0.004   5.372   8.889  1.2046 -0.2283  1.1856
 3260SOL    HW214628   0.093   5.397   8.776 -0.6027 -0.4970 -0.4745
 3261SOL     OW14629   3.710   4.516   8.220 -0.0022 -0.4094  0.1290
 3261SOL    HW114630   3.717   4.436   8.168  0.1261  0.2707 -0.9255
 3261SOL    HW214631   3.801   4.542   8.236  0.1601 -2.6302  4.0009
 3262SOL     OW14632   0.698   5.173   9.459 -0.4390  0.1511  0.3662
 3262SOL    HW114633   0.634   5.234   9.423 -0.4137 -0.3946 -0.6592
 3262SOL    HW214634   0.656   5.087   9.454  0.0327 -0.0967  0.5113
 3263SOL     OW14635   1.525   3.992   8.126  0.0424 -0.2835 -0.3722
 3263SOL    HW114636   1.472   3.939   8.186 -0.8171 -0.0518 -0.9169
 3263SOL    HW214637   1.535   3.938   8.048  0.9281 -0.4734 -0.1367
 3264SOL     OW14638   1.589   5.637   5.330  0.3932  0.1718  0.1018
 3264SOL    HW114639   1.499   5.622   5.301  0.5399  1.0302 -0.8874
 3264SOL    HW214640   1.605   5.570   5.396 -0.5838 -0.7401 -0.5570
 3265SOL     OW14641   7.668   6.663   0.955 -0.4872 -0.0376 -0.1647
 3265SOL    HW114642   7.752   6.629   0.926 -1.7610 -1.9738 -1.8024
 3265SOL    HW214643   7.665   6.644   1.048  2.0964  2.8473  0.6654
 3266SOL     OW14644   8.848   4.299   0.238  0.6766  0.2742 -0.4124
 3266SOL    HW114645   8.888   4.338   0.316  2.9906 -2.8113  0.1605
 3266SOL    HW214646   8.797   4.225   0.272  0.4195 -0.1679 -1.7105
 3267SOL     OW14647   3.955   5.432   7.791  0.1812 -0.0042 -0.7188
 3267SOL    HW114648   4.027   5.434   7.729  1.6334 -1.7765  0.7780
 3267SOL    HW214649   3.929   5.340   7.795 -2.4466  0.6142 -1.4451
 3268SOL     OW14650   1.327   5.377   8.421 -0.2770 -0.2267  0.4180
 3268SOL    HW114651   1.262   5.389   8.351  1.3301  1.5698 -0.8736
 3268SOL    HW214652   1.408   5.356   8.374  0.5161 -0.4671  1.8525
 3269SOL     OW14653   0.999   4.690   8.152 -0.1031  0.0740  0.1358
 3269SOL    HW114654   1.018   4.775   8.192 -1.3364  1.5047 -2.1265
 3269SOL    HW214655   0.909   4.670   8.178 -0.0894 -0.1512  0.0148
 3270SOL     OW14656   1.941   3.726   0.918  0.4863  0.0527 -0.3781
 3270SOL    HW114657   1.908   3.811   0.886  1.7146  0.4876 -0.5306
 3270SOL    HW214658   2.004   3.699   0.851  0.2910 -0.8770 -0.1992
 3271SOL     OW14659   9.674   5.613   8.765  0.2389 -0.7023 -0.4355
 3271SOL    HW114660   9.745   5.563   8.804  0.8351 -0.2829 -0.9768
 3271SOL    HW214661   9.703   5.704   8.769  0.4853 -0.6682 -2.1701
 3272SOL     OW14662   2.955   4.609   5.515 -0.8371 -0.4731 -0.1157
 3272SOL    HW114663   2.912   4.609   5.429  1.4691 -1.1440 -1.3419
 3272SOL    HW214664   2.976   4.700   5.532  0.9613 -0.5873 -1.5144
 3273SOL     OW14665   0.151   4.015   5.906  0.0174 -0.9309 -0.3102
 3273SOL    HW114666   0.197   3.962   5.841  0.3850 -0.7396 -0.2068
 3273SOL    HW214667   0.211   4.087   5.927 -0.6646 -0.1949 -0.8034
 3274SOL     OW14668   1.514   1.892   6.162 -0.3596 -0.1017  0.2294
 3274SOL    HW114669   1.535   1.901   6.069 -1.1695 -0.7431 -0.0411
 3274SOL    HW214670   1.440   1.951   6.175  0.6298  1.0482  0.8185
 3275SOL     OW14671   9.272   2.936   6.936 -0.3221  0.4194  0.2921
 3275SOL    HW114672   9.257   2.967   7.025  0.2202 -1.0386  0.9233
 3275SOL    HW214673   9.359   2.969   6.913  0.1343 -0.3602  0.8529
 3276SOL     OW14674   9.780   6.596   9.638 -0.0602  0.1057 -0.0996
 3276SOL    HW114675   9.733   6.674   9.609  0.5896  0.1740 -0.9991
 3276SOL    HW214676   9.725   6.559   9.708 -1.3440  0.2975 -0.9740
 3277SOL     OW14677   8.580   3.698   9.086 -0.0587  0.5586  0.4957
 3277SOL    HW114678   8.508   3.699   9.149  0.2485 -3.1530  1.1506
 3277SOL    HW214679   8.566   3.618   9.035  2.3296  0.9564 -0.9312
 3278SOL     OW14680   0.545   4.405   7.731  0.7885  0.8332  0.6246
 3278SOL    HW114681   0.539   4.494   7.765  0.5691  0.6704  1.0247
 3278SOL    HW214682   0.637   4.395   7.706  0.8851  1.0689  0.8773
 3279SOL     OW14683   0.865   5.104   8.656  0.0893 -0.0818 -0.0754
 3279SOL    HW114684   0.921   5.138   8.586 -1.2998 -1.1881 -1.8134
 3279SOL    HW214685   0.886   5.010   8.660  0.4955  0.0433  1.3758
 3280SOL     OW14686   0.844   6.568   9.020 -0.5651 -0.3257  0.2361
 3280SOL    HW114687   0.835   6.607   9.106 -0.7770 -0.5327  0.3094
 3280SOL    HW214688   0.820   6.476   9.033 -1.4786 -0.1700 -0.2154
 3281SOL     OW14689   3.244   5.423   8.532 -0.2879 -0.3035  0.0988
 3281SOL    HW114690   3.170   5.473   8.499 -0.3646 -0.0972  0.5759
 3281SOL    HW214691   3.219   5.399   8.622  0.0535 -0.5706  0.1255
 3282SOL     OW14692   1.249   3.599   8.210 -0.4302  1.3612  0.1511
 3282SOL    HW114693   1.253   3.535   8.281 -2.4173  2.9845  1.8654
 3282SOL    HW214694   1.232   3.547   8.131  0.3616 -0.3845  1.0853
 3283SOL     OW14695   7.617   3.320   9.307 -0.1133 -0.2231 -0.3938
 3283SOL    HW114696   7.534   3.305   9.352 -0.4555  2.0487 -0.1792
 3283SOL    HW214697   7.681   3.268   9.356 -1.2382 -1.3871 -0.1015
 3284SOL     OW14698   3.127   4.040   6.205 -0.3113  0.0546  0.5302
 3284SOL    HW114699   3.034   4.021   6.214 -0.2065  0.2414  2.3811
 3284SOL    HW214700   3.138   4.063   6.113 -1.6437 -2.2966 -0.3057
 3285SOL     OW14701   3.491   3.550   8.888 -0.1244  0.0398 -0.2937
 3285SOL    HW114702   3.452   3.628   8.847 -0.3646 -0.4156 -0.9443
 3285SOL    HW214703   3.452   3.548   8.975  0.2830  0.9380 -0.0736
 3286SOL     OW14704   0.267   4.347   7.958  0.7188  0.3539 -0.0630
 3286SOL    HW114705   0.203   4.415   7.938 -0.4355  0.0947  2.4969
 3286SOL    HW214706   0.322   4.385   8.027  0.8186 -0.8569  0.5450
 3287SOL     OW14707   0.784   3.316   9.463 -0.0365 -0.0920  0.1259
 3287SOL    HW114708   0.818   3.344   9.549 -0.8713 -1.4267  0.9287
 3287SOL    HW214709   0.767   3.397   9.416  1.2575  0.6580  0.8947
 3288SOL     OW14710   0.032   6.764   1.146  0.0663 -0.0819  0.1204
 3288SOL    HW114711   0.083   6.826   1.199 -0.1052 -1.0939  1.5127
 3288SOL    HW214712   0.093   6.737   1.077  0.1254  1.6469 -0.5513
 3289SOL     OW14713   2.674   2.864   0.087  0.5719 -0.1537 -0.0806
 3289SOL    HW114714   2.595   2.901   0.126 -1.0356  1.3030 -4.0918
 3289SOL    HW214715   2.648   2.776   0.058  1.4143 -0.8219  1.0993
 3290SOL     OW14716   1.631   3.986   8.629 -0.7003  0.2925 -0.0577
 3290SOL    HW114717   1.669   3.898   8.630 -2.6111 -0.5880 -0.8821
 3290SOL    HW214718   1.625   4.010   8.721 -0.1500 -0.4270  0.1828
 3291SOL     OW14719   0.495   6.696   9.066  0.4240  0.5164 -0.6618
 3291SOL    HW114720   0.466   6.653   9.146  0.5342 -0.8785 -1.3398
 3291SOL    HW214721   0.423   6.754   9.041 -1.3669 -1.9641 -1.6582
 3292SOL     OW14722   0.917   4.505   8.401 -0.3506 -0.2725  0.7168
 3292SOL    HW114723   0.859   4.576   8.375 -0.3655 -0.1421  1.1084
 3292SOL    HW214724   0.992   4.548   8.440  1.3213 -0.2736 -2.2126
 3293SOL     OW14725   2.531   2.861   7.684 -0.0870 -0.2939 -0.2461
 3293SOL    HW114726   2.504   2.874   7.593  1.9004  0.5205 -0.7549
 3293SOL    HW214727   2.448   2.860   7.733 -1.1380  0.3850 -1.9095
 3294SOL     OW14728   1.925   3.440   0.186 -0.4094 -0.3049  0.1530
 3294SOL    HW114729   1.892   3.376   0.124  1.4799  0.8700 -2.2612
 3294SOL    HW214730   1.855   3.451   0.250 -2.2598 -1.9965 -1.4650
 3295SOL     OW14731   8.887   5.274   0.197  0.3643 -0.4985  0.1149
 3295SOL    HW114732   8.957   5.296   0.259  0.2163  0.1110  0.0692
 3295SOL    HW214733   8.824   5.224   0.249 -0.0491  0.5164  0.6195
 3296SOL     OW14734   0.919   3.861   8.771  0.1728 -0.3766  0.1644
 3296SOL    HW114735   0.902   3.849   8.864 -1.9765 -2.3274 -0.3676
 3296SOL    HW214736   0.963   3.781   8.744  2.5587  0.9769 -0.2135
 3297SOL     OW14737   0.665   5.019   9.708  0.1840 -0.2910  0.2079
 3297SOL    HW114738   0.601   5.090   9.710  0.6812  0.3464 -2.5241
 3297SOL    HW214739   0.746   5.059   9.741  0.0051 -0.1182  0.4402
 3298SOL     OW14740   3.519   5.392   8.438 -0.1844  0.1487  0.2216
 3298SOL    HW114741   3.553   5.303   8.428  1.0100  0.4706  1.1976
 3298SOL    HW214742   3.457   5.385   8.511  1.2987  0.4392  1.5664
 3299SOL     OW14743   1.180   4.925   8.772 -0.0652 -0.8695  0.7526
 3299SOL    HW114744   1.236   4.987   8.819  0.8751 -0.8285 -0.3823
 3299SOL    HW214745   1.094   4.937   8.811 -0.0825  1.6655  0.1464
 3300SOL     OW14746   1.367   4.737   8.082 -0.0016 -0.2052  0.2432
 3300SOL    HW114747   1.392   4.656   8.125 -0.6124 -0.2325  0.5698
 3300SOL    HW214748   1.351   4.799   8.154  1.1005  0.4058 -0.0212
 3301SOL     OW14749   9.818   3.615   6.601  0.9605  0.0092  0.2240
 3301SOL    HW114750   9.768   3.545   6.642  0.6514 -0.0618 -0.2674
 3301SOL    HW214751   9.836   3.583   6.513 -2.0041  1.8382 -1.1734
 3302SOL     OW14752   8.611   6.331   8.282 -0.3081 -0.2066  0.0132
 3302SOL    HW114753   8.650   6.251   8.245 -3.5008 -1.5479 -0.8155
 3302SOL    HW214754   8.629   6.325   8.375  0.9136 -1.0400 -0.2520
 3303SOL     OW14755   0.649   2.833   9.606 -0.0163  0.3083 -0.0140
 3303SOL    HW114756   0.647   2.856   9.512  1.6977 -1.0879 -0.4472
 3303SOL    HW214757   0.738   2.800   9.620 -1.1159 -2.3342  1.4119
 3304SOL     OW14758   0.646   2.803   8.829  0.9153 -0.0624  0.7194
 3304SOL    HW114759   0.576   2.851   8.785  0.9735 -0.9515 -0.3878
 3304SOL    HW214760   0.694   2.870   8.878 -1.0841  0.4756  2.0546
 3305SOL     OW14761   0.942   3.385   9.153  0.0399 -0.6838  0.0019
 3305SOL    HW114762   0.886   3.422   9.086 -0.3234 -1.5446 -0.1779
 3305SOL    HW214763   0.919   3.433   9.233 -0.7001 -0.7850 -0.1442
 3306SOL     OW14764   0.311   4.129   7.656 -0.0175  0.2866  0.5518
 3306SOL    HW114765   0.286   4.040   7.631 -0.1995  0.4445  0.1626
 3306SOL    HW214766   0.243   4.184   7.617 -1.1061  0.4462  2.5643
 3307SOL     OW14767   2.918   4.326   7.719 -0.6279 -0.1161  0.4090
 3307SOL    HW114768   2.976   4.284   7.655  0.2331  0.0554  1.0558
 3307SOL    HW214769   2.860   4.256   7.748  0.9060 -0.9481  1.6030
 3308SOL     OW14770   0.642   2.750   7.612  0.0632  0.1166  0.0746
 3308SOL    HW114771   0.592   2.824   7.647  1.1271  0.6312  0.5577
 3308SOL    HW214772   0.590   2.719   7.538 -0.1189  1.7326 -0.5194
 3309SOL     OW14773   9.807   4.977   6.868  0.0100  0.3855 -0.1284
 3309SOL    HW114774   9.886   4.975   6.923  0.6708  0.4147 -1.0580
 3309SOL    HW214775   9.751   5.042   6.910  0.0508 -0.3316  1.1069
 3310SOL     OW14776   9.414   6.652   9.582  0.1937 -0.1681  0.4418
 3310SOL    HW114777   9.422   6.635   9.676  0.8117 -0.5277  0.3289
 3310SOL    HW214778   9.392   6.567   9.545 -0.2821  0.0214  0.2844
 3311SOL     OW14779   9.662   4.821   9.530  0.1277  0.7573  0.1772
 3311SOL    HW114780   9.681   4.903   9.484  1.5613 -0.6729 -2.0003
 3311SOL    HW214781   9.618   4.767   9.465  0.8747 -0.8338  0.9318
 3312SOL     OW14782   9.299   4.233   9.781  0.2692 -0.2806 -0.2478
 3312SOL    HW114783   9.207   4.217   9.804  1.1154 -1.6483  2.7104
 3312SOL    HW214784   9.317   4.320   9.814 -0.3033  0.6738 -2.2959
 3313SOL     OW14785   2.808   4.464   9.738 -0.0099  0.0403 -0.0859
 3313SOL    HW114786   2.869   4.418   9.796 -0.6662  0.2120  0.7583
 3313SOL    HW214787   2.725   4.416   9.746  0.2405 -0.8325 -2.0269
 3314SOL     OW14788   8.606   6.042   0.449  0.0936 -0.0851  0.7298
 3314SOL    HW114789   8.598   6.093   0.369 -2.4188  0.0651  0.9948
 3314SOL    HW214790   8.600   6.106   0.519 -2.6877 -0.5750  1.0539
 3315SOL     OW14791   2.600   5.929   7.089 -0.2856  0.7672  0.2405
 3315SOL    HW114792   2.616   5.985   7.166 -0.4591  0.8488  0.2171
 3315SOL    HW214793   2.544   5.982   7.032  1.4606  1.5000 -0.8687
 3316SOL     OW14794   3.997   5.335   1.094  0.0479  0.1255  0.4434
 3316SOL    HW114795   3.947   5.280   1.033 -0.7443 -0.3640  1.5163
 3316SOL    HW214796   4.022   5.277   1.165 -0.6944  1.0838  1.5367
 3317SOL     OW14797   8.797   6.565   8.833  0.3444 -0.7041  0.3691
 3317SOL    HW114798   8.717   6.525   8.799  0.3885 -1.1455  0.7645
 3317SOL    HW214799   8.779   6.659   8.833 -0.6154 -0.8601  1.5343
 3318SOL     OW14800   0.820   4.600   0.962 -0.1722 -0.0437  0.0158
 3318SOL    HW114801   0.813   4.508   0.937 -0.7736 -0.5204  1.7973
 3318SOL    HW214802   0.903   4.629   0.923  0.6485 -1.6914  0.4185
 3319SOL     OW14803   1.655   5.602   1.328 -0.2898  0.2580  0.1870
 3319SOL    HW114804   1.570   5.565   1.351 -0.6551  0.6310 -0.5250
 3319SOL    HW214805   1.639   5.651   1.247  0.4036  1.0660  0.5199
 3320SOL     OW14806   2.355   5.208   0.237  0.3372  0.2833 -0.2853
 3320SOL    HW114807   2.382   5.154   0.163 -2.0875 -0.4126 -0.7348
 3320SOL    HW214808   2.437   5.232   0.280  1.6123 -2.1500 -1.1843
 3321SOL     OW14809   0.421   3.896   1.611  0.4602  0.1918  0.0511
 3321SOL    HW114810   0.513   3.884   1.633  0.4904 -2.1240 -1.0590
 3321SOL    HW214811   0.418   3.975   1.558  2.0764 -0.6127 -1.2906
 3322SOL     OW14812   1.264   4.547   9.327  0.2928 -0.3203  0.0547
 3322SOL    HW114813   1.251   4.464   9.373  0.4844 -0.2736  0.1946
 3322SOL    HW214814   1.192   4.603   9.357  0.4157 -0.2908  0.2967
 3323SOL     OW14815   3.593   6.386   8.560  0.0367  0.4145 -0.1116
 3323SOL    HW114816   3.629   6.313   8.509  0.3349  0.0327  0.6235
 3323SOL    HW214817   3.632   6.464   8.522  0.8504  0.0808  0.0200
 3324SOL     OW14818   9.729   5.528   8.376 -0.2756 -0.6849 -0.6592
 3324SOL    HW114819   9.768   5.608   8.339 -0.4390 -1.4091 -2.4712
 3324SOL    HW214820   9.722   5.468   8.302 -0.4654 -2.2880  0.6016
 3325SOL     OW14821   6.675   6.737   9.122 -0.4384  0.3742 -0.2738
 3325SOL    HW114822   6.617   6.666   9.095 -0.8209  0.4058  0.4459
 3325SOL    HW214823   6.763   6.701   9.110 -0.6299 -0.3314  0.3593
 3326SOL     OW14824   0.745   4.418   9.084 -0.3695 -0.5752 -0.1178
 3326SOL    HW114825   0.750   4.364   9.163 -0.7160  0.7744  0.8496
 3326SOL    HW214826   0.653   4.414   9.058 -1.1472  2.0866  1.8432
 3327SOL     OW14827   9.569   4.459   0.890 -0.0783  0.2836 -0.2396
 3327SOL    HW114828   9.613   4.380   0.921  0.8683  0.8347 -0.1191
 3327SOL    HW214829   9.575   4.454   0.794  0.4195  0.4353 -0.2213
 3328SOL     OW14830   4.393   6.786   1.827 -0.3546 -0.0423 -0.3771
 3328SOL    HW114831   4.305   6.806   1.796  0.0423 -0.1858 -1.6812
 3328SOL    HW214832   4.399   6.691   1.823 -0.3031 -0.0627  0.1772
 3329SOL     OW14833   8.226   6.852   9.633 -0.0143 -0.3475  0.1862
 3329SOL    HW114834   8.209   6.901   9.552  1.3557 -1.5823 -0.9165
 3329SOL    HW214835   8.173   6.773   9.625  0.0756 -0.4455  0.5404
 3330SOL     OW14836   9.635   4.235   9.793  0.2740  0.1089 -0.0200
 3330SOL    HW114837   9.687   4.192   9.860 -1.5488 -0.0171  1.4077
 3330SOL    HW214838   9.643   4.178   9.716  2.0791  0.0424  0.1803
 3331SOL     OW14839   9.411   2.956   8.911 -0.1317  0.2317 -0.0326
 3331SOL    HW114840   9.444   2.899   8.842  2.5820 -1.0575  2.1175
 3331SOL    HW214841   9.450   3.042   8.893  2.9189 -0.7624  1.2593
 3332SOL     OW14842   9.751   5.733   9.626  0.9210 -0.0568  0.3300
 3332SOL    HW114843   9.783   5.813   9.667  0.2841  1.0161 -1.1786
 3332SOL    HW214844   9.656   5.737   9.638  0.9372 -1.0218  0.9433
 3333SOL     OW14845   1.573   3.637   1.861  0.3319 -0.2611  0.6914
 3333SOL    HW114846   1.532   3.719   1.889 -0.6208 -0.2112 -0.7580
 3333SOL    HW214847   1.603   3.653   1.772  1.5460 -1.0173  0.9396
 3334SOL     OW14848   1.900   5.907   8.791 -0.2248 -0.2484  0.3929
 3334SOL    HW114849   1.813   5.902   8.831  0.0782 -0.1503  1.0762
 3334SOL    HW214850   1.948   5.969   8.846  0.5193 -0.9059  0.4990
 3335SOL     OW14851   9.669   2.151   0.828  0.1925 -0.3911 -0.1445
 3335SOL    HW114852   9.593   2.116   0.873  0.1597 -1.5475 -1.0564
 3335SOL    HW214853   9.733   2.080   0.829  0.8129  0.1536 -0.4267
 3336SOL     OW14854   9.833   4.719   2.672  0.0110 -0.0915 -0.2126
 3336SOL    HW114855   9.816   4.748   2.582 -1.2252  0.6425  0.2276
 3336SOL    HW214856   9.765   4.761   2.724  1.1453  0.0892  1.1929
 3337SOL     OW14857   9.792   4.484   9.152  0.3115 -0.2455 -0.0997
 3337SOL    HW114858   9.865   4.423   9.151  1.2602  0.8409  0.1501
 3337SOL    HW214859   9.767   4.491   9.244 -0.5103 -1.0572 -0.2499
 3338SOL     OW14860   0.132   5.429   9.672 -0.3235  0.2030 -0.1019
 3338SOL    HW114861   0.190   5.391   9.739 -1.2621  0.7932  1.0861
 3338SOL    HW214862   0.063   5.365   9.660 -2.0240  1.4529  2.0571
 3339SOL     OW14863   1.984   4.600   9.181 -0.4389  0.5445 -0.0078
 3339SOL    HW114864   1.924   4.615   9.254 -1.7424 -1.6351 -0.5617
 3339SOL    HW214865   1.941   4.641   9.105 -0.5465  0.2097 -0.1290
 3340SOL     OW14866   2.763   5.862   0.088  0.5142  0.6072  0.3246
 3340SOL    HW114867   2.683   5.900   0.053  0.6245  0.3743 -0.1889
 3340SOL    HW214868   2.781   5.787   0.031  0.7067  0.2313  0.8694
 3341SOL     OW14869   1.637   5.586   2.317 -0.2325  0.3266  0.4658
 3341SOL    HW114870   1.596   5.520   2.373  2.2524 -0.0482  2.0182
 3341SOL    HW214871   1.623   5.669   2.362 -1.4611  0.5965 -0.3603
 3342SOL     OW14872   0.051   4.766   8.175 -0.6082  0.0165  0.6332
 3342SOL    HW114873   0.008   4.706   8.236 -1.1762  1.1874  1.4107
 3342SOL    HW214874  -0.021   4.813   8.132 -0.2573 -1.2211 -1.4468
 3343SOL     OW14875   9.625   6.155   9.141  0.6509  0.2812 -1.2193
 3343SOL    HW114876   9.529   6.154   9.138  0.5265  1.5690  0.4518
 3343SOL    HW214877   9.649   6.239   9.103  1.1652 -0.1910 -1.9648
 3344SOL     OW14878   1.432   4.853   0.037  0.3775 -0.0213 -0.4880
 3344SOL    HW114879   1.400   4.779  -0.014 -1.2843 -0.3879  1.0056
 3344SOL    HW214880   1.431   4.823   0.128  3.6845  0.4615 -0.1569
 3345SOL     OW14881   1.735   3.857   9.408 -0.5080  0.0305  0.2566
 3345SOL    HW114882   1.660   3.916   9.404 -1.2914 -0.9804 -0.8471
 3345SOL    HW214883   1.742   3.833   9.500  0.5390  2.6487  0.9445
 3346SOL     OW14884   0.709   4.481   0.138 -0.3109  0.2084  0.2573
 3346SOL    HW114885   0.688   4.406   0.082 -2.1055  1.2356 -0.5471
 3346SOL    HW214886   0.626   4.528   0.147  0.1256  0.6537  2.9971
 3347SOL     OW14887   9.368   1.002   1.828  0.0957 -0.1458  0.2257
 3347SOL    HW114888   9.308   0.980   1.899  0.7006 -0.2477  0.7206
 3347SOL    HW214889   9.392   0.917   1.790  0.1414 -0.1249  0.2077
 3348SOL     OW14890   1.450   3.662   9.536 -0.3553  0.0023 -0.0205
 3348SOL    HW114891   1.384   3.615   9.587  1.0845 -0.4968  1.4327
 3348SOL    HW214892   1.534   3.631   9.570  0.6508  0.8491 -1.6192
 3349SOL     OW14893   9.529   2.583   1.033  0.2583 -0.2718  0.4775
 3349SOL    HW114894   9.560   2.666   0.998  0.7814 -0.4856  0.4255
 3349SOL    HW214895   9.434   2.589   1.029  0.2820 -0.7585 -2.0667
 3350SOL     OW14896   0.696   5.232   8.827 -0.2895 -0.5265 -0.1037
 3350SOL    HW114897   0.701   5.216   8.733  0.4826  0.2809 -0.2092
 3350SOL    HW214898   0.626   5.174   8.857 -0.5878 -0.7491 -1.1784
 3351SOL     OW14899   8.594   5.142   0.200  0.2693  0.8561 -0.0735
 3351SOL    HW114900   8.505   5.115   0.220  0.0806  0.4469 -1.3398
 3351SOL    HW214901   8.585   5.229   0.162  0.5439  1.3203  0.8889
 3352SOL     OW14902   1.726   6.045   9.300  0.3016 -0.4318 -0.3781
 3352SOL    HW114903   1.783   5.970   9.284 -1.4194 -2.3546  1.7382
 3352SOL    HW214904   1.786   6.117   9.321  1.9944 -1.2763 -2.0021
 3353SOL     OW14905   1.459   5.763   9.351  0.1117  0.5434  0.1139
 3353SOL    HW114906   1.399   5.699   9.390 -0.5022 -0.0911 -1.7776
 3353SOL    HW214907   1.535   5.711   9.323 -0.0148  0.7734 -0.6659
 3354SOL     OW14908   0.801   4.530   9.654  0.0166  0.3825 -0.1074
 3354SOL    HW114909   0.815   4.625   9.651 -0.0670  0.4903  1.7789
 3354SOL    HW214910   0.887   4.493   9.632  1.2229  0.9879  3.0421
 3355SOL     OW14911   6.713   5.079   8.393 -0.1624 -0.5903 -0.3357
 3355SOL    HW114912   6.713   5.155   8.452  0.8071 -1.1994  0.4943
 3355SOL    HW214913   6.674   5.009   8.445 -0.5458 -0.8140 -0.9100
 3356SOL     OW14914   2.776   6.715   8.497  0.1365 -0.0222  0.3050
 3356SOL    HW114915   2.802   6.624   8.508 -1.4715 -0.5692 -0.1831
 3356SOL    HW214916   2.750   6.722   8.405  0.3369  0.9541  0.3140
 3357SOL     OW14917   3.210   5.398   8.790  0.0345  0.0100 -0.4391
 3357SOL    HW114918   3.127   5.351   8.801  0.5800 -0.6343  1.3132
 3357SOL    HW214919   3.268   5.360   8.857  1.2473  1.5438 -0.5643
 3358SOL     OW14920   0.408   5.817   7.947 -0.0135 -0.6590 -0.1113
 3358SOL    HW114921   0.350   5.769   7.889  3.0268 -4.0975 -0.6409
 3358SOL    HW214922   0.355   5.835   8.025 -2.2130 -2.1095 -1.1759
 3359SOL     OW14923   0.220   3.849   8.189  0.0147  0.7453 -0.1849
 3359SOL    HW114924   0.300   3.821   8.233 -0.3848 -1.7134 -0.8821
 3359SOL    HW214925   0.238   3.836   8.096 -1.7638 -1.7744 -0.2819
 3360SOL     OW14926   9.411   5.411   8.240  0.3586  0.4190  0.1155
 3360SOL    HW114927   9.421   5.430   8.147  2.3217  0.4568  0.3124
 3360SOL    HW214928   9.420   5.316   8.246 -0.1262  0.3759  0.2396
 3361SOL     OW14929   9.271   3.820   1.248 -0.2087  0.1802 -0.4206
 3361SOL    HW114930   9.233   3.891   1.299 -0.9227 -1.0784  0.8644
 3361SOL    HW214931   9.343   3.787   1.302 -0.0894 -0.2951 -0.8562
 3362SOL     OW14932   9.386   6.526   1.399  0.6934 -0.0621  0.5246
 3362SOL    HW114933   9.448   6.507   1.329  0.7887  3.0916 -0.3996
 3362SOL    HW214934   9.301   6.498   1.365  1.1053 -1.0378  0.2836
 3363SOL     OW14935   1.949   6.122   8.496 -0.6958 -0.0520  0.8529
 3363SOL    HW114936   1.998   6.045   8.525  2.3690  1.3433 -0.2788
 3363SOL    HW214937   1.961   6.123   8.401 -1.0572  1.5953  0.8097
 3364SOL     OW14938   9.301   5.031   1.467  0.1306 -0.2909  0.0553
 3364SOL    HW114939   9.390   5.066   1.475 -0.3958  1.0874  0.2366
 3364SOL    HW214940   9.274   5.014   1.558 -0.0516 -0.0035  0.0561
 3365SOL     OW14941   1.090   4.426   0.243  0.1845  0.1637 -0.7261
 3365SOL    HW114942   1.122   4.338   0.261 -0.1272  0.1188 -0.3913
 3365SOL    HW214943   1.131   4.481   0.310 -1.5073 -0.1125  0.5892
 3366SOL     OW14944   1.118   5.376   8.738  1.0127 -0.3900 -0.1063
 3366SOL    HW114945   1.102   5.315   8.667  0.8894 -0.3934 -0.0759
 3366SOL    HW214946   1.127   5.321   8.816 -0.0536 -0.3193  0.0906
 3367SOL     OW14947   0.460   5.042   9.084 -0.3225 -0.2795  0.0533
 3367SOL    HW114948   0.412   5.018   9.005 -0.4587 -0.8526  0.3063
 3367SOL    HW214949   0.494   4.959   9.118  1.1131  0.1490 -0.2836
 3368SOL     OW14950   0.084   4.709   0.413 -0.1464 -0.0010 -0.0625
 3368SOL    HW114951   0.071   4.717   0.507 -1.2323  1.5465 -0.2994
 3368SOL    HW214952   0.063   4.617   0.394  0.6690 -0.4896  1.2614
 3369SOL     OW14953   9.417   5.379   1.886  0.0308 -0.6183 -0.0847
 3369SOL    HW114954   9.457   5.466   1.883 -0.5413 -0.3612 -0.5168
 3369SOL    HW214955   9.341   5.386   1.828  0.6942 -1.7621 -1.1377
 3370SOL     OW14956   2.505   3.978   8.425  0.0014  0.1919  0.0963
 3370SOL    HW114957   2.491   3.975   8.331 -2.4697  0.6711  0.3785
 3370SOL    HW214958   2.568   4.049   8.438 -0.5655  0.9317 -1.1061
 3371SOL     OW14959   9.815   4.740   9.094 -0.0341  0.6338  0.2259
 3371SOL    HW114960   9.725   4.768   9.083 -0.1271  0.0514 -0.5661
 3371SOL    HW214961   9.812   4.645   9.092  0.6908  0.6122 -0.7131
 3372SOL     OW14962   3.319   6.231   7.930  0.2180  0.1129  0.3469
 3372SOL    HW114963   3.319   6.274   8.016 -0.4881  0.2338  0.2952
 3372SOL    HW214964   3.286   6.143   7.947 -0.4195  0.3066  0.1240
 3373SOL     OW14965   0.817   3.557   9.336  0.1676  0.2425 -0.5580
 3373SOL    HW114966   0.749   3.578   9.273  0.8407  0.5866 -1.1816
 3373SOL    HW214967   0.809   3.623   9.404 -0.0635  0.3353 -0.6775
 3374SOL     OW14968   9.133   7.063   6.847  0.0597  0.3068  0.1511
 3374SOL    HW114969   9.188   7.141   6.845 -0.8288  0.9686  0.9133
 3374SOL    HW214970   9.192   6.993   6.872  0.4866  1.0861  1.4148
 3375SOL     OW14971   0.974   4.071   2.488  0.6142  0.3059  0.0202
 3375SOL    HW114972   0.887   4.084   2.450 -0.2131  0.0765  1.7403
 3375SOL    HW214973   0.974   3.981   2.519  0.9656  0.6830  1.1870
 3376SOL     OW14974   1.649   7.037   1.653 -0.2065 -0.3803  0.4962
 3376SOL    HW114975   1.696   7.117   1.673 -1.2904  0.4565 -0.1799
 3376SOL    HW214976   1.685   7.009   1.568 -0.4285 -0.1325  0.3196
 3377SOL     OW14977   0.854   7.338   0.287  0.5682  0.1293 -0.0410
 3377SOL    HW114978   0.760   7.323   0.274  0.9228 -1.9851 -0.4570
 3377SOL    HW214979   0.862   7.352   0.382 -0.1558  0.4339 -0.0105
 3378SOL     OW14980   0.491   4.216   9.126  0.1642 -0.8549 -0.2369
 3378SOL    HW114981   0.577   4.222   9.169  0.3256  0.4961 -0.6816
 3378SOL    HW214982   0.435   4.172   9.190  0.6480  0.2051  0.9628
 3379SOL     OW14983   2.058   7.376   2.183  0.4578  0.3920 -0.2104
 3379SOL    HW114984   1.995   7.348   2.116  0.6732 -4.5816  1.2378
 3379SOL    HW214985   2.143   7.350   2.148  0.7764 -0.3758  1.0679
 3380SOL     OW14986   2.179   6.845   2.890  0.1371  0.5628  0.3257
 3380SOL    HW114987   2.121   6.909   2.932  0.8605  1.2729  0.2706
 3380SOL    HW214988   2.158   6.851   2.797 -0.8256 -0.3561  0.4648
 3381SOL     OW14989   0.054   6.825   2.994 -0.0109  0.3245  0.0395
 3381SOL    HW114990   0.030   6.737   2.965 -0.1430  0.1730  0.5897
 3381SOL    HW214991   0.074   6.872   2.913 -0.3169 -0.0975 -0.2905
 3382SOL     OW14992   9.535   6.677   1.847 -0.0137 -0.5070 -0.8269
 3382SOL    HW114993   9.518   6.674   1.941 -2.6869  2.2265 -1.0445
 3382SOL    HW214994   9.455   6.641   1.807 -0.3399  1.3246 -1.9799
 3383SOL     OW14995   9.445   6.259   1.475 -0.1511 -0.2156  0.4771
 3383SOL    HW114996   9.503   6.321   1.430 -0.1266 -0.2860  0.4089
 3383SOL    HW214997   9.502   6.212   1.536  0.1762 -1.3063 -0.6271
 3384SOL     OW14998   9.519   6.445   0.560  0.3511  0.5993  0.3445
 3384SOL    HW114999   9.507   6.448   0.655 -1.1343  1.1707  0.1642
 3384SOL    HW215000   9.590   6.508   0.544 -0.2369  1.4393  0.9623
 3385SOL     OW15001   2.031   7.036   2.997 -1.2133  0.3478  0.4540
 3385SOL    HW115002   1.990   7.117   2.965 -0.4573 -0.2133 -2.1724
 3385SOL    HW215003   1.962   6.992   3.046 -2.5026  1.3157 -0.4183
 3386SOL     OW15004   0.240   3.467   2.178 -0.0090 -0.4668  0.2834
 3386SOL    HW115005   0.240   3.563   2.181  0.3769 -0.4484 -0.2462
 3386SOL    HW215006   0.332   3.443   2.185  0.0453 -0.7423 -1.2036
 3387SOL     OW15007   4.463   6.032   9.333 -0.1346 -0.7555  0.7663
 3387SOL    HW115008   4.453   5.937   9.323  1.3346 -0.7128 -2.1627
 3387SOL    HW215009   4.385   6.069   9.293  0.5910 -0.7486 -0.7145
 3388SOL     OW15010   1.712   7.347   0.273  0.2830  0.1077 -0.2661
 3388SOL    HW115011   1.727   7.438   0.296 -0.9958  0.3426 -0.3126
 3388SOL    HW215012   1.695   7.349   0.178  2.7847 -0.5191 -0.8135
 3389SOL     OW15013   2.075   7.754   3.787  0.2122  0.6972 -0.1860
 3389SOL    HW115014   2.080   7.748   3.883  0.3282  0.1694 -0.2228
 3389SOL    HW215015   2.065   7.848   3.770  1.4520  0.9367  0.2910
 3390SOL     OW15016   1.454   6.724   3.069  0.1062  0.1700  0.0000
 3390SOL    HW115017   1.368   6.756   3.097  0.5351  0.4290  1.0267
 3390SOL    HW215018   1.474   6.653   3.129  0.3872 -0.2331 -0.5629
 3391SOL     OW15019   9.500   7.101   9.471 -0.5016 -0.5408 -0.2986
 3391SOL    HW115020   9.453   7.020   9.453 -2.5402  0.1173  1.6909
 3391SOL    HW215021   9.563   7.078   9.539 -3.3303  0.0552  2.7748
 3392SOL     OW15022   2.462   8.024   1.154 -0.4787 -0.1230 -0.6918
 3392SOL    HW115023   2.414   8.017   1.071 -1.6800  0.3419 -0.0736
 3392SOL    HW215024   2.436   8.110   1.189  0.2817 -0.1635 -0.0043
 3393SOL     OW15025   9.754   5.909   0.835 -0.0156 -0.1162  0.1520
 3393SOL    HW115026   9.685   5.844   0.822 -0.5366  0.2536  1.0467
 3393SOL    HW215027   9.728   5.983   0.781 -0.0217 -0.1899  0.0519
 3394SOL     OW15028   1.818   7.026   1.905 -0.5500 -0.1670 -0.4478
 3394SOL    HW115029   1.736   7.018   1.857 -0.8740 -0.3860  0.1363
 3394SOL    HW215030   1.825   7.118   1.927 -0.8693 -0.2214 -0.1046
 3395SOL     OW15031   7.645   6.943   0.936 -0.0252  0.0067  0.2971
 3395SOL    HW115032   7.734   6.942   0.901  0.0815  0.5657  0.5491
 3395SOL    HW215033   7.632   6.855   0.972 -0.8418 -1.3207 -2.8929
 3396SOL     OW15034   1.770   5.726   2.118  0.1785 -0.6073 -0.0633
 3396SOL    HW115035   1.766   5.710   2.024 -1.4592  0.7536 -0.2662
 3396SOL    HW215036   1.680   5.743   2.144  0.7268  0.0204  1.5765
 3397SOL     OW15037   2.535   5.033   3.899 -0.2783  0.0209  0.3652
 3397SOL    HW115038   2.461   4.976   3.878 -0.5044  0.3526  0.2357
 3397SOL    HW215039   2.495   5.105   3.949 -0.3515  1.1518 -1.2553
 3398SOL     OW15040   8.103   5.949   3.532 -0.5271  0.3834  0.0452
 3398SOL    HW115041   8.102   5.971   3.625 -1.5496 -0.0786  0.1527
 3398SOL    HW215042   8.162   5.874   3.525 -2.4319 -1.2552  0.7342
 3399SOL     OW15043   9.834   7.650   0.445 -0.3528  0.0341 -0.0273
 3399SOL    HW115044   9.848   7.564   0.405 -0.5989 -1.0822  2.1441
 3399SOL    HW215045   9.823   7.632   0.538  0.8862  2.5581  0.7017
 3400SOL     OW15046   0.560   5.697   2.467  0.5050  0.0972  0.0410
 3400SOL    HW115047   0.549   5.788   2.495  0.2631  0.7175 -1.8609
 3400SOL    HW215048   0.567   5.703   2.371  0.4338 -1.9006 -0.1285
 3401SOL     OW15049   9.201   5.482   8.621 -0.2879 -0.0691 -0.7294
 3401SOL    HW115050   9.112   5.471   8.588 -0.4981  2.8383 -1.4408
 3401SOL    HW215051   9.248   5.524   8.549  0.3745  2.5976  1.1061
 3402SOL     OW15052   0.232   6.897   1.310  0.0368 -0.0028  0.1833
 3402SOL    HW115053   0.323   6.876   1.290 -0.2068  0.4837 -1.6047
 3402SOL    HW215054   0.223   6.990   1.287 -0.8420  0.0198  0.5815
 3403SOL     OW15055   1.127   5.571   9.161  0.0908  0.1815  0.2584
 3403SOL    HW115056   1.127   5.557   9.256 -3.1943 -0.8468  0.2405
 3403SOL    HW215057   1.188   5.505   9.127  0.8691  0.1684  1.5980
 3404SOL     OW15058   1.748   8.774   2.375  0.0989  0.7312 -0.6941
 3404SOL    HW115059   1.753   8.861   2.336 -2.1690  0.8987 -0.7084
 3404SOL    HW215060   1.655   8.752   2.375  0.4231 -0.9300  0.9938
 3405SOL     OW15061   0.906   6.704   2.801  0.1288  1.1937 -0.1346
 3405SOL    HW115062   0.955   6.780   2.834 -0.7027  1.3921  0.6664
 3405SOL    HW215063   0.862   6.736   2.722  1.5709  0.9051 -1.1033
 3406SOL     OW15064   0.955   8.181   9.534 -0.2339 -0.1925  0.2833
 3406SOL    HW115065   0.887   8.225   9.483 -0.9145 -0.7749  0.6730
 3406SOL    HW215066   0.956   8.092   9.500 -0.1025 -0.3544  0.7130
 3407SOL     OW15067   0.737   6.273   1.408  0.5133  0.0829 -0.1822
 3407SOL    HW115068   0.663   6.222   1.440  0.0126  1.4601  0.9736
 3407SOL    HW215069   0.763   6.327   1.482  1.5373  0.9340 -1.1173
 3408SOL     OW15070   2.418   7.938   0.524 -0.1830 -0.3475  0.5732
 3408SOL    HW115071   2.421   8.009   0.459  1.4472 -1.7578 -0.9863
 3408SOL    HW215072   2.349   7.880   0.493  2.4899 -2.5944 -1.8353
 3409SOL     OW15073   0.323   6.120   2.653  0.8075 -0.1337 -0.0995
 3409SOL    HW115074   0.241   6.169   2.653  0.5566 -0.5421 -1.1242
 3409SOL    HW215075   0.326   6.076   2.568  1.0142 -1.9269  0.7831
 3410SOL     OW15076   0.756   4.688   1.497 -0.2221  0.5500  0.2333
 3410SOL    HW115077   0.833   4.738   1.522 -0.4578  0.5397  1.0035
 3410SOL    HW215078   0.743   4.709   1.405  1.2479 -0.1835 -0.1770
 3411SOL     OW15079   0.899   6.764   0.760  0.0733 -0.6734  0.3246
 3411SOL    HW115080   0.886   6.817   0.839 -2.5590  0.5298 -0.7987
 3411SOL    HW215081   0.871   6.676   0.786  1.8075 -0.9378  1.4328
 3412SOL     OW15082   1.737   5.311   9.560  0.1172 -0.1454 -0.6717
 3412SOL    HW115083   1.745   5.375   9.489 -1.2383 -0.5130 -1.2031
 3412SOL    HW215084   1.823   5.309   9.601  0.5001  1.1869 -1.3550
 3413SOL     OW15085   1.630   5.593   9.561 -0.1073  0.1020  0.0556
 3413SOL    HW115086   1.546   5.565   9.596 -0.1333  0.1210  0.0074
 3413SOL    HW215087   1.622   5.688   9.550  0.9568  0.6488  3.0090
 3414SOL     OW15088   9.310   4.778   8.832  0.0825 -0.6044  0.0033
 3414SOL    HW115089   9.267   4.767   8.916  0.3208 -1.4473  0.0284
 3414SOL    HW215090   9.280   4.862   8.799 -1.8090 -1.2872 -0.1076
 3415SOL     OW15091   8.253   7.908   1.515 -0.0047  0.1846  0.0985
 3415SOL    HW115092   8.260   8.002   1.533 -0.3338  0.0401  1.0018
 3415SOL    HW215093   8.335   7.871   1.546 -0.1067  0.0909  0.2542
 3416SOL     OW15094   0.678   5.733   0.140  0.9986 -0.4774 -0.0071
 3416SOL    HW115095   0.612   5.801   0.157  1.3017 -0.1601 -0.0898
 3416SOL    HW215096   0.758   5.781   0.120  1.9463 -0.7989  2.5705
 3417SOL     OW15097   0.825   4.529   0.382  0.1027 -0.3635 -0.7513
 3417SOL    HW115098   0.791   4.495   0.299 -0.8126 -0.2628 -0.4274
 3417SOL    HW215099   0.767   4.602   0.404 -0.1075 -0.8282  0.3270
 3418SOL     OW15100   7.458   4.896   0.243  0.0635 -0.7061  0.0066
 3418SOL    HW115101   7.453   4.991   0.239 -0.9531 -0.7204  0.5716
 3418SOL    HW215102   7.540   4.874   0.200  0.6002  0.4653  0.4031
 3419SOL     OW15103   3.083   5.295   9.235  0.0110  0.6022  0.0614
 3419SOL    HW115104   3.126   5.380   9.227  0.3487  0.4817  0.5480
 3419SOL    HW215105   3.076   5.264   9.145  0.2509  0.9699 -0.0886
 3420SOL     OW15106   9.105   8.767   0.557  0.3303  0.2015 -0.3500
 3420SOL    HW115107   9.087   8.680   0.522  0.9560  0.3150 -0.9707
 3420SOL    HW215108   9.197   8.763   0.583  0.2817  0.5913 -0.1131
 3421SOL     OW15109   9.673   6.097   9.487 -0.4099  0.9884 -0.2335
 3421SOL    HW115110   9.653   6.182   9.526 -1.6251  1.8431 -2.4999
 3421SOL    HW215111   9.733   6.116   9.415 -1.7901  0.2068 -1.6836
 3422SOL     OW15112   9.316   5.905   0.656  0.2245 -0.5590 -0.5149
 3422SOL    HW115113   9.226   5.916   0.626 -0.1745 -1.8542  0.1611
 3422SOL    HW215114   9.309   5.852   0.735  1.5679 -0.5082 -0.3361
 3423SOL     OW15115   2.523   5.027   1.623 -0.0607  0.0003  0.1621
 3423SOL    HW115116   2.480   5.108   1.649  0.7213 -0.3076  2.7166
 3423SOL    HW215117   2.603   5.056   1.578 -0.7365  0.5868 -0.7064
 3424SOL     OW15118   1.090   6.280   2.396 -0.3080  0.4846  0.0782
 3424SOL    HW115119   1.037   6.310   2.470  0.8434  1.0236  0.7121
 3424SOL    HW215120   1.137   6.204   2.430 -0.3183  0.2982 -0.3229
 3425SOL     OW15121   0.918   6.454   9.719  0.3099 -0.1026 -0.2025
 3425SOL    HW115122   0.928   6.367   9.679  1.5074  0.4387 -1.1351
 3425SOL    HW215123   0.888   6.509   9.647  0.4150  0.4484  0.1753
 3426SOL     OW15124   0.339   5.015   1.935  0.2150  0.2937  0.3074
 3426SOL    HW115125   0.326   5.043   2.026  2.0915  1.7008  0.1974
 3426SOL    HW215126   0.308   4.925   1.933  0.5471  0.0833  2.4668
 3427SOL     OW15127   1.111   7.510   0.021  0.0978  0.4505  0.4241
 3427SOL    HW115128   1.019   7.522  -0.001  0.0738  0.9554  0.7826
 3427SOL    HW215129   1.114   7.520   0.116  0.6091  1.0348  0.3515
 3428SOL     OW15130   0.168   6.961   0.272  0.2780  0.0766 -0.0015
 3428SOL    HW115131   0.086   6.912   0.261 -0.2752  1.4760 -3.0065
 3428SOL    HW215132   0.144   7.036   0.327 -0.3826  0.2468 -0.5123
 3429SOL     OW15133   1.090   6.834   0.597 -0.7739  0.4346 -0.1237
 3429SOL    HW115134   1.073   6.773   0.524  1.1168 -1.3436  0.8049
 3429SOL    HW215135   1.012   6.828   0.652 -0.6527 -1.1459 -0.0862
 3430SOL     OW15136   0.964   6.451   1.345  0.2392 -0.6735 -0.1713
 3430SOL    HW115137   0.921   6.479   1.425 -0.0499  1.3019 -0.9592
 3430SOL    HW215138   0.913   6.492   1.275  2.5001  0.5488 -1.2033
 3431SOL     OW15139   2.993   3.473   8.154 -0.2688  0.2577  0.1002
 3431SOL    HW115140   2.957   3.385   8.163 -0.1862 -0.0343 -1.8164
 3431SOL    HW215141   3.082   3.467   8.190  1.4007 -1.7182 -3.7363
 3432SOL     OW15142   9.344   8.663   1.704 -0.1045 -0.0783  0.3550
 3432SOL    HW115143   9.296   8.601   1.759 -0.8222 -1.5782 -1.8010
 3432SOL    HW215144   9.420   8.613   1.673 -0.2012  0.4162 -0.7084
 3433SOL     OW15145   1.487   7.527   9.026 -0.0442  0.2203  0.1441
 3433SOL    HW115146   1.392   7.518   9.035 -0.2408  1.0084 -0.8738
 3433SOL    HW215147   1.503   7.513   8.933  1.0311 -1.2572  0.5235
 3434SOL     OW15148   0.300   5.204   2.438  0.4571  0.6962 -0.2345
 3434SOL    HW115149   0.381   5.155   2.452  0.3430  0.3434 -0.7858
 3434SOL    HW215150   0.320   5.293   2.469 -0.1221 -0.2371  3.1955
 3435SOL     OW15151   9.626   7.951   1.537  0.0515 -0.2199  0.1761
 3435SOL    HW115152   9.543   7.949   1.490  0.4688  0.5049 -0.6086
 3435SOL    HW215153   9.692   7.965   1.470  0.7170  0.2009  0.9017
 3436SOL     OW15154   0.079   4.979   0.945  0.1560  0.1007 -0.6123
 3436SOL    HW115155   0.160   5.030   0.952 -0.2143  0.6387 -0.2052
 3436SOL    HW215156   0.108   4.888   0.949  0.7578  0.2828 -0.6385
 3437SOL     OW15157   1.602   6.222   1.257 -0.7130 -0.2108  0.1221
 3437SOL    HW115158   1.515   6.182   1.262 -0.6164 -0.3497  0.7917
 3437SOL    HW215159   1.585   6.311   1.224 -1.2343  0.1220  1.2340
 3438SOL     OW15160   4.047   6.071   1.955 -0.3235  0.0121 -0.0106
 3438SOL    HW115161   4.109   6.048   2.025 -0.6820  0.6222  0.5199
 3438SOL    HW215162   4.034   6.165   1.964  1.4162  0.5556 -2.3973
 3439SOL     OW15163   9.063   5.818   8.940  0.2846 -0.1591  0.2976
 3439SOL    HW115164   9.140   5.761   8.932  1.4723  1.4181 -0.1319
 3439SOL    HW215165   9.086   5.879   9.011  0.6051  1.9889 -1.5321
 3440SOL     OW15166   2.409   6.952   0.283 -0.3801  0.6046 -0.0472
 3440SOL    HW115167   2.503   6.963   0.297 -0.1194  0.4252 -1.4646
 3440SOL    HW215168   2.402   6.885   0.214 -1.6514 -1.7114  2.1248
 3441SOL     OW15169   2.819   4.870   1.876  0.1266  0.6211 -0.0194
 3441SOL    HW115170   2.768   4.830   1.946 -2.1060  0.0231 -1.8388
 3441SOL    HW215171   2.812   4.808   1.803  2.3706  1.1953 -0.7897
 3442SOL     OW15172   1.999   6.158   9.191  0.3299  0.0646 -0.3748
 3442SOL    HW115173   2.031   6.094   9.255 -0.0596 -0.2720 -0.5116
 3442SOL    HW215174   2.038   6.130   9.108 -2.4346 -2.0165 -1.0991
 3443SOL     OW15175   1.755   4.723   9.285  0.0470 -0.2023 -0.0674
 3443SOL    HW115176   1.736   4.738   9.192 -1.3860 -0.8257  0.0946
 3443SOL    HW215177   1.698   4.784   9.331 -0.4692 -1.0423  0.4256
 3444SOL     OW15178   3.389   4.230   1.450 -0.1052 -0.0828  0.0491
 3444SOL    HW115179   3.420   4.222   1.360 -0.5183 -1.7459  0.0097
 3444SOL    HW215180   3.418   4.317   1.478  1.1757 -0.0449 -1.2486
 3445SOL     OW15181   1.469   3.411   1.737  0.1387 -0.5466 -0.3505
 3445SOL    HW115182   1.494   3.483   1.796  2.0101 -1.0491 -0.4805
 3445SOL    HW215183   1.550   3.388   1.692 -0.8488 -1.4820 -1.7146
 3446SOL     OW15184   0.082   5.277   1.264 -0.1945  0.6295  0.6995
 3446SOL    HW115185   0.159   5.222   1.277 -0.0447  0.4884 -0.6787
 3446SOL    HW215186   0.074   5.326   1.346  1.2368  0.5080  0.9420
 3447SOL     OW15187   9.392   6.095   9.466  0.3774 -0.5081 -0.1396
 3447SOL    HW115188   9.481   6.113   9.438  0.8474  0.6033  1.8905
 3447SOL    HW215189   9.340   6.164   9.425  0.7546 -0.0407  0.1589
 3448SOL     OW15190   0.118   7.244   3.243  0.2186 -0.0739  0.5064
 3448SOL    HW115191   0.045   7.211   3.296  0.4259 -1.7747 -0.1826
 3448SOL    HW215192   0.191   7.187   3.266  1.0085  0.8204  0.2710
 3449SOL     OW15193   0.672   4.645   0.647 -0.4416 -0.3099  0.0719
 3449SOL    HW115194   0.659   4.550   0.645 -1.2206 -0.2203  0.5413
 3449SOL    HW215195   0.614   4.676   0.717 -0.3857  0.5429 -0.2435
 3450SOL     OW15196   0.978   7.166   8.620 -0.7964 -0.1156 -0.3840
 3450SOL    HW115197   1.007   7.242   8.670 -2.6894  0.9920 -0.8605
 3450SOL    HW215198   1.055   7.110   8.614  0.3306  1.2068  1.0038
 3451SOL     OW15199   1.019   4.459   9.493 -0.5864 -0.1605 -0.5739
 3451SOL    HW115200   1.106   4.421   9.507 -0.2377  0.6402 -0.4972
 3451SOL    HW215201   0.976   4.400   9.431  0.6616  0.3634 -1.9888
 3452SOL     OW15202   1.048   6.223   9.621  0.0159  0.0206  0.2586
 3452SOL    HW115203   1.092   6.222   9.536  0.6572 -1.6888  0.5852
 3452SOL    HW215204   1.119   6.210   9.684 -0.8250 -1.8825  0.8493
 3453SOL     OW15205   0.392   4.768   9.251  0.7833  0.2687 -0.4220
 3453SOL    HW115206   0.302   4.765   9.282  0.9880  0.1611  0.1756
 3453SOL    HW215207   0.426   4.680   9.264  1.2581  0.5397  0.2429
 3454SOL     OW15208   1.775   5.435   0.971 -0.7338 -0.2304 -0.4038
 3454SOL    HW115209   1.739   5.436   0.882 -2.1221 -0.1298  0.1366
 3454SOL    HW215210   1.777   5.343   0.995 -2.4917 -0.1301  0.2621
 3455SOL     OW15211   1.413   5.491   1.108  0.4179 -0.1449  0.6911
 3455SOL    HW115212   1.418   5.577   1.149 -0.3550 -0.1005  0.6984
 3455SOL    HW215213   1.322   5.482   1.081  0.9242 -0.1226 -1.1330
 3456SOL     OW15214   2.797   5.010   9.321 -0.2227  0.4712  0.1945
 3456SOL    HW115215   2.719   4.956   9.335 -0.5579  0.4423 -1.5517
 3456SOL    HW215216   2.863   4.948   9.288 -0.0846  0.8233 -0.2071
 3457SOL     OW15217   2.324   6.984   3.993 -0.2199  0.7067  0.1554
 3457SOL    HW115218   2.231   7.003   4.003 -0.4584 -0.0630 -0.5256
 3457SOL    HW215219   2.331   6.889   3.998  0.3996  0.6846 -0.7841
 3458SOL     OW15220   9.044   7.296   0.063 -0.3682 -0.0147  0.0358
 3458SOL    HW115221   8.996   7.375   0.087 -2.6652 -1.6703  1.3043
 3458SOL    HW215222   9.019   7.232   0.130  1.2364 -1.8909 -1.0560
 3459SOL     OW15223   2.116   7.492   8.939  0.5859 -0.0668 -0.5776
 3459SOL    HW115224   2.023   7.478   8.953  0.6494  1.3405  1.7740
 3459SOL    HW215225   2.121   7.574   8.891  0.6068 -0.0835 -0.6041
 3460SOL     OW15226   0.087   4.914   2.178  0.0224 -0.0830 -0.0412
 3460SOL    HW115227   0.098   4.833   2.129  1.0571  0.2941 -0.4734
 3460SOL    HW215228   0.141   4.903   2.256 -0.5848 -0.1739  0.3677
 3461SOL     OW15229   1.006   6.129   2.178  0.5705 -0.3190 -0.2306
 3461SOL    HW115230   1.090   6.086   2.160  1.6676  2.2775 -1.8694
 3461SOL    HW215231   1.023   6.186   2.253  0.4734  0.6229 -0.9021
 3462SOL     OW15232   1.239   7.085   0.426 -0.4504  0.3295 -0.3529
 3462SOL    HW115233   1.182   7.112   0.354 -0.3065  0.8038 -0.2923
 3462SOL    HW215234   1.327   7.085   0.388 -0.6629 -2.7389 -1.1537
 3463SOL     OW15235   1.773   5.418   3.674 -0.2000  0.1342  0.5791
 3463SOL    HW115236   1.810   5.492   3.722 -1.0332  1.3709 -0.6309
 3463SOL    HW215237   1.850   5.370   3.642  0.3892  1.4699 -0.0877
 3464SOL     OW15238   1.986   4.821   0.034  0.3243 -0.7190 -0.1582
 3464SOL    HW115239   1.963   4.846   0.123  2.8076  0.4261  0.2440
 3464SOL    HW215240   2.022   4.733   0.041 -0.8082 -1.2115 -0.2960
 3465SOL     OW15241   7.421   7.771   3.159 -0.1987 -0.0988 -0.2148
 3465SOL    HW115242   7.463   7.685   3.152 -0.0885 -0.0089 -0.7576
 3465SOL    HW215243   7.334   7.753   3.194  0.1565 -0.3275  0.5860
 3466SOL     OW15244   2.480   5.884   8.909  0.3005  0.2750  0.0207
 3466SOL    HW115245   2.572   5.889   8.935 -0.6475 -0.6182  4.2130
 3466SOL    HW215246   2.443   5.815   8.964 -3.3064  1.8938 -0.1149
 3467SOL     OW15247   1.446   6.062   2.978  0.3975 -0.3641 -0.5995
 3467SOL    HW115248   1.372   6.057   3.039  1.2357 -1.0649  0.3817
 3467SOL    HW215249   1.461   5.971   2.951  0.8923 -0.2213 -0.8112
 3468SOL     OW15250   3.236   8.012   2.681 -0.5932  0.1366  0.1404
 3468SOL    HW115251   3.199   7.969   2.758 -0.6839 -0.2959 -0.1348
 3468SOL    HW215252   3.327   8.031   2.704 -1.3903  2.8092  1.4767
 3469SOL     OW15253   2.964   4.301   0.824  0.3160 -0.0974 -0.1821
 3469SOL    HW115254   2.978   4.216   0.783  0.8515 -1.0216  1.7841
 3469SOL    HW215255   2.935   4.281   0.913 -0.6810  1.7913 -0.0244
 3470SOL     OW15256   0.534   5.292   1.003 -0.2994  0.3154  0.2538
 3470SOL    HW115257   0.526   5.328   1.091  1.7194 -0.8625  0.9847
 3470SOL    HW215258   0.601   5.345   0.960 -0.4867  0.1896 -0.2109
 3471SOL     OW15259   0.375   4.679   2.611 -0.0259  0.0460 -0.2019
 3471SOL    HW115260   0.450   4.704   2.557  0.4549 -2.5612 -0.8604
 3471SOL    HW215261   0.326   4.617   2.558 -0.6973 -0.9866  1.5300
 3472SOL     OW15262   2.453   6.089   1.082 -0.0689 -0.1393 -0.4915
 3472SOL    HW115263   2.524   6.103   1.019 -1.3564  1.6789 -1.6462
 3472SOL    HW215264   2.373   6.088   1.028 -0.9942 -1.9979  0.7693
 3473SOL     OW15265   3.311   6.863   2.155  0.8463  0.1272  0.7114
 3473SOL    HW115266   3.385   6.848   2.096  1.3665  1.1314  1.0748
 3473SOL    HW215267   3.308   6.786   2.211  0.1719 -0.9789 -0.7670
 3474SOL     OW15268   9.631   5.529   0.974 -0.4049 -0.1344 -0.0432
 3474SOL    HW115269   9.573   5.547   1.048  0.8298 -1.1055  1.1882
 3474SOL    HW215270   9.718   5.518   1.012  0.3238 -0.3716 -1.6663
 3475SOL     OW15271   4.323   7.242   2.696  0.2978  0.3442  0.3428
 3475SOL    HW115272   4.228   7.242   2.709  0.1150  1.1606 -0.8581
 3475SOL    HW215273   4.335   7.242   2.601  1.4855  1.7338  0.4554
 3476SOL     OW15274   1.688   6.457   0.710 -0.0878 -0.4972  0.0654
 3476SOL    HW115275   1.630   6.436   0.636 -0.2745  1.2539 -0.3146
 3476SOL    HW215276   1.634   6.509   0.769  0.5622 -0.4523  0.6266
 3477SOL     OW15277   1.790   5.048   9.316 -0.4906 -0.6616 -0.8238
 3477SOL    HW115278   1.830   5.073   9.400  1.8674 -1.6680 -1.5568
 3477SOL    HW215279   1.768   5.132   9.274 -1.8414 -0.1456  0.7977
 3478SOL     OW15280   7.685   4.717   1.431 -0.5016  0.3189  0.1698
 3478SOL    HW115281   7.696   4.745   1.522 -1.9049 -0.0165  0.4699
 3478SOL    HW215282   7.759   4.755   1.385 -0.1450  1.0805  1.3322
 3479SOL     OW15283   0.196   7.449   0.910 -0.2399  0.3816 -0.4983
 3479SOL    HW115284   0.280   7.496   0.904 -0.2820  0.6676  0.8428
 3479SOL    HW215285   0.219   7.357   0.896  0.6522  0.1832  1.8879
 3480SOL     OW15286   2.302   6.755   3.113 -0.1456 -0.2346  0.5120
 3480SOL    HW115287   2.247   6.790   3.183  0.1917  0.4717  0.4313
 3480SOL    HW215288   2.269   6.797   3.033  0.4605  0.1448  0.4546
 3481SOL     OW15289   8.407   5.463   0.737  0.2843  0.2744 -0.3453
 3481SOL    HW115290   8.423   5.470   0.831 -1.0443  0.9685 -0.1567
 3481SOL    HW215291   8.478   5.513   0.697 -0.4214  1.9112  0.3884
 3482SOL     OW15292   0.574   5.628   0.869  0.8243 -0.1841  0.4612
 3482SOL    HW115293   0.567   5.704   0.811  1.2944 -0.4166  0.0886
 3482SOL    HW215294   0.497   5.633   0.925  0.0356 -0.2816 -0.5891
 3483SOL     OW15295   1.249   7.374   1.923 -0.2155  0.0691  0.3540
 3483SOL    HW115296   1.230   7.422   2.003 -0.3067 -2.7193  2.1753
 3483SOL    HW215297   1.206   7.423   1.853 -0.6890  2.2493  2.0866
 3484SOL     OW15298   1.539   8.301   1.666 -0.4015 -0.0185 -0.4949
 3484SOL    HW115299   1.537   8.274   1.574  0.5194  0.1913 -0.5839
 3484SOL    HW215300   1.541   8.397   1.662  0.0134 -0.0194 -0.2633
 3485SOL     OW15301   9.734   6.656   2.077  0.3790 -0.4246  0.4177
 3485SOL    HW115302   9.651   6.610   2.091  0.8135 -0.5459  3.0887
 3485SOL    HW215303   9.713   6.748   2.093  0.4649 -0.2628 -0.3816
 3486SOL     OW15304   2.125   6.112   1.582 -0.2564  0.3671 -0.3005
 3486SOL    HW115305   2.101   6.187   1.637  1.4909  0.0157  1.0414
 3486SOL    HW215306   2.093   6.036   1.630  2.0957 -0.0066  0.8103
 3487SOL     OW15307   0.451   5.673   8.878 -0.1399 -0.5998 -0.3714
 3487SOL    HW115308   0.474   5.765   8.882  0.1511 -0.6899  0.0378
 3487SOL    HW215309   0.398   5.657   8.956 -0.9360 -0.5786 -0.8943
 3488SOL     OW15310   1.694   6.650   1.251 -0.3595  0.2760  0.1699
 3488SOL    HW115311   1.626   6.592   1.218 -1.3332  1.7255 -0.4856
 3488SOL    HW215312   1.719   6.702   1.175  0.9201  0.3124  0.6033
 3489SOL     OW15313   9.806   6.696   1.756  0.1476  0.5094 -0.0175
 3489SOL    HW115314   9.786   6.667   1.667  0.2422 -0.1073  0.1609
 3489SOL    HW215315   9.728   6.673   1.807 -0.1554  1.4144 -0.0608
 3490SOL     OW15316   1.277   6.687   1.666 -0.1763 -0.5586 -0.1087
 3490SOL    HW115317   1.266   6.610   1.722 -0.9055  0.3028  0.9827
 3490SOL    HW215318   1.192   6.732   1.670 -0.2056 -0.3813 -1.8075
 3491SOL     OW15319   0.220   6.781   3.462 -0.2216 -0.1270 -0.1059
 3491SOL    HW115320   0.243   6.833   3.386  1.2079 -0.4991  0.0578
 3491SOL    HW215321   0.133   6.745   3.441 -0.0818  0.2056 -1.3199
 3492SOL     OW15322   2.955   4.504   2.259 -0.0422  0.2704 -0.3477
 3492SOL    HW115323   2.933   4.452   2.336 -3.2458  1.0278 -0.6006
 3492SOL    HW215324   2.940   4.595   2.287  0.0373  0.6407 -1.4574
 3493SOL     OW15325   9.587   2.248   2.658  0.2553  0.2034  0.2070
 3493SOL    HW115326   9.640   2.195   2.599 -0.3019 -0.5004  0.3179
 3493SOL    HW215327   9.590   2.201   2.742 -1.3505 -0.4337 -0.0441
 3494SOL     OW15328   0.628   6.833   1.487 -0.0140  0.1780  0.0592
 3494SOL    HW115329   0.589   6.782   1.416 -1.2363 -0.2529  0.9965
 3494SOL    HW215330   0.691   6.773   1.528 -0.4466 -0.1122  0.3042
 3495SOL     OW15331   1.144   4.035   0.911 -0.4076  0.4892  0.1870
 3495SOL    HW115332   1.133   4.002   1.001  2.9501 -0.8814  0.2601
 3495SOL    HW215333   1.084   4.109   0.905 -3.3444 -1.4486  2.3510
 3496SOL     OW15334   0.583   6.395   0.589  0.4060  0.3375  0.3610
 3496SOL    HW115335   0.561   6.394   0.496  0.7925  1.3202  0.2462
 3496SOL    HW215336   0.536   6.321   0.626  0.2216 -0.0412 -0.6139
 3497SOL     OW15337   9.748   4.944   3.468  0.1259 -0.2930 -0.0612
 3497SOL    HW115338   9.677   5.008   3.462  0.1941 -0.3482 -1.9040
 3497SOL    HW215339   9.727   4.879   3.401  0.1246 -2.1945  1.6660
 3498SOL     OW15340   0.466   6.804   2.173  0.0072 -0.0402  0.2324
 3498SOL    HW115341   0.527   6.859   2.222  0.4046 -0.7553  0.5479
 3498SOL    HW215342   0.437   6.859   2.101 -2.2034  1.8280  2.3660
 3499SOL     OW15343   8.955   5.986   9.322  0.6297  0.5682 -0.0951
 3499SOL    HW115344   9.047   6.002   9.299  0.0734  3.6569 -0.6589
 3499SOL    HW215345   8.940   6.039   9.400 -0.8032  0.6255 -0.3733
 3500SOL     OW15346   2.067   6.263   0.905  0.0919 -0.3743 -0.5898
 3500SOL    HW115347   2.015   6.343   0.908 -0.6405 -0.8674  1.1722
 3500SOL    HW215348   2.013   6.201   0.857 -0.9523 -0.8521  1.1402
 3501SOL     OW15349   0.908   6.401   1.628 -0.1784  0.5508  0.4682
 3501SOL    HW115350   0.898   6.330   1.691  0.1431 -0.4374 -0.5635
 3501SOL    HW215351   0.969   6.462   1.669  1.0846 -0.7432  0.5699
 3502SOL     OW15352   0.771   5.935   8.286 -0.1841  0.4927  0.4771
 3502SOL    HW115353   0.795   6.014   8.334  0.0304 -1.0364  3.0455
 3502SOL    HW215354   0.832   5.868   8.317 -1.1793 -1.0039 -0.6372
 3503SOL     OW15355   2.156   8.091   0.641  0.2584 -0.4916  0.0370
 3503SOL    HW115356   2.180   8.031   0.570  0.7113  0.7214 -0.8574
 3503SOL    HW215357   2.060   8.088   0.644  0.1555  0.3555 -1.4674
 3504SOL     OW15358   1.323   5.990   0.542  0.1098 -0.4656  0.2376
 3504SOL    HW115359   1.343   6.020   0.631  0.2383  1.2210 -0.3288
 3504SOL    HW215360   1.228   5.997   0.535  0.2121  0.6842 -0.1721
 3505SOL     OW15361   0.100   6.363   1.748 -0.3108 -0.7806  0.0815
 3505SOL    HW115362   0.011   6.399   1.756  0.3942  0.9927  0.2735
 3505SOL    HW215363   0.127   6.347   1.838  0.0022 -0.2085  0.0887
 3506SOL     OW15364   9.562   4.801   8.735  0.1689  0.5305  0.3349
 3506SOL    HW115365   9.592   4.849   8.812  2.1240 -0.8152  0.4707
 3506SOL    HW215366   9.471   4.780   8.754  0.4496  0.7000  2.0344
 3507SOL     OW15367   0.050   5.630   3.863  0.1264  0.2416  0.4220
 3507SOL    HW115368  -0.036   5.628   3.821  0.4335 -1.6668 -0.2127
 3507SOL    HW215369   0.109   5.661   3.794  0.0202  1.2365  0.7614
 3508SOL     OW15370   1.780   4.230   2.015  0.1614 -0.1036 -0.3167
 3508SOL    HW115371   1.688   4.239   2.042  0.1216  0.5984 -0.6400
 3508SOL    HW215372   1.785   4.144   1.974 -0.1291 -0.5431  0.5474
 3509SOL     OW15373   2.731   5.217   0.116 -0.5582  0.4089  0.4870
 3509SOL    HW115374   2.677   5.147   0.152  1.4619 -1.1271  0.6584
 3509SOL    HW215375   2.678   5.253   0.045 -2.2005 -0.3627  1.2500
 3510SOL     OW15376   2.407   6.645   1.197  0.1384 -0.3647 -0.6551
 3510SOL    HW115377   2.324   6.646   1.245 -0.2088  0.1948 -1.2417
 3510SOL    HW215378   2.411   6.558   1.158  1.0974 -1.3438  1.4820
 3511SOL     OW15379   1.013   6.765   8.842  0.5829  0.1358  0.5610
 3511SOL    HW115380   0.988   6.728   8.926  0.3882 -1.9720 -0.3619
 3511SOL    HW215381   1.023   6.859   8.859  0.9683 -0.2860  2.9958
 3512SOL     OW15382   9.300   3.962   0.433  0.4105  0.1967  0.1908
 3512SOL    HW115383   9.259   3.951   0.519 -1.5237 -2.6631 -0.9546
 3512SOL    HW215384   9.383   3.915   0.440  0.4293  0.2787  0.5700
 3513SOL     OW15385   9.406   8.886   8.261  0.6095 -0.0779 -0.0722
 3513SOL    HW115386   9.471   8.856   8.324 -0.4213 -1.3950  0.3944
 3513SOL    HW215387   9.426   8.979   8.249  2.1784 -0.3084  0.5137
 3514SOL     OW15388   2.588   6.712   0.988  0.2633 -0.2549  0.2255
 3514SOL    HW115389   2.523   6.721   1.057 -0.7031  0.0659 -0.7050
 3514SOL    HW215390   2.636   6.795   0.989 -1.4695  0.8335 -1.1710
 3515SOL     OW15391   1.838   5.198   2.599 -0.6989 -0.6879 -0.2977
 3515SOL    HW115392   1.823   5.291   2.581  0.0207 -0.2522  1.1679
 3515SOL    HW215393   1.753   5.157   2.585 -1.0127  0.1697 -1.0252
 3516SOL     OW15394   9.290   4.334   1.340  0.4166 -0.3249 -0.4086
 3516SOL    HW115395   9.263   4.401   1.402  0.2161  1.0868 -1.9408
 3516SOL    HW215396   9.360   4.286   1.385  0.6539  1.0002  0.6880
 3517SOL     OW15397   3.748   5.897   2.245  0.1834 -0.2261 -0.0450
 3517SOL    HW115398   3.810   5.951   2.295  0.5050 -0.4219 -0.2303
 3517SOL    HW215399   3.765   5.807   2.275  0.0542 -0.2908 -0.1662
 3518SOL     OW15400   1.909   4.770   1.827 -0.2984 -1.1029  0.4141
 3518SOL    HW115401   1.959   4.694   1.796  1.1770 -0.1504  0.3471
 3518SOL    HW215402   1.953   4.845   1.786 -1.7712 -0.2108  0.4214
 3519SOL     OW15403   1.930   6.838   8.655  0.1792 -0.0745  0.3991
 3519SOL    HW115404   2.011   6.788   8.667 -0.8745 -1.7286  1.0571
 3519SOL    HW215405   1.863   6.772   8.638 -1.1219  1.2079  0.2894
 3520SOL     OW15406   8.637   8.153   1.454  0.2358 -0.4187  0.6969
 3520SOL    HW115407   8.551   8.185   1.481 -0.8913  0.2227 -3.0364
 3520SOL    HW215408   8.619   8.070   1.409  1.2122  0.5589 -1.6885
 3521SOL     OW15409   0.650   5.515   2.738  0.1236  0.3688 -0.6870
 3521SOL    HW115410   0.602   5.546   2.661 -0.1636  0.3699 -0.5075
 3521SOL    HW215411   0.583   5.505   2.806  0.6171  1.9141  0.0561
 3522SOL     OW15412   1.417   7.137   9.630  0.1658  0.6511  0.4588
 3522SOL    HW115413   1.507   7.168   9.625  0.4540 -0.2962 -0.3071
 3522SOL    HW215414   1.369   7.211   9.669  1.2069  1.2659  0.6107
 3523SOL     OW15415   2.061   6.705   0.808  0.0579 -0.5162  0.9344
 3523SOL    HW115416   1.991   6.641   0.793  0.4622 -0.6308 -0.6283
 3523SOL    HW215417   2.060   6.719   0.902 -0.2713 -2.5745  1.2877
 3524SOL     OW15418   0.255   8.576   1.986  0.0429 -0.5387  0.4086
 3524SOL    HW115419   0.227   8.628   2.061  2.0068  0.1799  0.6812
 3524SOL    HW215420   0.283   8.640   1.921 -1.0402 -1.1692 -0.7444
 3525SOL     OW15421   9.196   5.697   6.664 -0.4853 -0.2912  0.0054
 3525SOL    HW115422   9.248   5.706   6.744 -2.2919 -0.7270  1.2684
 3525SOL    HW215423   9.253   5.646   6.605  1.8020  1.9490  0.0892
 3526SOL     OW15424   1.453   5.834   3.686 -0.4674  0.7569  0.3327
 3526SOL    HW115425   1.547   5.820   3.673 -0.7468 -0.3034 -0.6642
 3526SOL    HW215426   1.429   5.897   3.618 -0.7834 -0.2470 -0.5064
 3527SOL     OW15427   2.793   5.695   4.637  0.3695  0.4853  0.2884
 3527SOL    HW115428   2.704   5.663   4.653 -0.2263  1.7344 -0.4087
 3527SOL    HW215429   2.794   5.783   4.674  1.3006  0.5193  0.2081
 3528SOL     OW15430   0.798   4.627   7.869 -0.2069  0.7088 -0.0547
 3528SOL    HW115431   0.843   4.666   7.795 -2.1007  3.3264  0.0164
 3528SOL    HW215432   0.705   4.636   7.848 -0.7721 -0.3560  1.7533
 3529SOL     OW15433   1.420   6.201   0.306  0.1170 -0.6846 -0.0693
 3529SOL    HW115434   1.446   6.293   0.316  1.4995 -1.0238 -0.4234
 3529SOL    HW215435   1.452   6.158   0.385 -1.2256 -0.7424  0.4734
 3530SOL     OW15436   0.135   6.945   8.492  0.1793  0.6167 -0.0114
 3530SOL    HW115437   0.141   7.040   8.493  3.6496  0.5529 -1.1456
 3530SOL    HW215438   0.220   6.915   8.524 -0.3057 -2.0923 -0.9466
 3531SOL     OW15439   1.076   5.371   1.353 -0.8824  0.2352 -0.0351
 3531SOL    HW115440   0.990   5.411   1.362 -0.9987 -0.2867  1.5131
 3531SOL    HW215441   1.113   5.372   1.442  0.5535  0.0986 -0.5925
 3532SOL     OW15442   0.991   6.214   3.205  0.2152 -0.8365 -0.4958
 3532SOL    HW115443   0.913   6.189   3.254 -0.0325  0.3117 -0.2758
 3532SOL    HW215444   1.044   6.264   3.267  0.6176 -0.6949 -0.9468
 3533SOL     OW15445   0.315   5.556   1.405  0.1735 -0.6531 -0.3185
 3533SOL    HW115446   0.219   5.553   1.401  0.1209 -1.1738  0.8291
 3533SOL    HW215447   0.338   5.492   1.472  1.2223  0.7022  0.6904
 3534SOL     OW15448   0.046   4.582   0.974 -0.2077  0.1817  0.5248
 3534SOL    HW115449   0.003   4.589   1.059  1.1566  1.4528  1.1492
 3534SOL    HW215450   0.035   4.491   0.949  2.0988 -1.0762  3.5459
 3535SOL     OW15451   1.070   5.862   2.838 -0.1716 -0.0287 -0.3821
 3535SOL    HW115452   1.050   5.872   2.931 -0.0240  0.4486 -0.3960
 3535SOL    HW215453   1.039   5.944   2.798  1.1667  0.4391 -0.5059
 3536SOL     OW15454   9.728   7.576   1.711  0.0329  0.6810  0.1561
 3536SOL    HW115455   9.731   7.608   1.620 -0.8981  0.8716  0.1864
 3536SOL    HW215456   9.783   7.638   1.759  0.5448  0.5725 -0.2770
 3537SOL     OW15457   2.901   8.564   0.167  0.2964 -0.1947 -0.3684
 3537SOL    HW115458   2.863   8.504   0.232 -1.2004  1.2019  0.0954
 3537SOL    HW215459   2.929   8.640   0.217  3.4862 -0.9866 -0.7504
 3538SOL     OW15460   2.118   7.216   8.362  0.0003  0.4182  0.5049
 3538SOL    HW115461   2.144   7.267   8.439  0.3482  0.1100  0.5975
 3538SOL    HW215462   2.046   7.161   8.393  0.6917 -0.3186  0.8482
 3539SOL     OW15463   0.332   6.210   1.712 -0.8799  0.3022  0.6445
 3539SOL    HW115464   0.245   6.248   1.720 -1.2227 -0.8587  3.4631
 3539SOL    HW215465   0.373   6.224   1.798  1.7144  0.7064 -0.5469
 3540SOL     OW15466   2.818   7.075   3.365  0.5101  0.4214 -0.3972
 3540SOL    HW115467   2.806   6.986   3.331  0.3753  0.5511 -0.6913
 3540SOL    HW215468   2.748   7.085   3.431  0.2584  0.4575 -0.6665
 3541SOL     OW15469   9.479   7.280   0.714  0.4069 -0.0810  0.5036
 3541SOL    HW115470   9.519   7.310   0.633  3.5476 -3.3327  0.6137
 3541SOL    HW215471   9.403   7.229   0.685  1.3747 -1.0340 -0.4399
 3542SOL     OW15472   0.020   5.996   8.299 -0.2059 -0.2016  0.1051
 3542SOL    HW115473  -0.044   6.056   8.339 -0.1250 -0.3592  0.4734
 3542SOL    HW215474   0.104   6.040   8.312 -0.1366 -0.4333  0.4554
 3543SOL     OW15475   0.553   6.814   8.267 -0.3377  0.3380  0.2540
 3543SOL    HW115476   0.645   6.789   8.260 -0.4284  0.4999 -2.3394
 3543SOL    HW215477   0.555   6.901   8.307  0.5331 -0.1310  1.2894
 3544SOL     OW15478   1.983   6.023   0.773  0.0029 -0.2658  0.5958
 3544SOL    HW115479   1.910   5.966   0.796 -1.0299  0.9764  0.5637
 3544SOL    HW215480   1.966   6.048   0.682  1.0422 -0.7777  0.2503
 3545SOL     OW15481   0.951   7.420   1.944  0.1773  0.0202 -0.4482
 3545SOL    HW115482   0.921   7.511   1.946  0.7770  0.2263  1.2303
 3545SOL    HW215483   0.894   7.375   2.006 -0.1658 -0.7767 -1.3338
 3546SOL     OW15484   2.664   6.052   8.371 -0.0906  0.7868  0.1531
 3546SOL    HW115485   2.580   6.018   8.402 -1.0119  2.7030 -0.0629
 3546SOL    HW215486   2.722   6.049   8.447 -0.9987  1.3593  0.8797
 3547SOL     OW15487   9.809   6.031   1.103  0.1935  0.1354  0.4643
 3547SOL    HW115488   9.756   6.026   1.024  0.6399 -2.0348  0.2456
 3547SOL    HW215489   9.754   5.993   1.172  0.4721  0.3644  0.8204
 3548SOL     OW15490   0.851   6.953   1.627 -0.6795  0.1259 -0.2690
 3548SOL    HW115491   0.780   6.908   1.579  0.3003 -1.5011 -0.2668
 3548SOL    HW215492   0.928   6.939   1.573  0.4035 -1.4853  1.5748
 3549SOL     OW15493   0.144   5.504   9.195  0.8395  0.7007  0.2045
 3549SOL    HW115494   0.204   5.493   9.121 -0.4925 -0.0062 -0.8287
 3549SOL    HW215495   0.195   5.479   9.272  1.7111 -0.3916 -0.6956
 3550SOL     OW15496   2.692   5.911   2.741 -0.2091 -0.5128  0.0366
 3550SOL    HW115497   2.711   5.874   2.655 -0.1482 -4.3296  1.5139
 3550SOL    HW215498   2.768   5.888   2.795 -0.4313  1.4048  1.2809
 3551SOL     OW15499   1.696   6.348   0.160 -0.1851 -0.2535 -0.1144
 3551SOL    HW115500   1.703   6.276   0.097 -0.9370  1.0469 -1.7322
 3551SOL    HW215501   1.618   6.396   0.134 -0.6860  0.1946  1.9932
 3552SOL     OW15502   1.216   5.902   1.902  0.2011  0.6291 -0.3196
 3552SOL    HW115503   1.179   5.926   1.987 -1.1039 -1.2179 -0.3066
 3552SOL    HW215504   1.310   5.918   1.911  0.0270  0.8518  1.3266
 3553SOL     OW15505   1.193   7.851   0.364  0.1158 -0.4291  0.3184
 3553SOL    HW115506   1.219   7.768   0.405  2.3630 -0.3134 -0.7362
 3553SOL    HW215507   1.149   7.824   0.284 -0.4072 -0.5934  0.6513
 3554SOL     OW15508   1.799   6.337   9.215 -0.3339  0.4217  0.3770
 3554SOL    HW115509   1.826   6.414   9.165 -1.1621  0.5687  0.1355
 3554SOL    HW215510   1.872   6.276   9.208  0.4732  1.3054  0.8316
 3555SOL     OW15511   1.461   5.888   7.648 -0.2032  0.3592 -0.5965
 3555SOL    HW115512   1.482   5.934   7.730  1.3951 -0.7060 -0.3649
 3555SOL    HW215513   1.463   5.795   7.672 -1.0007  0.0682 -1.5847
 3556SOL     OW15514   1.297   5.835   8.380 -0.4006  0.1964 -0.2765
 3556SOL    HW115515   1.255   5.903   8.433 -0.6969  0.4318 -0.8093
 3556SOL    HW215516   1.384   5.826   8.418 -0.4064  0.7787 -0.1098
 3557SOL     OW15517   4.014   7.633   1.477  0.0281  0.0018  0.0749
 3557SOL    HW115518   3.928   7.647   1.438 -0.3731  1.0686  1.2637
 3557SOL    HW215519   4.070   7.698   1.434  0.0680 -0.1897 -0.1646
 3558SOL     OW15520   2.626   8.051   0.296  0.3889  0.6351 -0.0768
 3558SOL    HW115521   2.633   8.137   0.255 -0.0282 -0.1275 -1.8239
 3558SOL    HW215522   2.584   7.996   0.231  0.9856 -1.0045  0.8485
 3559SOL     OW15523   0.906   5.584   2.746 -0.6069  0.2803 -0.7812
 3559SOL    HW115524   0.833   5.521   2.740 -0.7205  0.2052  0.9619
 3559SOL    HW215525   0.867   5.668   2.721 -0.8612 -0.0395 -1.4982
 3560SOL     OW15526   0.573   5.827   3.375 -0.0833  0.0721 -0.3372
 3560SOL    HW115527   0.520   5.780   3.311  0.7005 -2.0829  0.4681
 3560SOL    HW215528   0.632   5.760   3.411 -0.1654  1.2641  2.2901
 3561SOL     OW15529   9.526   5.041   0.830  0.0143 -0.2807 -0.9082
 3561SOL    HW115530   9.619   5.061   0.822  0.1992 -0.4348  0.5959
 3561SOL    HW215531   9.523   4.945   0.835 -0.1345 -0.2343 -0.0409
 3562SOL     OW15532   2.901   9.129   3.455 -0.2647 -0.1270 -0.3946
 3562SOL    HW115533   2.969   9.184   3.414  0.1009  0.2134  0.6403
 3562SOL    HW215534   2.835   9.192   3.485  0.1312 -0.2486  0.7477
 3563SOL     OW15535   6.055   7.384   5.534  0.4307  0.1853  0.5169
 3563SOL    HW115536   6.093   7.327   5.601  0.9895  1.5029  1.3471
 3563SOL    HW215537   5.961   7.369   5.541  0.6391 -2.4301 -0.9449
 3564SOL     OW15538   8.614   6.874   2.401 -0.2730  0.2098 -0.2053
 3564SOL    HW115539   8.650   6.835   2.321  1.7746 -3.5976  2.2624
 3564SOL    HW215540   8.674   6.946   2.421 -0.1721  0.5160 -1.4896
 3565SOL     OW15541   0.859   6.805   3.403 -0.5289  0.2577 -0.0704
 3565SOL    HW115542   0.886   6.896   3.391  0.0950 -0.1007 -1.5666
 3565SOL    HW215543   0.765   6.806   3.385 -0.3513  0.4555 -1.0217
 3566SOL     OW15544   8.687   5.987   2.188  0.1268 -0.0013 -0.0919
 3566SOL    HW115545   8.597   5.955   2.173  0.2530  0.2944 -1.6698
 3566SOL    HW215546   8.724   5.924   2.250 -1.1534 -0.1575  0.5537
 3567SOL     OW15547   0.368   5.090   1.668 -0.1160 -0.6936  0.4940
 3567SOL    HW115548   0.377   5.079   1.763 -0.5647  1.3130  0.8079
 3567SOL    HW215549   0.304   5.024   1.642  0.7390 -1.9358  1.3981
 3568SOL     OW15550   9.535   6.980   3.511  0.3741 -0.4729 -0.3452
 3568SOL    HW115551   9.534   6.896   3.557 -0.4031 -0.7168 -0.7828
 3568SOL    HW215552   9.483   7.038   3.566  0.8100 -0.3100 -0.1035
 3569SOL     OW15553   1.383   8.509   3.006  0.2345  0.1517 -0.1260
 3569SOL    HW115554   1.355   8.498   3.097  3.1055 -0.2505  0.8186
 3569SOL    HW215555   1.335   8.586   2.975 -0.9555  0.1913  1.6752
 3570SOL     OW15556   0.037   5.377   2.672  0.0180 -0.0943 -0.2716
 3570SOL    HW115557  -0.029   5.321   2.633 -0.7140  0.9271 -0.5389
 3570SOL    HW215558   0.030   5.361   2.766 -1.9072  1.3269 -0.1172
 3571SOL     OW15559   2.854   5.396   3.054 -0.5580 -0.1160 -0.0468
 3571SOL    HW115560   2.805   5.404   3.135 -1.8777 -1.0952 -0.7036
 3571SOL    HW215561   2.831   5.474   3.004  0.9814  0.9633  0.8407
 3572SOL     OW15562   0.281   4.339   4.445 -0.6508 -0.9035  0.0415
 3572SOL    HW115563   0.321   4.363   4.528 -0.9590 -1.6148  0.3977
 3572SOL    HW215564   0.345   4.368   4.379 -0.1639 -0.8223  0.5425
 3573SOL     OW15565   1.082   6.099   3.857 -0.0780  0.4750  0.1784
 3573SOL    HW115566   1.001   6.047   3.862 -0.1373  0.6172  0.7878
 3573SOL    HW215567   1.143   6.053   3.914  0.8825 -0.6565 -1.6579
 3574SOL     OW15568   0.273   7.227   4.070 -0.5350 -0.1402 -0.3820
 3574SOL    HW115569   0.359   7.213   4.028  0.2934  0.9615  0.8677
 3574SOL    HW215570   0.211   7.223   3.998  0.7989  1.3381 -1.7012
 3575SOL     OW15571   1.363   9.221   4.121 -0.1059  0.2113  0.1333
 3575SOL    HW115572   1.367   9.315   4.136 -0.1270 -0.0122  1.7232
 3575SOL    HW215573   1.454   9.192   4.126 -0.1869  0.0245  0.5386
 3576SOL     OW15574   9.501   7.073   2.810 -0.1906  0.3326  0.0538
 3576SOL    HW115575   9.549   7.141   2.857  1.3365 -1.3311  1.0276
 3576SOL    HW215576   9.533   7.079   2.720  0.0964  0.7438  0.1810
 3577SOL     OW15577   3.785   7.538   4.477 -0.3809  0.2941  0.5928
 3577SOL    HW115578   3.869   7.517   4.437 -0.1859  0.7947  0.7361
 3577SOL    HW215579   3.762   7.624   4.443 -0.1406  0.7986  1.6619
 3578SOL     OW15580   2.147   4.921   3.422 -0.5566  0.1471 -0.2154
 3578SOL    HW115581   2.210   4.993   3.433 -0.7869  0.5238 -1.2806
 3578SOL    HW215582   2.162   4.865   3.498  2.3962 -0.8235 -1.3797
 3579SOL     OW15583   2.596   7.326   0.054  0.0966  0.1030  0.0860
 3579SOL    HW115584   2.507   7.317   0.021  0.1231  0.1417  0.0024
 3579SOL    HW215585   2.639   7.245   0.030  0.3095  0.4094 -0.5875
 3580SOL     OW15586   9.076   6.712   1.232 -0.2312  0.4287  0.0131
 3580SOL    HW115587   9.111   6.627   1.258 -1.0042  0.1711  0.2415
 3580SOL    HW215588   9.151   6.771   1.237  0.4090 -0.3204 -0.5704
 3581SOL     OW15589   0.655   3.978   4.751  0.3340 -0.7757 -0.6356
 3581SOL    HW115590   0.690   3.900   4.709  0.7022 -0.6630 -0.5370
 3581SOL    HW215591   0.710   3.992   4.828  0.0526 -0.6203 -0.4585
 3582SOL     OW15592   1.457   5.742   2.040 -0.0941 -0.2908 -0.0727
 3582SOL    HW115593   1.434   5.802   2.111  0.1621  1.0977 -1.1134
 3582SOL    HW215594   1.476   5.799   1.965  0.4561 -1.6635 -1.0342
 3583SOL     OW15595   2.492   4.868   2.157  0.2707 -0.2968 -0.3026
 3583SOL    HW115596   2.472   4.806   2.088 -0.8865  1.1807 -1.3712
 3583SOL    HW215597   2.451   4.950   2.128  2.8434  1.3503  0.3783
 3584SOL     OW15598   0.637   7.499   1.509  0.0946 -0.2848  0.2550
 3584SOL    HW115599   0.587   7.580   1.510 -0.7790 -0.7677 -1.4562
 3584SOL    HW215600   0.729   7.527   1.511 -0.1996  0.6785  0.9185
 3585SOL     OW15601   9.255   7.539   4.024 -0.1471 -0.0307  0.6658
 3585SOL    HW115602   9.314   7.507   4.092 -2.1617 -1.6944  1.7776
 3585SOL    HW215603   9.224   7.624   4.058  1.2676  0.6841  0.2369
 3586SOL     OW15604   2.786   4.034   3.777 -0.6479  0.1097  0.1104
 3586SOL    HW115605   2.770   3.940   3.777  1.2642 -0.2584 -0.3229
 3586SOL    HW215606   2.704   4.072   3.744 -1.9725 -1.2463  1.6355
 3587SOL     OW15607   1.263   8.488   3.260  0.0712  0.1364 -0.0471
 3587SOL    HW115608   1.176   8.453   3.274 -0.0425 -0.0977 -1.2439
 3587SOL    HW215609   1.312   8.462   3.338 -0.1564 -2.2135 -0.6057
 3588SOL     OW15610   1.946   7.250   0.704  0.1697  0.0068 -1.2276
 3588SOL    HW115611   1.982   7.325   0.657  0.8237  0.5113  0.0239
 3588SOL    HW215612   1.993   7.174   0.670 -0.9059  0.0451 -2.9298
 3589SOL     OW15613   4.220   6.319   4.505 -1.0967 -0.4563  0.2497
 3589SOL    HW115614   4.236   6.240   4.455 -2.1218 -1.4567  1.4351
 3589SOL    HW215615   4.149   6.296   4.565 -2.1650  1.6818 -0.0855
 3590SOL     OW15616   9.857   5.722   1.248 -0.6727 -0.1599  0.3536
 3590SOL    HW115617   9.880   5.722   1.341 -0.1923  0.1145  0.2351
 3590SOL    HW215618   9.761   5.714   1.247 -0.9607  2.3745  0.9450
 3591SOL     OW15619   8.752   6.678   2.852 -0.6406  0.4646  0.6683
 3591SOL    HW115620   8.662   6.652   2.868 -0.2313 -0.6112  1.3490
 3591SOL    HW215621   8.787   6.699   2.939  0.3551 -1.1927  0.7043
 3592SOL     OW15622   0.404   6.871   5.312  0.2400 -0.7056  0.2814
 3592SOL    HW115623   0.317   6.859   5.275 -0.1094 -0.5696  1.0417
 3592SOL    HW215624   0.413   6.965   5.324 -0.1062 -0.8180  1.5824
 3593SOL     OW15625   8.708   6.099   3.378  0.5510 -0.1224  0.8837
 3593SOL    HW115626   8.787   6.145   3.351  0.0040  0.2463 -0.1383
 3593SOL    HW215627   8.730   6.006   3.371  0.9884 -0.0232  0.9126
 3594SOL     OW15628   2.305   4.863   4.099  0.2694  0.1325 -0.7101
 3594SOL    HW115629   2.301   4.882   4.005 -3.3758 -0.8256 -0.8711
 3594SOL    HW215630   2.239   4.920   4.139  0.3113 -0.9182  0.9776
 3595SOL     OW15631   1.377   6.895   2.823 -0.2261 -0.1380 -0.1167
 3595SOL    HW115632   1.411   6.982   2.803  2.5006 -1.1682 -0.3586
 3595SOL    HW215633   1.302   6.911   2.881 -0.4238  2.3717 -0.9670
 3596SOL     OW15634   2.956   4.779   2.291  1.2535 -0.3315  0.1223
 3596SOL    HW115635   2.995   4.812   2.210  1.1246 -0.6208 -0.0559
 3596SOL    HW215636   2.884   4.840   2.309 -0.2109 -1.5700 -1.2343
 3597SOL     OW15637   9.625   7.332   3.239 -0.3647  0.3714 -0.2143
 3597SOL    HW115638   9.582   7.363   3.318 -1.2309  0.9219 -0.8825
 3597SOL    HW215639   9.683   7.262   3.269 -1.2814  0.0147  0.8008
 3598SOL     OW15640   2.428   5.927   3.227 -0.2043 -0.0932  0.2294
 3598SOL    HW115641   2.370   5.901   3.154 -1.1351  0.4947  0.7399
 3598SOL    HW215642   2.509   5.880   3.210 -0.8620 -1.0393 -0.4578
 3599SOL     OW15643   2.516   7.810   3.424 -0.5675 -0.3371 -0.2321
 3599SOL    HW115644   2.523   7.770   3.337  2.2230  2.0265 -1.2499
 3599SOL    HW215645   2.434   7.859   3.421 -1.7999 -2.2809 -0.5135
 3600SOL     OW15646   9.678   4.653   3.545 -0.0568 -0.1395  0.5688
 3600SOL    HW115647   9.770   4.644   3.521  0.1536  2.1866  0.2968
 3600SOL    HW215648   9.631   4.642   3.463 -0.0950 -1.8147  0.7860
 3601SOL     OW15649   9.187   6.304   3.602  0.2720 -0.0159  0.3322
 3601SOL    HW115650   9.214   6.298   3.511 -0.1566 -0.0225  0.2020
 3601SOL    HW215651   9.116   6.241   3.611 -0.6883  1.0196  0.2870
 3602SOL     OW15652   9.119   5.899   3.573  0.2029 -0.5065  0.0391
 3602SOL    HW115653   9.072   5.965   3.623 -2.4981 -0.4295 -2.3193
 3602SOL    HW215654   9.185   5.948   3.524  0.2677 -0.0276  0.5983
 3603SOL     OW15655   9.485   5.358   9.226 -0.6110 -0.1504  0.0422
 3603SOL    HW115656   9.404   5.361   9.175  0.1177 -1.6207 -1.3018
 3603SOL    HW215657   9.499   5.265   9.243  0.2828  0.1601  1.1420
 3604SOL     OW15658   9.844   6.455   2.238 -0.7254 -0.1865  0.1845
 3604SOL    HW115659   9.904   6.506   2.292  1.2949 -1.1008 -1.0523
 3604SOL    HW215660   9.817   6.515   2.169  1.3998 -0.5818 -1.0868
 3605SOL     OW15661   8.363   6.243   3.871 -0.3400 -0.4060  0.7215
 3605SOL    HW115662   8.365   6.304   3.797  0.3431 -0.4851  0.6693
 3605SOL    HW215663   8.381   6.158   3.832 -2.4626 -0.8586  0.6086
 3606SOL     OW15664   0.770   6.466   2.882 -0.0262 -0.1389  0.4150
 3606SOL    HW115665   0.806   6.551   2.856 -0.1973 -0.1147  0.2549
 3606SOL    HW215666   0.706   6.445   2.814 -0.3840 -0.1373  0.7474
 3607SOL     OW15667   0.827   7.249   4.007 -0.1656 -0.3495 -0.2698
 3607SOL    HW115668   0.852   7.158   4.025  3.0674  0.8173  2.2403
 3607SOL    HW215669   0.887   7.277   3.938  0.8266  0.5370  0.8856
 3608SOL     OW15670   1.596   6.494   3.476  0.0225 -0.2934  0.2842
 3608SOL    HW115671   1.605   6.437   3.552 -2.6672 -0.1265  0.8190
 3608SOL    HW215672   1.589   6.582   3.512 -1.7253 -0.2560 -0.0786
 3609SOL     OW15673   0.771   7.755   3.457  0.0470  0.2667 -0.1278
 3609SOL    HW115674   0.727   7.837   3.437  0.2637  0.2479 -0.6903
 3609SOL    HW215675   0.793   7.762   3.550 -1.6376  0.0394  0.3251
 3610SOL     OW15676   0.284   7.079   2.982 -0.2362 -0.1971  0.7392
 3610SOL    HW115677   0.279   7.174   2.979  0.4860 -0.1574  0.6309
 3610SOL    HW215678   0.256   7.051   2.895 -1.5969 -0.1571  1.1305
 3611SOL     OW15679   2.095   8.209   4.270 -0.4165  0.3428 -0.1846
 3611SOL    HW115680   2.134   8.242   4.189  0.0887 -0.0109 -0.0937
 3611SOL    HW215681   2.065   8.288   4.316 -0.0415  0.6033 -0.3826
 3612SOL     OW15682   8.779   7.187   4.857  0.0650 -0.1701  0.0470
 3612SOL    HW115683   8.712   7.195   4.925 -0.0643 -2.1936  0.2298
 3612SOL    HW215684   8.744   7.120   4.798  2.5219 -2.4310  0.9716
 3613SOL     OW15685   0.147   4.868   2.838  0.9214  0.4277 -0.2112
 3613SOL    HW115686   0.139   4.951   2.789 -0.8501  1.7278  2.0768
 3613SOL    HW215687   0.082   4.810   2.797  1.6316  0.4125 -1.3428
 3614SOL     OW15688   9.474   6.568   2.103  0.3212 -0.4567  0.3958
 3614SOL    HW115689   9.479   6.475   2.080 -0.0287  0.0919 -2.2169
 3614SOL    HW215690   9.387   6.579   2.142 -0.8751 -0.7830 -1.9801
 3615SOL     OW15691   0.569   6.960   3.060 -0.2621 -0.1421 -0.4005
 3615SOL    HW115692   0.492   7.016   3.062 -0.7016 -0.7395  1.4358
 3615SOL    HW215693   0.559   6.907   2.982 -1.6597 -0.1203 -0.2547
 3616SOL     OW15694   2.255   4.102   1.103  0.7165 -0.4421  0.3017
 3616SOL    HW115695   2.243   4.188   1.143  0.9286  0.1196 -0.8034
 3616SOL    HW215696   2.167   4.064   1.100  0.7278 -0.5964  1.4816
 3617SOL     OW15697   0.028   8.259   4.232 -0.2031 -0.2097 -0.2250
 3617SOL    HW115698  -0.007   8.293   4.149 -1.0535 -1.9191 -0.6091
 3617SOL    HW215699   0.122   8.251   4.216 -0.2924 -0.0524 -0.8623
 3618SOL     OW15700   1.322   8.420   1.288  0.4417  0.0696 -0.1291
 3618SOL    HW115701   1.322   8.513   1.266 -1.3212  0.1133 -0.1216
 3618SOL    HW215702   1.330   8.418   1.384  1.8218  0.1400 -0.2299
 3619SOL     OW15703   0.849   5.876   1.803  0.0437  0.1441  0.0773
 3619SOL    HW115704   0.826   5.783   1.803 -1.4558  0.3298 -3.6073
 3619SOL    HW215705   0.794   5.915   1.871 -2.0521 -1.1845 -0.7730
 3620SOL     OW15706   1.240   5.254   4.731 -0.6134 -0.6084  0.5895
 3620SOL    HW115707   1.224   5.244   4.637 -0.6780  0.2542  0.4951
 3620SOL    HW215708   1.154   5.246   4.771 -0.5517 -1.2396  0.6080
 3621SOL     OW15709   1.325   5.505   1.948  0.2243 -0.0096  0.4036
 3621SOL    HW115710   1.314   5.507   2.043  2.0244  1.3364  0.6413
 3621SOL    HW215711   1.367   5.588   1.926 -1.3871  0.3138 -1.7833
 3622SOL     OW15712   1.025   7.089   5.107  0.2213  0.2101  0.3574
 3622SOL    HW115713   1.086   7.090   5.034  0.0475 -1.5823  0.1512
 3622SOL    HW215714   0.945   7.050   5.072 -0.1564  0.1324  1.2670
 3623SOL     OW15715   8.463   9.385   1.003  0.4234  0.0110 -0.2932
 3623SOL    HW115716   8.384   9.412   0.955 -1.1697 -2.3029  0.8381
 3623SOL    HW215717   8.489   9.463   1.051 -0.7906  1.0313 -1.2099
 3624SOL     OW15718   1.056   5.587   2.986 -0.7031  0.5854  0.1604
 3624SOL    HW115719   0.974   5.569   3.032 -0.6973  3.2459  1.4037
 3624SOL    HW215720   1.033   5.581   2.893 -2.0522  0.3607  0.4868
 3625SOL     OW15721   1.024   6.180   3.577  0.8125  0.0788 -0.3982
 3625SOL    HW115722   1.063   6.127   3.647 -1.1983 -0.9487  0.0237
 3625SOL    HW215723   0.930   6.173   3.591  0.3047 -0.3291 -3.2974
 3626SOL     OW15724   8.104   5.853   3.237 -0.2423 -0.0887  0.0324
 3626SOL    HW115725   8.156   5.829   3.313  0.9676 -0.1412 -0.7841
 3626SOL    HW215726   8.014   5.858   3.270  0.4507  1.5689  1.8384
 3627SOL     OW15727   2.078   4.266   2.084  0.2488  0.6162 -0.0757
 3627SOL    HW115728   2.093   4.342   2.141  0.2087 -0.7476  1.8225
 3627SOL    HW215729   1.983   4.253   2.087  0.3964 -0.4378  0.9291
 3628SOL     OW15730   1.854   8.115   3.105 -0.1796 -0.1269 -0.1808
 3628SOL    HW115731   1.799   8.138   3.180 -0.1135 -2.2579  0.6055
 3628SOL    HW215732   1.795   8.067   3.047 -0.7171  3.0114 -2.4815
 3629SOL     OW15733   1.154   6.989   2.927 -0.6786  0.1282 -0.6737
 3629SOL    HW115734   1.126   6.920   2.987  3.5995  0.1295  1.6650
 3629SOL    HW215735   1.141   7.071   2.976  0.0637  0.4174 -0.9465
 3630SOL     OW15736   0.098   4.807   3.152 -0.3712 -0.4656  0.5568
 3630SOL    HW115737   0.120   4.719   3.182  0.9806  0.1126  1.3346
 3630SOL    HW215738   0.118   4.806   3.058  1.0671 -0.5877  0.8374
 3631SOL     OW15739   9.451   9.120   2.889 -0.7473 -0.6115 -0.0221
 3631SOL    HW115740   9.465   9.026   2.874  0.8737 -0.5378  0.8805
 3631SOL    HW215741   9.377   9.142   2.832 -0.5413 -2.2305 -0.9762
 3632SOL     OW15742   0.389   5.735   3.076 -0.0443 -0.3746  0.3404
 3632SOL    HW115743   0.319   5.799   3.093 -0.4716 -1.1809  1.8094
 3632SOL    HW215744   0.356   5.653   3.114  0.9875 -1.1969 -0.4681
 3633SOL     OW15745   2.397   5.352   3.671  0.5924 -0.3274 -0.5148
 3633SOL    HW115746   2.344   5.432   3.674  0.1092 -0.6325 -0.7378
 3633SOL    HW215747   2.333   5.281   3.681  1.2878 -0.6374  2.4955
 3634SOL     OW15748   1.301   4.913   3.770  0.6688 -0.0756 -0.1896
 3634SOL    HW115749   1.325   4.884   3.859 -0.2584 -0.3332 -0.0147
 3634SOL    HW215750   1.228   4.857   3.746  1.5977 -0.7546 -1.5652
 3635SOL     OW15751   7.859   6.080   4.120 -0.1634  0.2814  0.2608
 3635SOL    HW115752   7.944   6.046   4.150 -0.5182 -0.0336  0.9409
 3635SOL    HW215753   7.796   6.011   4.144 -0.1531 -1.4709 -3.9144
 3636SOL     OW15754   3.499   2.168   2.966 -0.2877  0.1025  0.1252
 3636SOL    HW115755   3.538   2.134   2.886  2.4201 -0.6319  1.6084
 3636SOL    HW215756   3.486   2.090   3.021  2.1650  0.8953  2.0260
 3637SOL     OW15757   0.425   6.170   2.902 -0.5350  0.3761 -0.1911
 3637SOL    HW115758   0.385   6.122   2.830  1.4175 -0.4282 -0.7845
 3637SOL    HW215759   0.369   6.149   2.978  1.1522 -4.5251  0.0610
 3638SOL     OW15760   2.322   6.349   1.035 -0.6616  0.4473 -0.6091
 3638SOL    HW115761   2.271   6.284   0.987  0.6338 -1.2895  0.2731
 3638SOL    HW215762   2.411   6.314   1.037  0.6201  3.3031 -1.9704
 3639SOL     OW15763   1.024   7.069   3.404  0.0236  0.1224 -0.1281
 3639SOL    HW115764   0.989   7.050   3.491  0.9895 -0.3814  0.1533
 3639SOL    HW215765   0.950   7.107   3.357  0.1852  3.1252  1.7885
 3640SOL     OW15766   1.318   4.586   2.908 -0.4130  0.2141 -0.5900
 3640SOL    HW115767   1.388   4.544   2.957 -0.2369  3.5441  2.3921
 3640SOL    HW215768   1.239   4.570   2.959 -0.9263  0.6223 -1.2404
 3641SOL     OW15769   0.497   7.761   3.106  0.7193  0.8705 -0.0865
 3641SOL    HW115770   0.554   7.701   3.154  1.5203  0.5372 -1.3877
 3641SOL    HW215771   0.408   7.732   3.127  0.9993  1.2572  1.7984
 3642SOL     OW15772   1.356   6.360   3.764  0.4935  0.3334  0.1555
 3642SOL    HW115773   1.428   6.304   3.736  0.0184 -0.7936  1.1040
 3642SOL    HW215774   1.398   6.440   3.794  1.3155 -0.1256  0.2545
 3643SOL     OW15775   1.329   4.506   0.668  0.4203 -0.0400  0.1395
 3643SOL    HW115776   1.387   4.430   0.674 -0.8314 -1.1414 -1.0153
 3643SOL    HW215777   1.384   4.575   0.632  1.4116 -0.5890  0.5471
 3644SOL     OW15778   1.249   7.674   3.289 -0.3576  0.4930  0.0878
 3644SOL    HW115779   1.226   7.581   3.290 -0.1132  0.3826 -1.6640
 3644SOL    HW215780   1.168   7.718   3.261 -0.2154  0.7172  0.0253
 3645SOL     OW15781   9.100   8.609   3.982 -0.4274 -0.1628 -0.2027
 3645SOL    HW115782   9.148   8.556   3.919  0.1051  0.9019 -0.7185
 3645SOL    HW215783   9.010   8.608   3.951 -0.1434  0.4730 -1.0727
 3646SOL     OW15784   1.171   5.196   4.462 -0.1326  0.2363 -0.1723
 3646SOL    HW115785   1.257   5.157   4.449 -0.3251  0.0775 -0.9828
 3646SOL    HW215786   1.110   5.134   4.423 -0.7832 -0.4515  1.8162
 3647SOL     OW15787   0.752   6.262   2.548  0.1028 -0.1754 -1.0206
 3647SOL    HW115788   0.684   6.268   2.615  1.1088 -2.3103  0.2981
 3647SOL    HW215789   0.792   6.349   2.547  1.0824 -0.4459  2.3672
 3648SOL     OW15790   9.853   6.432   3.328  0.0774  0.4158 -0.2605
 3648SOL    HW115791   9.852   6.339   3.305  1.4545  0.8091 -2.1389
 3648SOL    HW215792   9.939   6.463   3.300 -0.1766  2.1761  0.7627
 3649SOL     OW15793   1.038   5.236   3.062 -0.0814  0.5421 -0.1489
 3649SOL    HW115794   0.954   5.237   3.016  0.2013 -0.2161 -0.7053
 3649SOL    HW215795   1.015   5.222   3.154 -0.5731  0.5964 -0.2624
 3650SOL     OW15796   9.317   9.463   2.769 -0.3511  0.0113  0.6596
 3650SOL    HW115797   9.261   9.394   2.803  0.5407 -0.6293  0.8580
 3650SOL    HW215798   9.311   9.453   2.674  0.2704 -0.7487  0.6978
 3651SOL     OW15799   0.905   6.535   2.098 -0.2836  0.4181 -0.6488
 3651SOL    HW115800   0.877   6.615   2.054  0.0368  0.6898 -0.3635
 3651SOL    HW215801   0.826   6.504   2.143  0.0125  1.5665  0.7395
 3652SOL     OW15802   3.284   5.154   3.928 -0.1732 -0.1657  0.0373
 3652SOL    HW115803   3.280   5.208   3.849  1.0339 -0.6952 -0.4127
 3652SOL    HW215804   3.371   5.115   3.925 -0.2710 -0.5221  1.4244
 3653SOL     OW15805   1.586   7.183   3.879 -0.4971  0.7235 -0.1668
 3653SOL    HW115806   1.516   7.161   3.818  0.4985  1.2136 -1.5141
 3653SOL    HW215807   1.578   7.278   3.891 -0.0162  0.7920 -0.3783
 3654SOL     OW15808   1.415   7.214   3.630  0.6217  0.2343 -0.2756
 3654SOL    HW115809   1.464   7.293   3.608  0.9863  0.1094  0.0734
 3654SOL    HW215810   1.337   7.245   3.675  0.9372  0.3801  0.1788
 3655SOL     OW15811   0.143   6.980   2.763 -0.3251  0.6192 -0.4114
 3655SOL    HW115812   0.110   7.047   2.702 -1.8290  0.4056  0.1286
 3655SOL    HW215813   0.164   6.905   2.708 -0.7036  0.7865 -0.7888
 3656SOL     OW15814   0.601   5.514   1.925  0.1173  0.3691  0.1912
 3656SOL    HW115815   0.694   5.537   1.921 -0.2381  1.6711 -1.3840
 3656SOL    HW215816   0.600   5.425   1.962  2.1717 -0.7209 -2.0714
 3657SOL     OW15817   1.393   6.669   2.274 -0.4983 -0.2503  0.6689
 3657SOL    HW115818   1.392   6.711   2.360  0.2484 -1.3401  1.2358
 3657SOL    HW215819   1.305   6.683   2.239 -1.8929 -2.3951  2.9399
 3658SOL     OW15820   9.253   7.986   4.712  0.0964  0.4084  0.0238
 3658SOL    HW115821   9.303   7.969   4.633  0.0240  2.5934 -0.5488
 3658SOL    HW215822   9.314   7.966   4.784  1.0471  0.9457 -0.6204
 3659SOL     OW15823   4.528   6.790   2.066  0.0668  0.0013  0.9727
 3659SOL    HW115824   4.468   6.779   1.992 -0.3838 -0.3838  1.3903
 3659SOL    HW215825   4.590   6.857   2.036 -0.6135  0.4671  0.5662
 3660SOL     OW15826   2.012   5.799   2.344 -0.0896 -0.4946  0.0071
 3660SOL    HW115827   1.955   5.731   2.308  0.1804 -0.3442 -0.7278
 3660SOL    HW215828   2.017   5.865   2.275  1.4724 -0.8017 -0.1983
 3661SOL     OW15829   2.493   6.481   3.329  0.1789  0.3176  0.5440
 3661SOL    HW115830   2.525   6.391   3.339  0.5048  0.1404 -1.7115
 3661SOL    HW215831   2.401   6.471   3.304  0.7166  0.4981 -1.6502
 3662SOL     OW15832   1.264   6.072   2.468  0.5038 -0.2146 -0.0415
 3662SOL    HW115833   1.274   6.043   2.377  1.3204 -1.4542  0.4168
 3662SOL    HW215834   1.252   5.992   2.518 -2.5311  0.5581  0.7034
 3663SOL     OW15835   7.842   6.041   2.736 -0.1444 -0.6425  0.6631
 3663SOL    HW115836   7.878   5.957   2.765 -0.2461 -1.5347 -1.5649
 3663SOL    HW215837   7.754   6.020   2.705 -0.6377  0.5405  1.2025
 3664SOL     OW15838   5.229   7.769   3.821 -0.2896 -0.5218 -0.7056
 3664SOL    HW115839   5.243   7.858   3.788  0.2053  0.2506  1.3863
 3664SOL    HW215840   5.311   7.746   3.864 -1.3027 -0.8126  1.2232
 3665SOL     OW15841   2.957   5.220   2.558  0.2350 -0.5394 -0.0392
 3665SOL    HW115842   2.991   5.135   2.585  2.0621 -1.1779 -3.6542
 3665SOL    HW215843   2.884   5.199   2.500 -0.1970  0.4150  0.1436
 3666SOL     OW15844   0.076   3.073   2.980 -0.0459 -0.5092  0.3278
 3666SOL    HW115845   0.016   3.049   2.909 -1.2586  0.6809  0.9152
 3666SOL    HW215846   0.163   3.068   2.940 -0.4118 -2.9708 -0.3488
 3667SOL     OW15847   0.097   4.642   4.455  0.0127 -0.4993  0.3665
 3667SOL    HW115848   0.125   4.551   4.459 -0.1249 -0.4914  1.9206
 3667SOL    HW215849   0.114   4.677   4.542  0.4652  1.1022 -0.3241
 3668SOL     OW15850   2.984   4.971   2.691  0.0662 -0.2214 -0.1710
 3668SOL    HW115851   2.901   4.925   2.675 -0.9226  1.8602 -1.5492
 3668SOL    HW215852   3.025   4.923   2.763 -1.9451 -1.8132  0.0088
 3669SOL     OW15853   3.974   8.316   5.595  0.6015  0.6588 -0.1064
 3669SOL    HW115854   4.067   8.337   5.589  0.5559  1.0391  0.4609
 3669SOL    HW215855   3.943   8.364   5.672  0.7556 -2.4372  2.0565
 3670SOL     OW15856   0.413   4.403   1.681 -0.5921 -0.2449 -0.3395
 3670SOL    HW115857   0.436   4.429   1.770  0.1919  0.2053 -0.6605
 3670SOL    HW215858   0.335   4.349   1.691  0.6697 -1.9637  0.8592
 3671SOL     OW15859   2.005   6.445   2.315 -0.5790  0.1895  0.0248
 3671SOL    HW115860   2.079   6.388   2.335 -1.0497 -0.8166 -0.9952
 3671SOL    HW215861   2.043   6.532   2.310 -0.0609  0.2505  2.9985
 3672SOL     OW15862   0.217   5.854   3.282  0.1881  0.2568 -0.4561
 3672SOL    HW115863   0.287   5.918   3.294  0.2268 -0.0790  1.4997
 3672SOL    HW215864   0.157   5.870   3.355 -0.0566 -1.5737 -0.1948
 3673SOL     OW15865   9.390   6.688   2.647 -0.0012  0.1735 -0.3560
 3673SOL    HW115866   9.388   6.773   2.691 -0.8682 -0.5730  1.1370
 3673SOL    HW215867   9.385   6.709   2.554  1.1885  1.7997 -0.1002
 3674SOL     OW15868   1.108   0.244   3.176  0.3782  0.4460  0.0747
 3674SOL    HW115869   1.088   0.168   3.230 -0.2661  0.7400  0.2683
 3674SOL    HW215870   1.065   0.317   3.221  0.9415  0.9174 -0.1342
 3675SOL     OW15871   0.808   5.769   4.382 -0.7771  0.4009  0.4028
 3675SOL    HW115872   0.789   5.845   4.327  0.8673 -0.5170 -1.6109
 3675SOL    HW215873   0.830   5.700   4.319 -0.3531 -1.1856  2.2120
 3676SOL     OW15874   1.286   6.638   0.674  0.3074  0.1982  0.5669
 3676SOL    HW115875   1.232   6.705   0.633 -0.3557 -0.1471  0.8579
 3676SOL    HW215876   1.228   6.595   0.738  0.9140 -0.1968  0.8699
 3677SOL     OW15877   2.227   5.788   1.579 -0.1157  0.3321  0.0771
 3677SOL    HW115878   2.295   5.854   1.596 -1.5075  1.3990  1.9671
 3677SOL    HW215879   2.149   5.822   1.624 -1.8468 -0.9911 -1.7448
 3678SOL     OW15880   1.563   7.030   2.107  0.0449 -0.6175  0.3811
 3678SOL    HW115881   1.538   7.118   2.079  0.8663 -0.7410 -0.8630
 3678SOL    HW215882   1.494   6.974   2.072  0.9606 -0.7466 -1.3675
 3679SOL     OW15883   9.577   5.961   3.070 -0.0331 -0.4960  0.8256
 3679SOL    HW115884   9.548   5.875   3.039 -0.5774  0.0222 -0.1400
 3679SOL    HW215885   9.517   6.023   3.028  1.2889  0.4773  0.3139
 3680SOL     OW15886   0.362   5.508   2.843  0.0324 -0.0760  0.0187
 3680SOL    HW115887   0.329   5.572   2.780  0.2290 -0.7473 -0.7689
 3680SOL    HW215888   0.284   5.463   2.875 -0.0398  0.0627  0.0396
 3681SOL     OW15889   0.218   4.262   4.740 -0.3070  0.3123 -0.4449
 3681SOL    HW115890   0.310   4.254   4.714 -0.0538 -1.7020  0.8016
 3681SOL    HW215891   0.214   4.344   4.789  1.5813 -0.9443  2.0259
 3682SOL     OW15892   8.292   6.762   0.459 -0.4751  0.0296 -0.1062
 3682SOL    HW115893   8.364   6.715   0.500 -0.1567  1.2136  0.7398
 3682SOL    HW215894   8.336   6.825   0.401 -0.7996  1.0077  0.6906
 3683SOL     OW15895   2.316   6.812   9.510  0.6304  0.4906 -0.3437
 3683SOL    HW115896   2.269   6.799   9.427 -1.3194  1.9358  0.4631
 3683SOL    HW215897   2.405   6.780   9.492  0.4817  1.3908 -3.1865
 3684SOL     OW15898   0.163   6.342   2.026 -0.2945  0.2290 -0.5035
 3684SOL    HW115899   0.084   6.318   2.076 -0.1031 -0.2077 -0.4011
 3684SOL    HW215900   0.167   6.437   2.032 -1.6924  0.4156 -1.8411
 3685SOL     OW15901   1.078   5.419   2.424  0.6341  0.0153  0.5101
 3685SOL    HW115902   1.050   5.408   2.333  0.4706  0.8780  0.4504
 3685SOL    HW215903   1.126   5.338   2.444  0.8290 -0.1030 -0.3968
 3686SOL     OW15904   1.682   3.879   4.973 -0.0288  0.6189  0.3564
 3686SOL    HW115905   1.684   3.783   4.979  0.9961  0.5529 -0.5986
 3686SOL    HW215906   1.591   3.903   4.988 -1.0805 -0.7970 -2.9947
 3687SOL     OW15907   1.540   8.283   5.265  0.5218 -0.3851 -0.0690
 3687SOL    HW115908   1.495   8.245   5.190  0.5270 -0.5092 -0.0100
 3687SOL    HW215909   1.502   8.370   5.274 -0.3618 -0.8137  0.5347
 3688SOL     OW15910   1.142   6.246   0.635 -0.1716 -0.0721  0.1627
 3688SOL    HW115911   1.072   6.309   0.652  1.3782  1.8288 -0.0922
 3688SOL    HW215912   1.164   6.260   0.543  0.5404 -0.6690  0.2326
 3689SOL     OW15913   1.524   7.494   2.508  0.4491  0.0053  0.2155
 3689SOL    HW115914   1.443   7.515   2.461  0.8678 -0.1954 -0.6183
 3689SOL    HW215915   1.590   7.482   2.439  1.3000  0.6144  0.8907
 3690SOL     OW15916   3.804   8.328   2.992  0.2560 -0.1957 -0.5669
 3690SOL    HW115917   3.732   8.328   2.928 -1.7439  1.5300  1.5179
 3690SOL    HW215918   3.799   8.242   3.033 -0.6838 -0.0757 -0.4072
 3691SOL     OW15919   1.236   8.930   4.609 -0.3713  0.0173 -0.2035
 3691SOL    HW115920   1.175   8.866   4.643  0.5764 -0.9923 -0.3615
 3691SOL    HW215921   1.297   8.880   4.555 -0.4652  1.2423 -1.5206
 3692SOL     OW15922   9.765   6.206   1.396  0.6730  0.6669 -0.1071
 3692SOL    HW115923   9.722   6.202   1.481  0.5547 -0.8567 -0.2176
 3692SOL    HW215924   9.728   6.285   1.355  0.4405  1.2020  1.0738
 3693SOL     OW15925   1.183   7.330   2.899  0.0292  0.1976 -0.0559
 3693SOL    HW115926   1.115   7.284   2.949  1.1787 -1.1414  0.3261
 3693SOL    HW215927   1.259   7.329   2.956  0.3378  1.8409 -0.4144
 3694SOL     OW15928   3.708   6.550   3.057  0.0639  0.0749  0.7580
 3694SOL    HW115929   3.765   6.619   3.090  2.3956 -2.1281  1.7179
 3694SOL    HW215930   3.655   6.524   3.132 -2.4576  2.1424 -0.1397
 3695SOL     OW15931   3.745   7.187   3.810  0.3839  0.0874 -0.0595
 3695SOL    HW115932   3.674   7.193   3.746 -0.4667  1.5453  0.9553
 3695SOL    HW215933   3.702   7.200   3.895  1.9065  1.6593  0.5437
 3696SOL     OW15934   8.633   5.950   1.666  0.4139 -0.0269 -0.0091
 3696SOL    HW115935   8.567   5.914   1.606  0.9845 -0.5778 -0.3116
 3696SOL    HW215936   8.659   5.876   1.720  1.8810 -0.1930 -0.8947
 3697SOL     OW15937   0.722   8.787   4.746  0.1155  0.4138  0.6480
 3697SOL    HW115938   0.627   8.771   4.747 -0.2410  2.1618 -0.3700
 3697SOL    HW215939   0.759   8.707   4.708 -0.9972 -0.1410  0.6733
 3698SOL     OW15940   1.259   5.062   9.719  0.2381  0.6964  0.4022
 3698SOL    HW115941   1.194   5.056   9.649  0.6420  1.5059 -0.0600
 3698SOL    HW215942   1.212   5.035   9.798 -0.3003  0.0381 -0.1285
 3699SOL     OW15943   1.984   7.547   1.568 -0.4718 -0.0691  0.0868
 3699SOL    HW115944   2.041   7.478   1.600 -0.4551 -1.0816 -1.9667
 3699SOL    HW215945   1.907   7.544   1.626  0.9941  0.5651  2.1619
 3700SOL     OW15946   0.573   8.018   3.152  0.1248  0.0631 -0.6530
 3700SOL    HW115947   0.528   7.935   3.141 -1.6487  1.0236 -0.9861
 3700SOL    HW215948   0.602   8.018   3.243 -1.2921 -0.2493 -0.1783
 3701SOL     OW15949   1.205   6.341   1.503 -0.1899 -0.0061 -0.3428
 3701SOL    HW115950   1.117   6.378   1.497 -0.5701 -0.6499  0.8578
 3701SOL    HW215951   1.259   6.413   1.536 -0.5763 -0.0095  0.3231
 3702SOL     OW15952   0.713   8.174   4.788  0.3816 -0.0954  0.7083
 3702SOL    HW115953   0.668   8.091   4.803 -1.2769 -0.1491 -3.2602
 3702SOL    HW215954   0.656   8.240   4.828  0.3351 -0.6570  1.5890
 3703SOL     OW15955   0.621   8.487   2.367 -0.2624  0.1878  0.1031
 3703SOL    HW115956   0.620   8.577   2.335 -0.0856  0.6456  1.3225
 3703SOL    HW215957   0.531   8.470   2.394 -0.0134  0.5093  1.1862
 3704SOL     OW15958   1.981   5.755   1.315  0.2343 -0.4444 -0.4876
 3704SOL    HW115959   2.025   5.835   1.285 -0.7388  0.9365  1.5439
 3704SOL    HW215960   2.027   5.730   1.394 -1.2405 -0.1597  0.5186
 3705SOL     OW15961   0.533   5.415   2.314  0.0095 -0.5553 -0.0484
 3705SOL    HW115962   0.519   5.366   2.232  0.6928 -0.0742 -0.4645
 3705SOL    HW215963   0.622   5.391   2.340  1.8800  3.1477 -2.2046
 3706SOL     OW15964   8.371   7.072   2.416 -0.4362 -1.3670 -0.3491
 3706SOL    HW115965   8.391   7.014   2.342 -1.9073 -1.9418 -0.3219
 3706SOL    HW215966   8.457   7.092   2.455  0.4359 -0.7320 -2.4210
 3707SOL     OW15967   2.793   5.427   1.641  0.1011 -0.4157 -0.6395
 3707SOL    HW115968   2.739   5.349   1.629 -0.5255 -0.4278  1.7054
 3707SOL    HW215969   2.806   5.433   1.736  1.1309  1.6707 -0.8478
 3708SOL     OW15970   1.475   5.781   2.444  0.2782  0.0555  0.7097
 3708SOL    HW115971   1.483   5.842   2.371  1.9938 -0.1852  0.6765
 3708SOL    HW215972   1.390   5.803   2.483 -1.1125 -0.4064 -1.8358
 3709SOL     OW15973   0.311   7.885   2.575  0.5124 -1.0782 -0.1398
 3709SOL    HW115974   0.323   7.972   2.537 -1.4496 -0.1445  1.1881
 3709SOL    HW215975   0.244   7.844   2.521 -0.2159 -0.8490  0.5669
 3710SOL     OW15976   2.865   5.824   2.532 -0.1399  0.0193  0.5494
 3710SOL    HW115977   2.945   5.774   2.548  1.3327  1.3458 -1.9693
 3710SOL    HW215978   2.872   5.851   2.440 -2.0248  2.7421  1.0892
 3711SOL     OW15979   0.896   5.588   2.215 -0.1368  0.0800  0.1899
 3711SOL    HW115980   0.883   5.553   2.303  0.4725  0.1424  0.3058
 3711SOL    HW215981   0.968   5.650   2.224 -0.6587  0.7545 -0.1791
 3712SOL     OW15982   1.495   5.103   3.755 -0.0768  0.4151  0.2288
 3712SOL    HW115983   1.457   5.138   3.675 -1.1744 -0.6203  0.2528
 3712SOL    HW215984   1.442   5.025   3.774  1.5501 -0.6030  0.7700
 3713SOL     OW15985   9.755   6.094   2.106  0.2378  0.0236  0.1771
 3713SOL    HW115986   9.817   6.021   2.113 -0.3894 -0.5018  0.4204
 3713SOL    HW215987   9.734   6.099   2.013 -0.5190 -0.8023  0.2951
 3714SOL     OW15988   3.032   6.668   4.466  0.0227 -0.3831 -0.5768
 3714SOL    HW115989   3.066   6.693   4.380  0.4312 -1.6341 -0.7914
 3714SOL    HW215990   2.938   6.656   4.452  0.0590 -0.4156 -0.8016
 3715SOL     OW15991   2.954   5.310   3.672  0.2414 -0.1616 -0.5709
 3715SOL    HW115992   2.916   5.244   3.731  0.7921  0.4294  0.4741
 3715SOL    HW215993   2.879   5.354   3.633 -0.1343 -0.5976 -0.3472
 3716SOL     OW15994   0.128   3.396   5.906 -0.3437 -0.2808  0.2686
 3716SOL    HW115995   0.133   3.481   5.949  1.0758 -0.7518  1.1010
 3716SOL    HW215996   0.147   3.415   5.814 -0.2684  0.3298  0.4053
 3717SOL     OW15997   0.208   8.048   3.082  0.2204  0.0073 -0.7766
 3717SOL    HW115998   0.271   8.092   3.025 -0.5088  0.8201 -0.9872
 3717SOL    HW215999   0.233   8.074   3.171 -0.5749  1.4114 -0.9298
 3718SOL     OW16000   0.722   7.634   4.454  0.1874 -0.0044  0.1036
 3718SOL    HW116001   0.629   7.623   4.436  0.2124 -2.0652  0.9118
 3718SOL    HW216002   0.763   7.645   4.368 -0.9507  3.0176 -0.1642
 3719SOL     OW16003   0.826   8.766   2.387 -0.6545  0.0843  0.4925
 3719SOL    HW116004   0.783   8.805   2.310 -2.7008  0.8271  1.9067
 3719SOL    HW216005   0.919   8.780   2.372 -1.1229  2.9943 -0.4716
 3720SOL     OW16006   1.011   7.777   3.189 -0.6985  0.3563 -0.7691
 3720SOL    HW116007   0.954   7.854   3.194 -0.5061  0.4568  0.0274
 3720SOL    HW216008   0.987   7.734   3.107 -1.4677  0.7484 -0.7540
 3721SOL     OW16009   1.423   7.101   4.443 -0.3985 -0.0072 -0.2548
 3721SOL    HW116010   1.365   7.073   4.371 -2.1131  0.4507  0.8931
 3721SOL    HW216011   1.427   7.196   4.434  0.7347 -0.0844 -0.7064
 3722SOL     OW16012   4.442   4.448   3.613 -0.2469 -0.1090  0.5114
 3722SOL    HW116013   4.413   4.471   3.701 -2.9528 -0.2494 -0.2430
 3722SOL    HW216014   4.367   4.402   3.574  0.6405  0.4096 -2.0186
 3723SOL     OW16015   9.203   4.317   2.661  0.5476  0.5180 -0.4322
 3723SOL    HW116016   9.239   4.373   2.592  2.0538  0.1905  0.0597
 3723SOL    HW216017   9.127   4.366   2.694  1.1483  1.7401 -0.7847
 3724SOL     OW16018   3.160   4.231   1.164  0.1486  0.3381 -0.0900
 3724SOL    HW116019   3.078   4.261   1.126  1.0379  2.4455 -0.4892
 3724SOL    HW216020   3.226   4.248   1.096  1.1403  0.2543  0.8145
 3725SOL     OW16021   1.619   6.835   7.016  0.9682 -0.3349 -0.6077
 3725SOL    HW116022   1.607   6.928   7.001  1.3581 -0.2244 -0.2536
 3725SOL    HW216023   1.690   6.830   7.080  0.2896 -0.8343  0.1255
 3726SOL     OW16024   1.223   5.440   3.309  0.5824 -0.2092 -0.0329
 3726SOL    HW116025   1.137   5.404   3.286  0.8936 -0.2766 -1.1495
 3726SOL    HW216026   1.284   5.368   3.294  0.8392 -0.1732  0.7999
 3727SOL     OW16027   9.703   8.943   2.573 -0.3213 -0.0578 -0.2098
 3727SOL    HW116028   9.640   8.873   2.554 -0.9625  0.7715 -1.2100
 3727SOL    HW216029   9.739   8.920   2.659 -2.2338 -0.3833  0.5540
 3728SOL     OW16030   2.192   5.074   2.945 -0.5577  0.0325  0.2488
 3728SOL    HW116031   2.101   5.073   2.915 -0.4967  1.2154 -0.0262
 3728SOL    HW216032   2.244   5.055   2.867 -0.5894 -1.7974  0.6295
 3729SOL     OW16033   1.095   6.652   2.299  0.4660  0.2688 -0.3787
 3729SOL    HW116034   1.109   6.747   2.294 -1.1680  0.5238 -0.7898
 3729SOL    HW216035   1.055   6.630   2.215 -0.4100 -0.5469  0.2338
 3730SOL     OW16036   0.892   8.164   1.744  0.3625 -0.6251 -0.1287
 3730SOL    HW116037   0.935   8.231   1.691 -0.1656  1.2365  1.6463
 3730SOL    HW216038   0.959   8.096   1.757  1.6587  0.5859 -0.2222
 3731SOL     OW16039   9.763   7.423   2.574  0.0168  0.2358 -0.1765
 3731SOL    HW116040   9.830   7.356   2.589  0.3372  0.6396  0.1955
 3731SOL    HW216041   9.745   7.418   2.480 -1.0040 -1.3616  0.0555
 3732SOL     OW16042   8.880   6.363   4.312 -0.2628 -0.5086  0.4982
 3732SOL    HW116043   8.841   6.437   4.265  1.4341  0.7771  1.0086
 3732SOL    HW216044   8.882   6.292   4.248 -1.1340  0.1515 -0.2833
 3733SOL     OW16045   2.209   5.963   3.656 -0.0026  0.6898 -0.4097
 3733SOL    HW116046   2.304   5.965   3.665  0.0631  1.9278 -1.1896
 3733SOL    HW216047   2.177   6.033   3.713 -0.4766  0.0609  0.1113
 3734SOL     OW16048   0.426   4.954   2.703  0.1978 -0.3079 -0.6526
 3734SOL    HW116049   0.427   4.953   2.607 -2.2871 -1.1901 -0.7395
 3734SOL    HW216050   0.443   5.045   2.726 -0.8830  0.2903 -2.0318
 3735SOL     OW16051   2.380   5.257   2.650 -0.3691 -0.2373 -0.3568
 3735SOL    HW116052   2.426   5.183   2.611  0.2623  0.3680 -0.7898
 3735SOL    HW216053   2.419   5.265   2.738  1.0957  0.8592 -1.0516
 3736SOL     OW16054   0.669   7.570   3.298  0.5081  0.3755 -0.3038
 3736SOL    HW116055   0.734   7.521   3.247  1.9015  3.4926 -1.7543
 3736SOL    HW216056   0.720   7.622   3.359 -0.8217  0.9748  0.3445
 3737SOL     OW16057   0.278   7.688   5.018  0.0180 -0.6041 -0.3661
 3737SOL    HW116058   0.350   7.643   4.975 -0.4582 -1.2827 -0.4763
 3737SOL    HW216059   0.202   7.631   5.004  0.1717 -1.8494  2.9594
 3738SOL     OW16060   2.865   7.832   3.789 -0.1416 -0.3605  0.7020
 3738SOL    HW116061   2.813   7.912   3.774  1.4736  0.4496 -1.0143
 3738SOL    HW216062   2.806   7.761   3.766 -0.5778  0.5247 -1.1389
 3739SOL     OW16063   8.595   4.144   3.910  0.4394  0.4883 -0.0210
 3739SOL    HW116064   8.591   4.058   3.870 -1.8886 -0.2251  1.4895
 3739SOL    HW216065   8.678   4.146   3.957  0.4510 -1.0108  0.0534
 3740SOL     OW16066   1.028   8.962   2.399 -0.1767 -0.4019 -0.3341
 3740SOL    HW116067   0.987   9.036   2.354 -1.3410 -0.8726 -0.0772
 3740SOL    HW216068   0.989   8.963   2.487  2.4274  0.8141  0.9217
 3741SOL     OW16069   1.770   5.470   2.582 -0.0218 -0.4995 -0.7300
 3741SOL    HW116070   1.833   5.468   2.654  0.6586 -2.0892 -1.3179
 3741SOL    HW216071   1.706   5.536   2.607 -0.5694 -1.9359  1.9784
 3742SOL     OW16072   0.654   4.545   2.300  0.1914 -0.7073  0.3341
 3742SOL    HW116073   0.712   4.523   2.373 -1.6097 -0.8541  1.7927
 3742SOL    HW216074   0.620   4.632   2.321 -0.5417 -0.8577 -0.1839
 3743SOL     OW16075   3.656   6.884   3.551  0.4023 -0.2271  0.5868
 3743SOL    HW116076   3.654   6.950   3.482  0.5673 -0.9427 -0.1190
 3743SOL    HW216077   3.590   6.913   3.614  0.9779  0.9875  0.6590
 3744SOL     OW16078   2.927   7.278   1.865  0.2101 -0.2519 -0.2244
 3744SOL    HW116079   3.006   7.252   1.818  0.1917 -0.0170 -0.3879
 3744SOL    HW216080   2.876   7.328   1.801 -0.3908 -0.9786 -0.3263
 3745SOL     OW16081   8.916   6.787   0.969  0.7312 -0.2712 -0.2505
 3745SOL    HW116082   8.985   6.722   0.960  0.4476 -0.5706 -0.2901
 3745SOL    HW216083   8.835   6.739   0.952  0.5536  0.1982 -0.7662
 3746SOL     OW16084   9.124   7.294   4.449  0.2395  0.1936  0.8456
 3746SOL    HW116085   9.137   7.296   4.354  0.5590 -0.4208  0.8658
 3746SOL    HW216086   9.035   7.326   4.462  0.2926  0.5490  0.3588
 3747SOL     OW16087   0.283   7.858   4.503  0.3071  0.3302 -0.3299
 3747SOL    HW116088   0.327   7.812   4.431 -0.5749  2.9367 -2.7037
 3747SOL    HW216089   0.347   7.922   4.533  0.5431 -0.5137  1.0844
 3748SOL     OW16090   0.001   8.898   5.604 -0.4296 -0.4961 -0.1382
 3748SOL    HW116091  -0.090   8.902   5.577 -0.0849 -1.2358 -1.5359
 3748SOL    HW216092   0.037   8.823   5.555  0.6201 -0.9929  1.3117
 3749SOL     OW16093   0.886   6.939   3.113 -0.5089 -0.5004  0.4693
 3749SOL    HW116094   0.871   6.861   3.166 -1.4181  0.5585  1.8508
 3749SOL    HW216095   0.814   6.998   3.137  1.6016  1.8273  1.5447
 3750SOL     OW16096   2.088   8.970   5.244  0.2859  0.9022  0.6048
 3750SOL    HW116097   2.141   9.049   5.251  0.4766  0.8484 -0.1141
 3750SOL    HW216098   2.137   8.903   5.292  0.0846  1.2304  1.2825
 3751SOL     OW16099   2.231   6.181   4.385 -0.0734  0.4234 -0.5220
 3751SOL    HW116100   2.270   6.257   4.341  0.0912  0.1300 -0.8903
 3751SOL    HW216101   2.287   6.167   4.461 -0.1419  0.7095 -0.4168
 3752SOL     OW16102   1.897   4.925   4.622  0.0635  0.0733 -0.3777
 3752SOL    HW116103   1.935   4.989   4.562  2.6074 -0.2470  0.7543
 3752SOL    HW216104   1.900   4.968   4.707 -0.9489 -0.4872 -0.0418
 3753SOL     OW16105   0.157   6.973   4.841  0.3714 -0.5740 -0.2258
 3753SOL    HW116106   0.199   6.919   4.774 -0.0325 -2.1933  0.7648
 3753SOL    HW216107   0.077   7.006   4.800  0.7677 -0.4917 -0.9425
 3754SOL     OW16108   0.739   5.292   4.290  0.2563 -0.1360  0.2466
 3754SOL    HW116109   0.736   5.230   4.217  2.9843 -0.4478  0.3068
 3754SOL    HW216110   0.666   5.267   4.346 -0.8266 -1.0215 -1.4783
 3755SOL     OW16111   1.111   3.386   5.112 -0.3697 -1.1238 -0.7041
 3755SOL    HW116112   1.038   3.442   5.138  1.2660  0.8973 -0.1836
 3755SOL    HW216113   1.113   3.391   5.017  1.4058  2.1380 -0.6283
 3756SOL     OW16114   1.218   5.673   3.451 -0.2776 -0.4793 -0.0385
 3756SOL    HW116115   1.210   5.598   3.392 -0.2931 -0.2843 -0.2877
 3756SOL    HW216116   1.230   5.748   3.393  1.7045 -0.5217  0.2599
 3757SOL     OW16117   7.433   3.836   6.490 -0.0969 -0.8827 -0.2103
 3757SOL    HW116118   7.437   3.905   6.423 -0.0005  1.1309  1.7555
 3757SOL    HW216119   7.361   3.780   6.462 -1.9525  1.5244 -0.5981
 3758SOL     OW16120   0.495   5.459   3.461 -0.7693  0.2891 -0.3748
 3758SOL    HW116121   0.459   5.372   3.478  0.0094 -0.0069 -0.1775
 3758SOL    HW216122   0.425   5.507   3.417 -1.5649 -0.1130  0.4287
 3759SOL     OW16123   0.401   3.906   5.377 -0.1126  0.6217 -0.1371
 3759SOL    HW116124   0.433   3.818   5.358  1.5983  1.0931  0.3103
 3759SOL    HW216125   0.456   3.936   5.450  0.2028  2.5051 -1.0800
 3760SOL     OW16126   1.128   7.433   3.314  0.1101  0.1650  0.4350
 3760SOL    HW116127   1.061   7.435   3.382 -0.9488 -2.3819 -0.4215
 3760SOL    HW216128   1.175   7.350   3.330  1.4355  0.7038 -0.4956
 3761SOL     OW16129   1.268   0.426   2.220 -0.1629  0.4222  0.0521
 3761SOL    HW116130   1.223   0.486   2.160  2.2079  0.5592 -1.7828
 3761SOL    HW216131   1.336   0.480   2.261 -0.3975 -0.1820  1.2604
 3762SOL     OW16132   4.022   8.166   4.967  0.4571 -0.2601  0.5507
 3762SOL    HW116133   3.940   8.117   4.954 -1.8312  3.1213  0.8707
 3762SOL    HW216134   4.024   8.183   5.062  2.4398 -1.5557  0.8023
 3763SOL     OW16135   1.486   6.743   4.074 -0.1604 -0.6480  0.2111
 3763SOL    HW116136   1.449   6.798   4.006 -0.8171 -0.9312  0.3352
 3763SOL    HW216137   1.578   6.732   4.048 -0.4598 -0.9485 -0.7528
 3764SOL     OW16138   0.910   7.638   4.186 -0.2109  0.5262 -0.0668
 3764SOL    HW116139   0.995   7.604   4.214 -1.2871 -0.9350  1.6845
 3764SOL    HW216140   0.911   7.632   4.091  1.4590  0.1076 -0.0491
 3765SOL     OW16141   0.986   9.190   4.802  0.2161 -0.0029  0.5341
 3765SOL    HW116142   0.926   9.170   4.730  0.2660  0.4088  0.3796
 3765SOL    HW216143   0.997   9.106   4.847 -1.6059  0.1782  1.4275
 3766SOL     OW16144   9.452   7.075   4.538 -0.1442  0.5361  0.4918
 3766SOL    HW116145   9.374   7.115   4.575  0.2121  0.6233  1.1654
 3766SOL    HW216146   9.518   7.144   4.541 -0.0226  0.4476 -0.0249
 3767SOL     OW16147   9.597   6.240   3.255  0.5043  0.2158 -0.4382
 3767SOL    HW116148   9.644   6.160   3.232  2.1610  1.3004 -1.0254
 3767SOL    HW216149   9.625   6.304   3.190 -0.1153  1.4893  0.5037
 3768SOL     OW16150   0.575   7.254   4.495 -0.5458 -0.0691 -0.2012
 3768SOL    HW116151   0.670   7.256   4.484 -0.5089  0.6993  0.1621
 3768SOL    HW216152   0.540   7.251   4.406 -0.1767 -2.1954 -0.3325
 3769SOL     OW16153   9.556   7.278   4.050  0.0851 -0.0738 -0.4540
 3769SOL    HW116154   9.478   7.314   4.094  0.5872 -0.0598  0.4357
 3769SOL    HW216155   9.627   7.335   4.078  0.6075 -0.7598 -0.3897
 3770SOL     OW16156   0.507   6.393   3.675  0.2825  0.2700 -0.2011
 3770SOL    HW116157   0.432   6.355   3.722  0.4850 -0.7219 -0.6440
 3770SOL    HW216158   0.472   6.469   3.630  0.0067  1.0389  1.2744
 3771SOL     OW16159   0.085   5.538   5.093  0.0301 -0.2700  0.5710
 3771SOL    HW116160   0.173   5.510   5.068  0.3399  0.1698  1.1268
 3771SOL    HW216161   0.088   5.543   5.189 -0.0100  1.5964  0.5203
 3772SOL     OW16162   1.622   6.333   4.029 -0.3933 -0.0310  0.2961
 3772SOL    HW116163   1.638   6.380   3.947 -0.3684 -0.6582 -0.0692
 3772SOL    HW216164   1.589   6.247   4.001  0.2979 -0.5114  0.9200
 3773SOL     OW16165   0.766   7.839   2.856  0.7081  0.6903 -0.0897
 3773SOL    HW116166   0.679   7.879   2.852  1.0212  1.3924 -0.0612
 3773SOL    HW216167   0.780   7.804   2.768  0.0893 -0.1253  0.1151
 3774SOL     OW16168   9.363   5.252   3.252 -0.1030  0.2690 -0.2231
 3774SOL    HW116169   9.292   5.187   3.250 -0.9809  0.9694  2.9409
 3774SOL    HW216170   9.344   5.309   3.177 -2.1785 -0.3031 -0.2140
 3775SOL     OW16171   0.652   5.771   6.689  0.5578 -0.6429  0.2231
 3775SOL    HW116172   0.738   5.757   6.649  0.3440 -0.3256 -0.3484
 3775SOL    HW216173   0.591   5.721   6.636  0.5088 -1.6457  1.1913
 3776SOL     OW16174   1.230   5.183   2.384  0.1016 -0.0046 -0.0349
 3776SOL    HW116175   1.239   5.095   2.348 -1.8307 -0.7175  1.0219
 3776SOL    HW216176   1.308   5.196   2.438  1.7557  0.0720 -2.3365
 3777SOL     OW16177   1.390   4.739   5.355  1.3814 -0.2191 -0.3202
 3777SOL    HW116178   1.363   4.684   5.428 -0.6513  1.7595  0.5233
 3777SOL    HW216179   1.387   4.681   5.279  2.1891 -1.9705  0.9084
 3778SOL     OW16180   2.269   7.405   3.378 -0.8272  0.5965  0.0415
 3778SOL    HW116181   2.202   7.391   3.445  0.0461 -1.9417  0.4814
 3778SOL    HW216182   2.258   7.331   3.317  0.9430  0.6601 -0.4108
 3779SOL     OW16183   2.299   7.506   2.839  0.0344 -0.2985 -0.3138
 3779SOL    HW116184   2.368   7.571   2.826  0.3754 -0.8616 -1.4579
 3779SOL    HW216185   2.275   7.478   2.751 -1.1805 -0.6218  0.1007
 3780SOL     OW16186   3.057   5.224   3.364  0.6628 -0.6973  0.6047
 3780SOL    HW116187   3.050   5.314   3.394 -0.4095 -0.0984 -1.2533
 3780SOL    HW216188   2.973   5.184   3.388  0.3570 -0.6145 -0.2959
 3781SOL     OW16189   2.115   7.516   4.196 -0.0163 -0.0391  0.2729
 3781SOL    HW116190   2.064   7.435   4.191  0.4949 -0.2664 -2.1275
 3781SOL    HW216191   2.201   7.489   4.228  0.6762 -0.7727 -2.0526
 3782SOL     OW16192   1.857   7.071   3.901 -0.3318 -0.2010  0.3168
 3782SOL    HW116193   1.792   7.115   3.846 -1.1645 -2.9158 -1.0406
 3782SOL    HW216194   1.910   7.020   3.840  1.9094  0.4430  1.5983
 3783SOL     OW16195   0.673   5.900   5.118  0.1277  0.2266  0.1645
 3783SOL    HW116196   0.727   5.846   5.060 -0.9816 -1.4909  0.6444
 3783SOL    HW216197   0.697   5.990   5.097  1.6085 -0.4288 -1.1211
 3784SOL     OW16198   0.241   6.345   5.441 -0.5363 -0.4114 -0.2841
 3784SOL    HW116199   0.194   6.429   5.446 -0.4055 -0.3985  1.5216
 3784SOL    HW216200   0.224   6.313   5.353 -1.2637  1.1335 -0.7418
 3785SOL     OW16201   1.195   4.899   0.985  0.5881  0.1384 -0.0766
 3785SOL    HW116202   1.233   4.931   1.067  0.5954 -1.3342  0.5334
 3785SOL    HW216203   1.112   4.859   1.012 -0.1856  1.0191 -1.0338
 3786SOL     OW16204   8.311   5.784   6.329 -0.1802 -0.2121 -0.0462
 3786SOL    HW116205   8.293   5.836   6.407 -0.8688  1.6033 -1.3454
 3786SOL    HW216206   8.328   5.696   6.362 -0.3358  0.5239  2.1385
 3787SOL     OW16207   9.290   6.598   5.419  0.8766 -0.2163 -0.1602
 3787SOL    HW116208   9.368   6.553   5.452 -0.1093 -3.7437 -2.1615
 3787SOL    HW216209   9.304   6.604   5.324 -1.1213 -0.6386 -0.5210
 3788SOL     OW16210   0.236   4.585   2.889 -0.0311  0.3227 -0.6378
 3788SOL    HW116211   0.189   4.506   2.860  1.7275 -1.1788  0.3811
 3788SOL    HW216212   0.208   4.596   2.980  1.2782 -0.4017 -0.1212
 3789SOL     OW16213   2.329   7.986   6.060  0.0048  0.0358 -0.3504
 3789SOL    HW116214   2.415   7.989   6.102  0.9785 -1.1916 -2.1217
 3789SOL    HW216215   2.330   8.059   5.998 -1.4945  1.9553  1.7092
 3790SOL     OW16216   1.336   7.739   4.379  0.1074 -0.7194  0.9176
 3790SOL    HW116217   1.427   7.730   4.351  0.5482 -0.1478  2.1276
 3790SOL    HW216218   1.333   7.821   4.429 -0.9862 -0.9274  1.2331
 3791SOL     OW16219   0.326   7.186   3.544 -0.2586  0.3374 -0.1756
 3791SOL    HW116220   0.262   7.257   3.550  0.4065  1.0154 -0.7781
 3791SOL    HW216221   0.324   7.145   3.630 -2.4851 -0.5625 -0.5899
 3792SOL     OW16222   1.746   5.090   5.014 -0.0235  0.1732 -0.1569
 3792SOL    HW116223   1.789   5.112   5.096 -2.4489 -1.4112  1.6917
 3792SOL    HW216224   1.724   4.997   5.023 -0.9833  0.1318 -2.2966
 3793SOL     OW16225   3.367   6.090   6.364 -0.0297 -0.0445 -0.4503
 3793SOL    HW116226   3.351   6.184   6.365  1.9765  0.4378 -2.8203
 3793SOL    HW216227   3.404   6.073   6.277  3.0039 -2.3918  1.0988
 3794SOL     OW16228   1.762   7.414   4.681 -0.1995 -0.5550  0.0379
 3794SOL    HW116229   1.830   7.348   4.695  1.1280  0.8332  0.4351
 3794SOL    HW216230   1.772   7.474   4.755 -2.3535 -0.6814  0.4891
 3795SOL     OW16231   8.722   5.434   4.324 -0.2798  0.3697 -0.4004
 3795SOL    HW116232   8.703   5.527   4.314 -0.2598  0.2391 -1.8887
 3795SOL    HW216233   8.637   5.393   4.335 -0.2825  0.5716  0.3588
 3796SOL     OW16234   1.743   5.388   4.619  0.5950  0.3437  0.8827
 3796SOL    HW116235   1.733   5.383   4.714 -1.1251 -0.3170  0.7086
 3796SOL    HW216236   1.704   5.307   4.586 -1.1631  1.6520 -0.4933
 3797SOL     OW16237   8.678   1.248   6.812  0.3697  0.0241  0.0597
 3797SOL    HW116238   8.669   1.198   6.731 -0.6897  0.0503  0.1517
 3797SOL    HW216239   8.772   1.249   6.829  0.6142  0.1114 -1.2208
 3798SOL     OW16240   3.933   8.362   3.523 -0.0833 -0.0736 -0.0811
 3798SOL    HW116241   3.911   8.391   3.612 -2.6813  1.7096 -1.1767
 3798SOL    HW216242   3.969   8.440   3.481 -0.4970 -0.4055 -1.0813
 3799SOL     OW16243   1.163   6.309   4.945  0.0902  0.1555  0.1615
 3799SOL    HW116244   1.227   6.332   4.878 -0.0619  0.2174  0.0365
 3799SOL    HW216245   1.102   6.250   4.901  0.8796 -1.0788  0.6689
 3800SOL     OW16246   2.225   3.889   3.200 -0.0267 -0.2789  0.7160
 3800SOL    HW116247   2.243   3.955   3.132 -1.9458  0.7522  1.1428
 3800SOL    HW216248   2.226   3.939   3.282 -2.4415 -0.5292  0.9671
 3801SOL     OW16249   9.486   7.516   5.284  0.2813 -0.2666 -0.5914
 3801SOL    HW116250   9.491   7.423   5.262  0.6219 -0.5916  0.7551
 3801SOL    HW216251   9.576   7.547   5.273 -0.1020  0.3025 -2.5321
 3802SOL     OW16252   1.930   6.478   1.323 -0.2183  0.5240  0.0322
 3802SOL    HW116253   1.855   6.537   1.316 -0.4072  0.9507  3.5942
 3802SOL    HW216254   1.910   6.422   1.398  2.2346 -0.5909 -0.0243
 3803SOL     OW16255   0.350   5.451   5.030  0.0138  0.1702 -0.1639
 3803SOL    HW116256   0.432   5.468   5.077  0.2817 -0.8173 -0.2437
 3803SOL    HW216257   0.345   5.355   5.026 -0.6149  0.2313 -1.0802
 3804SOL     OW16258   1.470   6.404   5.216  0.6643  0.2111 -0.2530
 3804SOL    HW116259   1.520   6.325   5.234 -0.6093 -1.1957 -2.4857
 3804SOL    HW216260   1.422   6.385   5.135 -0.8060  2.7414 -0.0906
 3805SOL     OW16261   3.565   7.030   4.671  0.4298 -0.0604 -0.3098
 3805SOL    HW116262   3.631   7.045   4.738 -0.3660 -1.4330  0.8715
 3805SOL    HW216263   3.505   7.104   4.679  0.2113 -0.3261  0.7100
 3806SOL     OW16264   1.471   6.224   5.880 -0.4824  0.9582  0.2737
 3806SOL    HW116265   1.440   6.180   5.959  0.0783  0.1211  0.0361
 3806SOL    HW216266   1.447   6.165   5.809  1.2707  0.4689  0.0471
 3807SOL     OW16267   7.777   5.227   3.038 -0.0454 -0.1164 -0.2649
 3807SOL    HW116268   7.740   5.150   2.995  0.9829 -0.9987  0.3599
 3807SOL    HW216269   7.849   5.254   2.981  1.2688 -1.2400  0.7788
 3808SOL     OW16270   2.128   5.489   3.791 -0.8525  0.2134  0.4989
 3808SOL    HW116271   2.088   5.416   3.744  0.4545 -0.4861  0.4264
 3808SOL    HW216272   2.115   5.468   3.884 -0.6095 -0.0351  0.4771
 3809SOL     OW16273   9.523   6.395   5.008 -0.0497 -0.0481  0.0890
 3809SOL    HW116274   9.504   6.389   4.914 -0.3458 -1.1217  0.1984
 3809SOL    HW216275   9.437   6.390   5.050  0.0803  0.4696  0.4141
 3810SOL     OW16276   1.161   6.901   4.559 -0.1652 -0.9002  0.4176
 3810SOL    HW116277   1.212   6.887   4.479 -0.5726 -0.2575  0.0348
 3810SOL    HW216278   1.227   6.918   4.627  0.2136 -2.0924  0.3735
 3811SOL     OW16279   1.197   5.734   3.720  0.1657 -0.1890  0.3558
 3811SOL    HW116280   1.185   5.708   3.629  2.1200 -0.9846  0.2680
 3811SOL    HW216281   1.260   5.806   3.716  1.4500 -1.2211  1.1212
 3812SOL     OW16282   1.503   7.455   4.719  0.4163 -0.0451 -0.1834
 3812SOL    HW116283   1.572   7.471   4.655  1.6194 -1.0632  0.8161
 3812SOL    HW216284   1.549   7.426   4.798 -1.1628 -1.2045  0.3681
 3813SOL     OW16285   2.443   6.455   3.617 -0.1005  0.3929  0.0698
 3813SOL    HW116286   2.446   6.368   3.656  0.3152  0.0414 -0.7200
 3813SOL    HW216287   2.488   6.445   3.533 -1.8075  0.8754 -0.9522
 3814SOL     OW16288   1.284   6.599   5.362 -0.1252  0.5772 -0.0351
 3814SOL    HW116289   1.245   6.520   5.324 -1.3425  0.8796  0.5311
 3814SOL    HW216290   1.376   6.577   5.373 -0.4072 -0.7120 -0.0610
 3815SOL     OW16291   1.180   5.538   2.653  0.2931 -0.1484 -0.7359
 3815SOL    HW116292   1.096   5.556   2.694  0.0349 -0.2463 -1.2175
 3815SOL    HW216293   1.160   5.479   2.580  0.9112 -1.0072 -0.2294
 3816SOL     OW16294   1.719   5.571   4.407 -0.2058  0.1347  0.0475
 3816SOL    HW116295   1.712   5.523   4.490 -2.4306 -1.1065 -0.7597
 3816SOL    HW216296   1.662   5.647   4.418 -0.9564 -0.3295 -0.4801
 3817SOL     OW16297   0.429   5.102   5.274 -0.6654 -0.5546 -0.3644
 3817SOL    HW116298   0.434   5.018   5.229  1.5296 -1.7144  1.7887
 3817SOL    HW216299   0.520   5.127   5.290 -1.2565  0.0350  2.7835
 3818SOL     OW16300   0.863   8.283   6.785 -0.4974  0.2474 -0.0016
 3818SOL    HW116301   0.783   8.248   6.745  0.0080 -2.1227  0.9285
 3818SOL    HW216302   0.845   8.281   6.879  0.7990 -0.8120  0.2566
 3819SOL     OW16303   7.965   6.748   5.612 -0.1247 -0.0903 -0.0002
 3819SOL    HW116304   8.038   6.687   5.626 -0.9377 -1.3864 -1.1943
 3819SOL    HW216305   7.900   6.722   5.678  0.0417  0.3468  0.3405
 3820SOL     OW16306   5.725   7.810   2.617  0.7773  0.2988 -0.0571
 3820SOL    HW116307   5.647   7.766   2.652  1.2223  0.1099  0.7317
 3820SOL    HW216308   5.735   7.888   2.672  1.8777 -0.3601  0.7211
 3821SOL     OW16309   9.239   4.705   3.374  0.8617  0.1583  0.2551
 3821SOL    HW116310   9.214   4.788   3.415  2.6901  1.1507 -0.5531
 3821SOL    HW216311   9.276   4.730   3.289 -1.8843 -1.7493 -1.6909
 3822SOL     OW16312   9.218   6.222   4.332 -0.9723  0.4350 -0.8945
 3822SOL    HW116313   9.186   6.279   4.402  0.9946 -0.1218  0.5473
 3822SOL    HW216314   9.289   6.172   4.373 -0.6183 -0.8471 -2.9564
 3823SOL     OW16315   9.414   5.554   4.407 -0.0887 -0.5844  0.1519
 3823SOL    HW116316   9.343   5.491   4.404 -0.7774  0.2072 -0.5113
 3823SOL    HW216317   9.433   5.564   4.501 -1.1181 -0.5194  0.3672
 3824SOL     OW16318   1.325   5.027   3.505  0.2525 -0.0169 -0.3621
 3824SOL    HW116319   1.243   5.027   3.457 -0.5658 -2.5664  0.8961
 3824SOL    HW216320   1.300   5.023   3.597  1.8092  1.1618  0.1679
 3825SOL     OW16321   9.125   7.696   4.412 -0.3120  0.0195 -0.4437
 3825SOL    HW116322   9.134   7.767   4.348  1.2464 -0.9260 -1.3453
 3825SOL    HW216323   9.212   7.690   4.453 -1.5361  1.3556  2.6862
 3826SOL     OW16324   2.574   4.203   4.017 -0.0064 -0.5796  0.3662
 3826SOL    HW116325   2.615   4.277   3.974 -0.1497 -1.7490 -1.8909
 3826SOL    HW216326   2.635   4.178   4.086 -0.8804  2.8439  2.6418
 3827SOL     OW16327   9.706   6.646   2.481 -0.6496 -0.2729 -0.1909
 3827SOL    HW116328   9.776   6.585   2.457 -0.0011 -0.0964  1.1916
 3827SOL    HW216329   9.750   6.730   2.493 -1.0358 -0.2167  0.9587
 3828SOL     OW16330   1.537   6.457   6.221 -0.2880  0.4846 -0.4803
 3828SOL    HW116331   1.499   6.376   6.187  0.5351 -0.7770  1.3786
 3828SOL    HW216332   1.582   6.430   6.302 -1.3660  3.0637  1.1118
 3829SOL     OW16333   1.406   9.667   4.512  0.9537  0.3483 -0.0516
 3829SOL    HW116334   1.363   9.718   4.580 -0.8067  0.7987 -1.4398
 3829SOL    HW216335   1.398   9.576   4.541  1.2506  0.6024  0.8692
 3830SOL     OW16336   1.775   5.423   2.159 -0.6010 -0.3251 -0.1487
 3830SOL    HW116337   1.758   5.491   2.225  1.7412 -0.6289  0.8253
 3830SOL    HW216338   1.743   5.462   2.077  1.1335  2.2524  0.2728
 3831SOL     OW16339   2.336   7.349   7.298  0.3800 -0.0026 -0.1954
 3831SOL    HW116340   2.246   7.361   7.269  0.9587 -0.1750 -2.2575
 3831SOL    HW216341   2.366   7.437   7.323  0.1459  0.3559 -1.1464
 3832SOL     OW16342   2.279   6.899   6.953 -0.2037  0.7122 -0.0851
 3832SOL    HW116343   2.220   6.917   7.027 -0.1321 -0.8553  0.3984
 3832SOL    HW216344   2.304   6.808   6.965 -1.0655  0.0466 -2.6861
 3833SOL     OW16345   0.684   7.330   8.300 -0.5599 -0.0519 -0.2167
 3833SOL    HW116346   0.671   7.347   8.207 -2.2815 -0.1710 -0.0339
 3833SOL    HW216347   0.644   7.405   8.344 -0.7436 -0.5259  0.4402
 3834SOL     OW16348   2.151   6.669   4.869  0.3694  0.1954 -0.0663
 3834SOL    HW116349   2.138   6.704   4.781  0.5293  2.6205  0.7994
 3834SOL    HW216350   2.069   6.689   4.915  0.1540 -1.3512  0.2894
 3835SOL     OW16351   2.341   7.609   5.648 -0.5852 -0.0347  0.1237
 3835SOL    HW116352   2.319   7.567   5.565 -1.2640 -1.2941  0.9044
 3835SOL    HW216353   2.306   7.551   5.715  0.0833  0.8650  1.3160
 3836SOL     OW16354   9.541   5.839   3.935 -0.7172 -0.2415 -0.4913
 3836SOL    HW116355   9.452   5.823   3.905 -1.3624  0.8932  0.7057
 3836SOL    HW216356   9.546   5.796   4.021 -0.9243  1.6760  0.5376
 3837SOL     OW16357   1.484   3.645   5.281 -0.2013  0.2379 -0.6453
 3837SOL    HW116358   1.418   3.661   5.349 -0.3309  0.4135 -0.8104
 3837SOL    HW216359   1.491   3.550   5.276  0.1659  0.2250 -0.0416
 3838SOL     OW16360   0.467   8.007   4.614 -0.3985 -0.0574 -0.0521
 3838SOL    HW116361   0.517   7.975   4.690  1.8054 -1.6008 -2.0021
 3838SOL    HW216362   0.459   8.101   4.628  1.4576 -0.0491  1.2842
 3839SOL     OW16363   1.073   6.499   5.763  0.4598 -0.3628  0.1514
 3839SOL    HW116364   1.144   6.464   5.815 -0.3104 -2.9560 -0.3828
 3839SOL    HW216365   1.015   6.543   5.826  1.9863  0.9564  0.7005
 3840SOL     OW16366   1.996   5.509   5.873 -0.0151  0.5697  0.3192
 3840SOL    HW116367   2.014   5.529   5.965  0.4142  1.4791  0.0491
 3840SOL    HW216368   2.039   5.579   5.824 -0.3245  0.1545 -0.5766
 3841SOL     OW16369   7.756   8.539   6.034 -0.4231 -0.5387  0.0245
 3841SOL    HW116370   7.694   8.564   6.102  1.0746  0.6420  1.0151
 3841SOL    HW216371   7.842   8.557   6.072  0.5490 -2.1316 -1.2971
 3842SOL     OW16372   3.153   7.595   4.565  0.2161 -0.3542  0.0085
 3842SOL    HW116373   3.214   7.522   4.556  0.0407 -0.4779 -0.1951
 3842SOL    HW216374   3.162   7.623   4.657  0.0441 -0.8448  0.1754
 3843SOL     OW16375   2.981   7.063   2.735 -0.1919  0.1977 -0.0851
 3843SOL    HW116376   2.949   7.101   2.817 -1.4390  0.0767 -0.4958
 3843SOL    HW216377   2.904   7.063   2.677  0.3248 -0.9836 -0.8018
 3844SOL     OW16378   8.528   7.591   4.136  0.3892  0.3212 -0.1852
 3844SOL    HW116379   8.488   7.525   4.079  1.3176  1.4285 -2.2242
 3844SOL    HW216380   8.478   7.585   4.217 -0.5516 -1.8194 -0.8393
 3845SOL     OW16381   1.186   5.772   1.137  0.0829 -0.3684 -0.2301
 3845SOL    HW116382   1.174   5.830   1.061  1.8635  2.2020  1.3054
 3845SOL    HW216383   1.117   5.798   1.198  0.2729 -0.5752  0.0751
 3846SOL     OW16384   0.804   7.931   4.092 -0.0389 -0.3375  0.0326
 3846SOL    HW116385   0.794   7.884   4.175  1.2792 -1.1822 -0.2706
 3846SOL    HW216386   0.824   7.863   4.028  0.7502  0.5055 -0.6308
 3847SOL     OW16387   8.736   4.826   3.868  0.2175 -0.4032  0.0652
 3847SOL    HW116388   8.727   4.898   3.930  0.9637 -1.1127  1.0499
 3847SOL    HW216389   8.802   4.856   3.805 -1.1680  0.6593 -0.9308
 3848SOL     OW16390   0.480   7.022   5.845  0.5497 -0.0147  0.4105
 3848SOL    HW116391   0.421   7.097   5.859 -0.4071 -0.8564  1.0106
 3848SOL    HW216392   0.486   6.980   5.931 -0.1675 -1.5135 -0.2455
 3849SOL     OW16393   1.238   3.145   5.025 -0.8297  0.4278 -0.3453
 3849SOL    HW116394   1.262   3.125   4.935  1.7817  1.5939  0.0104
 3849SOL    HW216395   1.196   3.232   5.020  3.0178  2.4967 -0.1395
 3850SOL     OW16396   2.220   6.436   9.028  0.0340 -0.7438 -0.2148
 3850SOL    HW116397   2.241   6.377   8.955 -0.5487 -0.7676 -0.3644
 3850SOL    HW216398   2.305   6.458   9.065  0.2099 -4.5814  2.1623
 3851SOL     OW16399   3.640   6.907   5.547  0.6213 -0.0382 -0.1887
 3851SOL    HW116400   3.690   6.869   5.475 -0.8204 -0.0541 -1.2065
 3851SOL    HW216401   3.567   6.952   5.505 -0.1459  0.1140  1.2562
 3852SOL     OW16402   2.904   7.887   5.763 -0.2792  0.1043 -0.0800
 3852SOL    HW116403   2.906   7.882   5.858  1.9428  0.5781 -0.0515
 3852SOL    HW216404   2.874   7.976   5.744 -0.3564  0.1339  0.1873
 3853SOL     OW16405   1.037   6.320   4.272 -0.3323 -0.4082 -0.4277
 3853SOL    HW116406   1.086   6.287   4.347 -1.0870 -1.8613 -0.5122
 3853SOL    HW216407   1.094   6.385   4.231  0.4900 -0.3084  0.8351
 3854SOL     OW16408   1.229   4.661   3.264  0.1003 -0.2680 -0.6399
 3854SOL    HW116409   1.173   4.651   3.187  0.4646  1.1749 -1.1219
 3854SOL    HW216410   1.248   4.571   3.292 -0.5260 -0.8039 -1.8635
 3855SOL     OW16411   7.245   5.259   3.779 -0.0179  0.2159  0.2793
 3855SOL    HW116412   7.161   5.290   3.745 -0.3294 -1.8501 -1.0152
 3855SOL    HW216413   7.283   5.209   3.707  0.5522 -2.0774  2.0523
 3856SOL     OW16414   1.285   7.640   3.910 -0.1349 -0.4208  0.7877
 3856SOL    HW116415   1.209   7.696   3.929  1.7871  2.2681  1.0809
 3856SOL    HW216416   1.300   7.652   3.816  1.7473  1.6938  1.2694
 3857SOL     OW16417   2.112   6.667   5.401 -0.1350  0.3592  0.1293
 3857SOL    HW116418   2.057   6.661   5.479  0.1975  0.9445  0.4180
 3857SOL    HW216419   2.085   6.593   5.346 -2.7205  1.8325 -0.7198
 3858SOL     OW16420   1.145   5.366   3.732 -0.0866 -0.1527  0.1014
 3858SOL    HW116421   1.119   5.388   3.643  0.6363 -2.2865 -0.7232
 3858SOL    HW216422   1.124   5.273   3.740  0.5176 -0.1700  1.9132
 3859SOL     OW16423   1.472   8.047   5.397 -0.0473  0.4110  0.1601
 3859SOL    HW116424   1.424   8.057   5.479 -0.8231  0.9766 -0.3409
 3859SOL    HW216425   1.446   8.124   5.345  0.6863  0.2328 -0.4801
 3860SOL     OW16426   9.827   7.479   3.123 -0.1938 -0.0265 -0.0577
 3860SOL    HW116427   9.873   7.396   3.133 -1.7929 -0.9347  0.1130
 3860SOL    HW216428   9.822   7.515   3.212 -1.3053 -0.7904  0.2127
 3861SOL     OW16429   3.699   7.875   4.886 -0.5105 -0.3478 -0.1799
 3861SOL    HW116430   3.741   7.941   4.831  0.6982 -0.1421  0.9219
 3861SOL    HW216431   3.768   7.847   4.947 -1.5501 -1.1694  0.6725
 3862SOL     OW16432   8.083   7.789   4.179  0.0871  0.3857  0.2614
 3862SOL    HW116433   8.089   7.786   4.084 -1.6282  1.4449  0.0763
 3862SOL    HW216434   8.105   7.879   4.202  2.8168 -0.3926  1.1477
 3863SOL     OW16435   0.664   4.824   3.250  0.1848  0.1734 -0.2824
 3863SOL    HW116436   0.579   4.817   3.293  0.0503 -0.0858 -0.5833
 3863SOL    HW216437   0.673   4.742   3.200  0.4952  0.3115 -0.4597
 3864SOL     OW16438   0.114   7.428   4.653 -0.2777 -0.6150 -0.1623
 3864SOL    HW116439   0.186   7.405   4.711  1.1419 -0.0719 -1.6320
 3864SOL    HW216440   0.037   7.388   4.693  0.8537 -1.3745  1.3549
 3865SOL     OW16441   9.303   8.136   4.066  0.0351 -0.3229 -0.0546
 3865SOL    HW116442   9.321   8.187   3.987 -0.9061 -0.9624 -0.7097
 3865SOL    HW216443   9.380   8.081   4.078  0.5183  0.3380 -0.0616
 3866SOL     OW16444   1.848   7.827   2.597 -0.0548  0.1405 -0.0513
 3866SOL    HW116445   1.888   7.913   2.614  0.6074  0.3581 -2.3941
 3866SOL    HW216446   1.831   7.826   2.503  0.1973 -2.4073 -0.1512
 3867SOL     OW16447   2.102   3.708   2.857  0.7250 -0.1468 -0.7461
 3867SOL    HW116448   2.139   3.624   2.884  1.8307  1.2933  2.7609
 3867SOL    HW216449   2.178   3.760   2.828  0.6606  0.8331  0.7394
 3868SOL     OW16450   0.882   6.358   5.630  0.3872  0.2022 -0.4476
 3868SOL    HW116451   0.894   6.294   5.560 -1.7658  0.0463 -0.7363
 3868SOL    HW216452   0.971   6.385   5.653  1.1740  0.1195 -3.0884
 3869SOL     OW16453   1.018   7.179   3.061  0.2514  0.2248  0.2453
 3869SOL    HW116454   0.977   7.241   3.120  2.6965  0.8470  1.4275
 3869SOL    HW216455   0.986   7.093   3.090 -3.0701  0.7768 -1.3332
 3870SOL     OW16456   0.083   8.442   6.625 -0.4234 -0.3278  0.4069
 3870SOL    HW116457   0.080   8.394   6.708 -0.1265 -2.2581 -0.6514
 3870SOL    HW216458   0.048   8.529   6.647 -0.1398 -0.6862  2.5890
 3871SOL     OW16459   8.713   7.573   4.912 -0.1173 -0.2672 -0.7563
 3871SOL    HW116460   8.689   7.604   5.000 -1.1019 -0.8239 -0.8092
 3871SOL    HW216461   8.733   7.652   4.862  0.7318  0.0423  0.0370
 3872SOL     OW16462   8.979   6.060   3.344 -0.0482  0.3229  0.0739
 3872SOL    HW116463   8.980   6.052   3.439 -0.3686 -0.5905  0.0081
 3872SOL    HW216464   9.045   5.998   3.313 -1.5854 -1.1544 -0.3940
 3873SOL     OW16465   9.847   7.205   4.200  0.0295 -0.5448 -0.2510
 3873SOL    HW116466   9.931   7.251   4.201 -0.2439 -0.0334 -0.3405
 3873SOL    HW216467   9.821   7.205   4.108 -0.7402  0.5664 -0.0517
 3874SOL     OW16468   9.754   6.172   7.682  0.0368 -0.1953 -0.0623
 3874SOL    HW116469   9.724   6.220   7.605 -1.3317 -0.8248  0.0523
 3874SOL    HW216470   9.728   6.227   7.756 -0.4220 -0.5217  0.0212
 3875SOL     OW16471   3.635   4.752   4.774 -0.4854  0.5248 -0.0535
 3875SOL    HW116472   3.696   4.825   4.787  0.5542 -0.1664 -0.8498
 3875SOL    HW216473   3.612   4.757   4.681 -0.7742  0.1161 -0.0061
 3876SOL     OW16474   2.368   7.391   2.426 -0.0391 -0.4421 -0.0034
 3876SOL    HW116475   2.420   7.336   2.484  1.5192 -0.0715 -0.9901
 3876SOL    HW216476   2.368   7.345   2.342 -1.5845 -0.5736  0.0343
 3877SOL     OW16477   8.712   7.048   4.148 -0.2384 -0.0768 -0.6520
 3877SOL    HW116478   8.664   7.115   4.197  0.4985 -0.4913  0.6757
 3877SOL    HW216479   8.768   7.098   4.088  1.4433  0.6055  1.3942
 3878SOL     OW16480   8.885   8.480   5.590 -0.3113  0.2482 -0.5636
 3878SOL    HW116481   8.860   8.484   5.497 -2.6509  0.1405 -0.0122
 3878SOL    HW216482   8.841   8.402   5.623  0.9031  0.0135  0.5449
 3879SOL     OW16483   0.032   7.879   3.898  0.2557  0.4332 -0.5688
 3879SOL    HW116484   0.082   7.946   3.944 -1.0123  1.7539 -1.0415
 3879SOL    HW216485  -0.015   7.927   3.830 -2.2598 -0.5725  0.3460
 3880SOL     OW16486   9.507   6.034   5.579 -0.2416 -0.5349  0.4282
 3880SOL    HW116487   9.512   6.081   5.496 -0.2440  0.6818  1.0906
 3880SOL    HW216488   9.597   6.011   5.600  0.0007  0.8836  1.0261
 3881SOL     OW16489   0.811   5.238   6.476  0.4295 -0.3985  0.5564
 3881SOL    HW116490   0.744   5.237   6.408  0.7173  0.7575  0.2191
 3881SOL    HW216491   0.857   5.321   6.463  0.6274 -0.2377  2.0375
 3882SOL     OW16492   1.390   5.521   3.705  0.1002 -0.3848  0.1842
 3882SOL    HW116493   1.357   5.611   3.713  0.8926  0.0713 -1.3849
 3882SOL    HW216494   1.312   5.466   3.714 -0.5727  0.5205 -0.0102
 3883SOL     OW16495   2.012   4.771   5.469 -0.1759 -0.2595  0.2490
 3883SOL    HW116496   1.964   4.833   5.414 -0.4182 -0.6899 -0.0294
 3883SOL    HW216497   2.022   4.693   5.414  1.5139  0.0856  0.0149
 3884SOL     OW16498   2.682   6.969   2.006  0.0570  0.0807 -0.3299
 3884SOL    HW116499   2.716   6.994   2.092  2.7493 -3.3797 -0.1931
 3884SOL    HW216500   2.759   6.968   1.950 -1.0018 -1.4368 -1.8203
 3885SOL     OW16501   8.707   7.789   3.647  0.4693 -0.4056 -0.4046
 3885SOL    HW116502   8.729   7.880   3.669 -1.5747 -0.0103  0.3209
 3885SOL    HW216503   8.773   7.736   3.691  1.7592  0.7278 -0.9245
 3886SOL     OW16504   1.186   6.549   3.629  0.1831  0.0428  0.0813
 3886SOL    HW116505   1.239   6.478   3.667  0.1660 -0.7596 -1.3037
 3886SOL    HW216506   1.135   6.583   3.702  1.4283 -0.2464  1.1215
 3887SOL     OW16507   1.090   4.147   4.983  0.2270  0.0648  0.3380
 3887SOL    HW116508   1.040   4.081   5.031  0.1394 -0.5661 -0.5933
 3887SOL    HW216509   1.053   4.231   5.011  0.5828 -0.2476  1.8067
 3888SOL     OW16510   1.467   8.754   3.884  0.5116  0.0077  0.5006
 3888SOL    HW116511   1.493   8.846   3.870  0.9482  0.1356  2.0503
 3888SOL    HW216512   1.374   8.759   3.906  0.8508  0.2354  1.9668
 3889SOL     OW16513   9.198   6.060   7.023 -0.3480  0.0317 -0.4796
 3889SOL    HW116514   9.240   6.113   7.091  0.5740  0.1214 -1.0976
 3889SOL    HW216515   9.265   6.053   6.954 -0.8912 -0.9336 -0.9174
 3890SOL     OW16516   8.637   4.934   4.925  0.5671  0.0106 -0.3054
 3890SOL    HW116517   8.601   4.847   4.944 -0.7257  0.6010  0.0835
 3890SOL    HW216518   8.727   4.930   4.957  0.2691 -0.9243  0.4767
 3891SOL     OW16519   9.614   9.141   7.557  0.1792  0.3976  0.1102
 3891SOL    HW116520   9.652   9.060   7.590  1.7112  1.1595  0.3371
 3891SOL    HW216521   9.680   9.174   7.495  0.5597  2.4552  1.5169
 3892SOL     OW16522   9.704   6.512   4.206 -0.0391  0.9647 -0.0428
 3892SOL    HW116523   9.708   6.468   4.291  2.0055  0.2765 -0.4332
 3892SOL    HW216524   9.615   6.547   4.201 -0.0601  1.4672  2.5893
 3893SOL     OW16525   1.001   6.883   5.294  0.2294 -0.6752 -0.5849
 3893SOL    HW116526   0.958   6.799   5.280 -0.6358 -0.2925 -0.3025
 3893SOL    HW216527   1.030   6.910   5.207  1.9454 -1.9903 -0.4773
 3894SOL     OW16528   0.516   4.922   5.741 -0.3850 -0.1274  0.0837
 3894SOL    HW116529   0.506   4.832   5.773 -2.8642  0.2053  0.4045
 3894SOL    HW216530   0.584   4.959   5.797 -0.5047 -1.3107  1.0655
 3895SOL     OW16531   8.832   3.003   3.548 -0.4079  0.3504  0.2924
 3895SOL    HW116532   8.913   3.033   3.506 -0.8048  2.2679  0.7988
 3895SOL    HW216533   8.764   3.018   3.483 -0.3363 -1.7830 -0.3431
 3896SOL     OW16534   1.001   4.853   3.855 -0.1957  0.4215 -1.0371
 3896SOL    HW116535   1.012   4.793   3.781  0.4231 -0.0248 -0.5957
 3896SOL    HW216536   1.010   4.797   3.932  2.4444  1.3516 -0.5748
 3897SOL     OW16537   0.642   4.158   4.267 -0.1710 -0.8703 -0.2223
 3897SOL    HW116538   0.686   4.155   4.353  0.6129 -1.3622 -0.6281
 3897SOL    HW216539   0.562   4.208   4.283  0.6916  0.3553  0.4850
 3898SOL     OW16540   1.557   6.870   4.351 -0.3163 -0.1837 -0.3690
 3898SOL    HW116541   1.537   6.937   4.416 -2.7145 -0.3585 -0.8639
 3898SOL    HW216542   1.599   6.918   4.279  2.0736  0.0573  1.0606
 3899SOL     OW16543   1.676   5.126   4.528 -0.2284 -0.4302  0.3102
 3899SOL    HW116544   1.744   5.060   4.543  1.3006  1.7009  4.1236
 3899SOL    HW216545   1.620   5.120   4.606 -2.7140 -0.0947 -1.3346
 3900SOL     OW16546   0.664   6.243   5.270 -0.2338  0.0064  0.3281
 3900SOL    HW116547   0.575   6.206   5.276  0.0951 -0.6866  1.2213
 3900SOL    HW216548   0.657   6.330   5.308  0.1901 -1.4381  4.1844
 3901SOL     OW16549   1.042   6.059   4.198  0.1508 -0.3324  0.4584
 3901SOL    HW116550   1.040   6.153   4.217  0.7599 -0.0265 -0.8693
 3901SOL    HW216551   0.950   6.032   4.204 -0.1313  0.5040  0.1672
 3902SOL     OW16552   0.965   6.578   4.839  0.1245  0.0553 -0.3411
 3902SOL    HW116553   0.892   6.567   4.901  0.1810  0.3431 -0.2221
 3902SOL    HW216554   1.002   6.490   4.831  0.8001  0.1943  0.8813
 3903SOL     OW16555   1.119   5.963   5.036  0.1214  0.0126  0.3345
 3903SOL    HW116556   1.100   6.056   5.041  1.9409  0.3735  1.9445
 3903SOL    HW216557   1.103   5.930   5.124 -1.6968 -1.5107 -0.5019
 3904SOL     OW16558   9.768   7.075   5.038 -0.0589  0.2139  0.1494
 3904SOL    HW116559   9.724   7.098   4.956  0.6093 -0.8522 -0.5248
 3904SOL    HW216560   9.803   6.988   5.023 -0.3899 -0.2248  1.7744
 3905SOL     OW16561   3.232   7.529   1.153  0.2047  0.4332  0.3036
 3905SOL    HW116562   3.291   7.590   1.109 -0.1268  1.2353  0.9637
 3905SOL    HW216563   3.146   7.570   1.147 -0.1391 -0.2928  0.1627
 3906SOL     OW16564   1.051   5.679   4.609 -0.8409  0.3556  0.0879
 3906SOL    HW116565   1.064   5.661   4.702  0.2527  3.3246  0.6304
 3906SOL    HW216566   1.085   5.602   4.564 -1.8473 -1.3619  2.1107
 3907SOL     OW16567   7.586   8.587   6.249  0.0326 -0.7276 -0.6132
 3907SOL    HW116568   7.550   8.520   6.307  0.3593 -0.2168  0.2009
 3907SOL    HW216569   7.674   8.603   6.283 -0.0763  0.1825 -0.7359
 3908SOL     OW16570   9.186   7.019   4.136 -0.0773 -0.6918  0.0724
 3908SOL    HW116571   9.154   7.006   4.047 -0.8958 -2.0189  0.5183
 3908SOL    HW216572   9.279   7.039   4.127 -0.2101 -0.5597 -1.0818
 3909SOL     OW16573   1.311   6.389   3.011  0.8069 -0.1495  0.0275
 3909SOL    HW116574   1.243   6.456   3.000  1.0463  0.0364 -0.3818
 3909SOL    HW216575   1.265   6.314   3.048  0.5819  0.3230  0.7116
 3910SOL     OW16576   2.010   5.488   6.957 -0.4508  0.3657  0.0216
 3910SOL    HW116577   2.069   5.501   6.883 -0.6774  1.9440  0.0700
 3910SOL    HW216578   1.947   5.423   6.927 -0.8760  1.3789 -1.3945
 3911SOL     OW16579   8.085   6.178   3.386 -0.0340  0.4196  0.3456
 3911SOL    HW116580   8.086   6.120   3.462 -1.5664 -1.1282 -0.7486
 3911SOL    HW216581   8.099   6.120   3.311 -0.2064  1.6659 -0.6874
 3912SOL     OW16582   2.932   5.885   2.918 -0.4700  0.4627  0.2867
 3912SOL    HW116583   2.987   5.953   2.956  0.3312  2.0698 -3.2965
 3912SOL    HW216584   2.990   5.836   2.860 -1.9726 -0.4352 -0.5390
 3913SOL     OW16585   0.431   6.643   5.544 -0.6077 -0.1447  0.0987
 3913SOL    HW116586   0.370   6.571   5.532  0.3231 -0.7378 -1.4410
 3913SOL    HW216587   0.400   6.711   5.486  0.1157 -0.4206 -0.6346
 3914SOL     OW16588   0.867   5.533   4.794  0.4838  0.3771  0.1938
 3914SOL    HW116589   0.879   5.443   4.762  0.7155  0.2715  0.5726
 3914SOL    HW216590   0.944   5.549   4.848  2.0542  1.9001 -2.3138
 3915SOL     OW16591   2.458   8.318   6.667  0.0503 -0.4477  0.1601
 3915SOL    HW116592   2.450   8.234   6.711 -0.0183 -0.3736  0.2908
 3915SOL    HW216593   2.535   8.309   6.610  0.0672 -0.5841  0.2057
 3916SOL     OW16594   2.116   5.041   5.448 -0.5830 -0.0843  0.0769
 3916SOL    HW116595   2.104   4.956   5.489 -0.3629  0.9819  2.5387
 3916SOL    HW216596   2.051   5.097   5.490  0.0310  1.2218 -0.6619
 3917SOL     OW16597   0.410   7.519   6.291 -0.4211  0.5546  0.2061
 3917SOL    HW116598   0.379   7.516   6.381 -0.7115 -0.6247  0.0739
 3917SOL    HW216599   0.337   7.555   6.241 -0.1855  1.4086  0.4599
 3918SOL     OW16600   2.826   5.758   5.758  0.0979  0.0376 -0.1644
 3918SOL    HW116601   2.793   5.765   5.848 -1.1455 -1.0621 -0.5032
 3918SOL    HW216602   2.791   5.674   5.727 -1.1224  1.2748 -2.3143
 3919SOL     OW16603   0.233   5.512   6.191 -0.5396 -0.2137 -0.2023
 3919SOL    HW116604   0.151   5.462   6.203 -0.4405 -0.1339  0.9353
 3919SOL    HW216605   0.236   5.530   6.097 -0.8647 -1.8729 -0.5707
 3920SOL     OW16606   0.843   5.274   3.996 -0.5856  0.3056  0.3315
 3920SOL    HW116607   0.787   5.312   3.929 -0.3214 -1.3818 -0.9086
 3920SOL    HW216608   0.834   5.179   3.984  0.8743 -0.0163  1.5067
 3921SOL     OW16609   2.258   3.501   7.906 -0.0505  0.3285 -0.0195
 3921SOL    HW116610   2.208   3.468   7.980 -1.2412 -1.0758 -1.3569
 3921SOL    HW216611   2.200   3.490   7.831  0.3721  3.4745 -0.9575
 3922SOL     OW16612   9.653   7.729   4.206 -0.1123 -0.3390 -0.4277
 3922SOL    HW116613   9.663   7.725   4.111  0.9939 -0.4069 -0.3144
 3922SOL    HW216614   9.656   7.823   4.226  0.0324 -0.3482 -0.4116
 3923SOL     OW16615   7.544   6.407   7.690  0.0921 -0.2079 -0.0313
 3923SOL    HW116616   7.596   6.327   7.692 -0.1148 -0.3319  0.5740
 3923SOL    HW216617   7.470   6.386   7.632  0.6737 -0.0447 -0.8524
 3924SOL     OW16618   0.920   4.459   4.095  0.2891 -0.0262  0.3554
 3924SOL    HW116619   0.984   4.440   4.026 -1.3838 -0.2872 -1.1923
 3924SOL    HW216620   0.963   4.430   4.176  3.5268  2.9732 -0.0547
 3925SOL     OW16621   0.072   7.954   3.551  0.0692 -0.0109 -0.0562
 3925SOL    HW116622   0.067   8.041   3.591 -1.1968  0.1147 -0.4661
 3925SOL    HW216623   0.095   7.896   3.624  1.7057  0.7470  0.0774
 3926SOL     OW16624   2.386   5.600   5.243 -0.0124  0.2928 -0.0836
 3926SOL    HW116625   2.364   5.517   5.203 -1.9547  1.1592 -0.8985
 3926SOL    HW216626   2.434   5.648   5.175  1.8152 -0.4047  0.6485
 3927SOL     OW16627   1.163   6.372   5.215  0.3934  0.1313  0.1010
 3927SOL    HW116628   1.169   6.349   5.122 -2.7006  1.0438 -0.4402
 3927SOL    HW216629   1.077   6.412   5.224  0.7065  0.3232  3.3563
 3928SOL     OW16630   0.923   7.419   3.471  0.0455  0.8191  0.0692
 3928SOL    HW116631   0.835   7.409   3.434  0.0733 -1.2241  0.4765
 3928SOL    HW216632   0.930   7.350   3.536  1.9953  0.8907 -0.0083
 3929SOL     OW16633   9.252   6.848   3.366 -0.5790 -0.4712 -0.9178
 3929SOL    HW116634   9.229   6.936   3.337 -0.4854 -0.6674 -1.5959
 3929SOL    HW216635   9.313   6.815   3.300  0.5884 -0.4808  0.1051
 3930SOL     OW16636   2.755   7.300   4.180  0.1268  0.0358  0.7150
 3930SOL    HW116637   2.828   7.362   4.187  1.0710 -1.1084  1.4619
 3930SOL    HW216638   2.786   7.221   4.226 -0.5275 -1.4559 -1.2493
 3931SOL     OW16639   1.560   5.784   5.743  0.0984 -0.1131 -0.6158
 3931SOL    HW116640   1.580   5.691   5.733 -1.7498 -0.5554 -0.4493
 3931SOL    HW216641   1.486   5.800   5.685 -0.4095  0.9634  0.2781
 3932SOL     OW16642   0.830   6.643   1.532 -0.4097  0.4989  0.1963
 3932SOL    HW116643   0.823   6.561   1.581  1.5030  0.0932 -0.1262
 3932SOL    HW216644   0.898   6.693   1.576  1.1177  0.2735 -1.7483
 3933SOL     OW16645   3.563   6.752   8.703  0.2936 -0.6989 -0.8778
 3933SOL    HW116646   3.543   6.798   8.785  2.1213  1.5047 -1.5452
 3933SOL    HW216647   3.492   6.690   8.692  0.4971 -1.8659  2.9022
 3934SOL     OW16648   1.217   8.432   1.603 -0.0890  0.2452 -0.0692
 3934SOL    HW116649   1.161   8.485   1.660 -0.0793 -0.2382  0.3984
 3934SOL    HW216650   1.157   8.372   1.559  0.2325 -1.8173  2.1008
 3935SOL     OW16651   0.417   4.887   7.576  0.4397  0.3596  0.0973
 3935SOL    HW116652   0.357   4.874   7.503  1.4406  0.1078 -0.7011
 3935SOL    HW216653   0.396   4.974   7.609 -0.2718  0.3264 -0.2563
 3936SOL     OW16654   0.670   6.598   2.614 -0.7149 -0.2346  0.1006
 3936SOL    HW116655   0.643   6.686   2.588 -0.1272  0.2893  1.1998
 3936SOL    HW216656   0.589   6.554   2.639 -0.7850  0.8102  1.8673
 3937SOL     OW16657   2.696   7.773   2.664  0.2424  0.2563 -0.4613
 3937SOL    HW116658   2.751   7.805   2.593  2.0753 -1.6832 -0.0352
 3937SOL    HW216659   2.701   7.841   2.731  1.2642  0.6088 -0.8707
 3938SOL     OW16660   3.043   4.098   1.805  0.2881  0.0848 -0.1709
 3938SOL    HW116661   2.978   4.085   1.736  0.6008  0.2311 -0.4960
 3938SOL    HW216662   2.992   4.112   1.884 -0.1087  1.8920 -0.7056
 3939SOL     OW16663   9.769   5.232   3.569  0.0508  0.0657 -0.2414
 3939SOL    HW116664   9.859   5.232   3.600  0.3102 -2.2288 -0.8033
 3939SOL    HW216665   9.775   5.254   3.477  0.3138 -1.9728 -0.7603
 3940SOL     OW16666   1.906   4.285   7.854  0.3302  0.0451  0.4604
 3940SOL    HW116667   1.820   4.280   7.812  0.4382 -0.4811  0.2926
 3940SOL    HW216668   1.964   4.318   7.786  0.2189  0.6025  0.6371
 3941SOL     OW16669   1.308   5.606   3.064 -0.1645 -0.4114  0.4416
 3941SOL    HW116670   1.222   5.603   3.023  0.5816  1.0869 -1.3904
 3941SOL    HW216671   1.312   5.527   3.118 -1.6006 -1.9941 -1.6243
 3942SOL     OW16672   9.812   5.815   4.098  0.1480 -0.3849 -0.0588
 3942SOL    HW116673   9.792   5.841   4.008 -2.9013 -0.7823  0.4124
 3942SOL    HW216674   9.784   5.724   4.103 -1.1193  0.0666  1.6567
 3943SOL     OW16675   0.663   6.907   7.127  0.0512 -0.2216  0.4097
 3943SOL    HW116676   0.586   6.933   7.077 -0.2945 -1.7700  0.0778
 3943SOL    HW216677   0.711   6.988   7.142 -0.8749  0.5521 -0.6805
 3944SOL     OW16678   1.058   4.050   8.983 -0.1598  0.3551  0.1999
 3944SOL    HW116679   0.983   4.109   8.973  0.2632  1.0161  0.8148
 3944SOL    HW216680   1.116   4.096   9.044  0.5514 -0.3398  0.0555
 3945SOL     OW16681   6.044   5.524   6.934 -0.0596 -0.2635 -0.2706
 3945SOL    HW116682   5.997   5.444   6.912  0.9551 -1.0759  0.3973
 3945SOL    HW216683   6.005   5.553   7.017  1.5777 -1.8247  1.1427
 3946SOL     OW16684   1.383   7.733   8.041  0.6864 -0.0080  0.3157
 3946SOL    HW116685   1.419   7.710   8.126  0.2283 -2.5145 -0.0965
 3946SOL    HW216686   1.347   7.821   8.053  0.1323 -0.5199  2.8567
 3947SOL     OW16687   1.115   6.787   5.757  0.9206  0.5993  0.8708
 3947SOL    HW116688   1.105   6.695   5.780  0.2967  0.7608  1.2836
 3947SOL    HW216689   1.201   6.793   5.715  0.5793 -0.3214  0.0093
 3948SOL     OW16690   0.122   5.953   4.795  0.6704 -0.0215  0.0310
 3948SOL    HW116691   0.099   5.866   4.827  0.0435  0.7053  1.6761
 3948SOL    HW216692   0.070   5.964   4.716  0.5017 -1.0087 -0.0056
 3949SOL     OW16693   2.077   7.118   4.034  0.3573 -0.6078 -0.2798
 3949SOL    HW116694   2.002   7.137   3.977 -0.4594 -0.6236  0.7547
 3949SOL    HW216695   2.041   7.061   4.102  0.8691  0.7541  1.2126
 3950SOL     OW16696   1.856   6.445   5.553 -0.5131 -0.0056  0.3685
 3950SOL    HW116697   1.812   6.401   5.626  2.3157  0.1577  2.3377
 3950SOL    HW216698   1.883   6.529   5.588 -0.8412  0.9756 -1.5724
 3951SOL     OW16699   0.963   6.383   8.601  0.6809  0.3240  0.0191
 3951SOL    HW116700   1.033   6.365   8.538  0.9507  0.9768  0.1288
 3951SOL    HW216701   1.008   6.394   8.685  0.2159 -2.0278  0.6709
 3952SOL     OW16702   0.238   4.933   5.664  0.7230 -0.9121  0.0204
 3952SOL    HW116703   0.330   4.957   5.678  0.8480 -0.4099 -1.4310
 3952SOL    HW216704   0.217   4.970   5.578 -1.7485  1.6917  1.5565
 3953SOL     OW16705   9.441   9.315   7.963  0.3381  0.7730  0.6458
 3953SOL    HW116706   9.465   9.247   8.027 -0.3763 -2.6361 -2.3841
 3953SOL    HW216707   9.345   9.319   7.969  0.3426  1.1476  0.4475
 3954SOL     OW16708   0.931   4.973   3.537  0.1072 -0.0743  0.0283
 3954SOL    HW116709   0.986   4.923   3.477  0.3894  0.0971  0.1423
 3954SOL    HW216710   0.861   5.008   3.482 -0.5082 -1.1996  0.0724
 3955SOL     OW16711   9.034   8.469   6.248  0.2473  0.3601  0.0842
 3955SOL    HW116712   9.049   8.401   6.313 -2.9886 -1.0640 -0.4528
 3955SOL    HW216713   9.032   8.550   6.299 -0.6789 -0.5372  1.5622
 3956SOL     OW16714   0.529   6.250   7.910 -0.6350  0.0445  0.1588
 3956SOL    HW116715   0.581   6.171   7.896 -1.6676 -0.7090  0.5100
 3956SOL    HW216716   0.522   6.290   7.823  0.8486  0.3912  0.1643
 3957SOL     OW16717   2.722   6.324   4.162 -0.5676 -0.3182  0.0070
 3957SOL    HW116718   2.675   6.380   4.223 -2.1784 -0.3300 -1.1480
 3957SOL    HW216719   2.771   6.263   4.218 -0.7453  0.6569  1.2603
 3958SOL     OW16720   0.608   6.519   5.256  0.4044  0.0511 -0.9334
 3958SOL    HW116721   0.622   6.542   5.347  0.2649 -0.5456 -0.7571
 3958SOL    HW216722   0.603   6.603   5.210 -0.4637  0.3817 -0.2628
 3959SOL     OW16723   2.948   6.212   5.389  0.0317  0.2066  0.4093
 3959SOL    HW116724   2.948   6.172   5.476  0.7048 -0.8914 -0.0659
 3959SOL    HW216725   3.040   6.209   5.361 -0.3803 -0.9707 -0.9747
 3960SOL     OW16726   0.737   7.413   6.732 -0.1651 -0.6280 -0.1823
 3960SOL    HW116727   0.772   7.410   6.821  0.6957  1.0705 -0.4125
 3960SOL    HW216728   0.813   7.437   6.678 -0.3929 -2.7857 -1.5756
 3961SOL     OW16729   8.194   7.866   6.226 -0.4675  0.4507  0.1026
 3961SOL    HW116730   8.150   7.828   6.149 -0.7937  1.7990 -0.3988
 3961SOL    HW216731   8.212   7.956   6.201 -0.5163  0.8997  1.5998
 3962SOL     OW16732   8.035   5.205   5.423 -0.4298 -0.4744  0.2679
 3962SOL    HW116733   8.048   5.210   5.328 -0.5994 -1.0675  0.2090
 3962SOL    HW216734   8.025   5.296   5.450 -0.4979 -0.3069 -0.2999
 3963SOL     OW16735   0.357   5.753   9.151 -0.3865  0.1906 -0.5817
 3963SOL    HW116736   0.428   5.783   9.208 -0.7155 -0.0733 -0.0354
 3963SOL    HW216737   0.352   5.821   9.083  1.0619 -0.2777 -1.2161
 3964SOL     OW16738   1.395   5.519   5.808  0.2821  0.8102 -0.1075
 3964SOL    HW116739   1.421   5.482   5.724 -2.1992  0.1408 -0.6817
 3964SOL    HW216740   1.332   5.455   5.844  2.8709 -0.0876  3.3946
 3965SOL     OW16741   2.687   3.880   6.051  0.1038 -0.3306  0.1666
 3965SOL    HW116742   2.633   3.867   6.130  0.6733 -2.8706  0.2015
 3965SOL    HW216743   2.667   3.805   5.996  1.9650 -0.1540 -0.8033
 3966SOL     OW16744   8.808   7.925   9.130  0.1246  0.0889  0.0869
 3966SOL    HW116745   8.770   7.902   9.215  0.8359  0.7836  0.6049
 3966SOL    HW216746   8.773   8.012   9.112  0.1905  0.0532 -0.2065
 3967SOL     OW16747   3.853   6.762   6.283 -0.1064 -0.1286  0.0481
 3967SOL    HW116748   3.907   6.783   6.207 -0.4357  1.9188  0.3161
 3967SOL    HW216749   3.912   6.772   6.358 -0.9204  2.7940  0.3976
 3968SOL     OW16750   1.373   5.814   6.802  0.5252  0.5190 -0.1860
 3968SOL    HW116751   1.439   5.839   6.738  2.9558 -1.3082  1.4331
 3968SOL    HW216752   1.423   5.780   6.876 -2.2420 -2.1789  0.6404
 3969SOL     OW16753   9.758   7.710   7.516 -0.1451 -0.0511  0.0371
 3969SOL    HW116754   9.840   7.684   7.557 -1.4990 -2.1618  1.5708
 3969SOL    HW216755   9.692   7.652   7.553 -2.0932  0.3747 -2.4434
 3970SOL     OW16756   2.842   8.330   5.084 -0.4080  0.5861  0.3398
 3970SOL    HW116757   2.763   8.375   5.056 -0.6097 -0.6946 -1.3380
 3970SOL    HW216758   2.882   8.388   5.149 -1.1934  2.6155 -0.9175
 3971SOL     OW16759   1.839   6.142   7.125  0.0038  0.3796  0.0923
 3971SOL    HW116760   1.760   6.137   7.072 -0.3699 -0.5135  0.7170
 3971SOL    HW216761   1.897   6.075   7.089  0.0405  0.2753  0.3431
 3972SOL     OW16762   0.334   6.675   4.958 -0.0994 -0.8377 -0.0587
 3972SOL    HW116763   0.250   6.650   4.920 -1.0241  0.4181  1.0593
 3972SOL    HW216764   0.348   6.612   5.029 -0.4560 -0.6031  0.2197
 3973SOL     OW16765   0.346   5.754   5.818  0.4601 -0.2277 -0.0246
 3973SOL    HW116766   0.432   5.794   5.829  0.5297 -0.4210  0.1380
 3973SOL    HW216767   0.323   5.772   5.727 -0.0205  1.1785  0.3524
 3974SOL     OW16768   4.437   7.896   5.389 -0.0153  0.0985 -1.2972
 3974SOL    HW116769   4.463   7.956   5.460  0.5341 -1.2414 -0.3274
 3974SOL    HW216770   4.376   7.947   5.336 -0.9810  0.9386  0.5297
 3975SOL     OW16771   0.283   5.383   5.338 -0.3512  0.4703 -0.0311
 3975SOL    HW116772   0.321   5.297   5.321 -0.2867  0.7458 -1.3671
 3975SOL    HW216773   0.189   5.366   5.346 -0.4431  0.3744 -1.1628
 3976SOL     OW16774   0.145   6.241   8.082 -0.2161 -0.3940 -0.3171
 3976SOL    HW116775   0.070   6.271   8.133 -0.1953 -0.9105  0.0221
 3976SOL    HW216776   0.204   6.202   8.147 -0.9128 -2.5613 -0.9144
 3977SOL     OW16777   3.318   6.893   4.846 -1.3221  0.0354  0.5117
 3977SOL    HW116778   3.263   6.933   4.779  0.0967  0.5225 -0.4038
 3977SOL    HW216779   3.355   6.815   4.803  1.7829  1.8049 -0.3582
 3978SOL     OW16780   9.495   8.344   6.915  0.3172 -0.3368  0.2946
 3978SOL    HW116781   9.513   8.381   6.828 -1.0801  1.7995  0.8305
 3978SOL    HW216782   9.493   8.250   6.900 -2.1365 -0.0035 -2.5488
 3979SOL     OW16783   1.851   6.007   7.419  0.0374  0.5434 -0.1407
 3979SOL    HW116784   1.756   5.993   7.411  0.2554 -0.3394 -1.5097
 3979SOL    HW216785   1.872   6.064   7.344  1.1241 -2.3324 -2.1956
 3980SOL     OW16786   1.657   7.506   5.942  0.3270 -0.0930  0.1182
 3980SOL    HW116787   1.678   7.584   5.995  2.7779  0.5920 -1.6553
 3980SOL    HW216788   1.655   7.539   5.852 -0.5054 -1.7786 -0.5014
 3981SOL     OW16789   9.443   5.987   4.187 -0.4766 -0.3374 -0.7724
 3981SOL    HW116790   9.452   5.907   4.239  2.9096 -0.4383 -1.3024
 3981SOL    HW216791   9.425   5.957   4.098 -1.4421 -0.3693 -0.5778
 3982SOL     OW16792   0.755   5.491   6.096  0.3541  0.5610  0.2752
 3982SOL    HW116793   0.835   5.544   6.099  0.7838 -0.0662  0.2048
 3982SOL    HW216794   0.723   5.502   6.007  0.8045  0.1914  0.0606
 3983SOL     OW16795   0.997   5.710   7.522 -0.2132  0.4378 -0.4091
 3983SOL    HW116796   1.043   5.790   7.549 -0.6811  1.3534 -2.1510
 3983SOL    HW216797   0.906   5.736   7.513 -0.3733 -0.2900 -1.0001
 3984SOL     OW16798   0.004   4.998   6.203 -0.0038 -0.3264 -0.7360
 3984SOL    HW116799   0.025   4.945   6.126  1.0795  0.7336 -1.1988
 3984SOL    HW216800  -0.085   5.030   6.187 -0.9114 -2.3629 -0.2001
 3985SOL     OW16801   1.739   4.467   7.037  0.1653 -0.1259 -1.1048
 3985SOL    HW116802   1.656   4.513   7.042  1.1737  1.8009 -1.0403
 3985SOL    HW216803   1.783   4.488   7.120  1.1256 -0.2583 -1.5663
 3986SOL     OW16804   1.584   7.600   7.859 -0.1308  0.1825  0.1320
 3986SOL    HW116805   1.514   7.659   7.887  0.9613  0.9886  1.2567
 3986SOL    HW216806   1.652   7.609   7.925 -0.2670 -3.0638  0.8941
 3987SOL     OW16807   9.821   5.050   4.482 -0.2350  0.4848  0.1963
 3987SOL    HW116808   9.746   4.991   4.490 -0.2519  0.7134  2.1921
 3987SOL    HW216809   9.824   5.096   4.566  1.3185  1.4825 -0.3708
 3988SOL     OW16810   6.587   7.559   6.473 -0.2055 -0.2663  0.5338
 3988SOL    HW116811   6.655   7.623   6.493  1.1661 -1.5552  0.2008
 3988SOL    HW216812   6.506   7.610   6.470  0.9734  1.6712 -0.9432
 3989SOL     OW16813   1.723   5.600   6.768  0.2865  0.5746  0.4060
 3989SOL    HW116814   1.636   5.590   6.806  0.9011 -0.1564  1.7016
 3989SOL    HW216815   1.758   5.511   6.764  1.3503  0.9545  0.8598
 3990SOL     OW16816   1.725   5.468   5.667  0.3046 -0.5136 -0.1062
 3990SOL    HW116817   1.709   5.400   5.733 -0.3501  0.9069  1.2713
 3990SOL    HW216818   1.678   5.437   5.589  0.9616 -2.1554  0.1251
 3991SOL     OW16819   9.857   7.782   4.433  0.8349  0.6001 -0.3567
 3991SOL    HW116820   9.910   7.703   4.423  0.8503  0.5451  0.1339
 3991SOL    HW216821   9.767   7.752   4.428  0.8024  0.3297  1.2136
 3992SOL     OW16822   2.774   6.323   7.924  0.5469 -0.3251 -0.3211
 3992SOL    HW116823   2.800   6.241   7.965 -0.3598  0.2823  1.6211
 3992SOL    HW216824   2.761   6.383   7.998  3.7153  2.4026 -1.6947
 3993SOL     OW16825   1.652   5.369   4.871 -0.3029 -0.1879  0.2548
 3993SOL    HW116826   1.625   5.279   4.850  1.8204 -0.7080 -0.4750
 3993SOL    HW216827   1.687   5.363   4.960  0.7619 -0.3347 -0.1561
 3994SOL     OW16828   8.955   7.624   5.754 -0.1364  0.5771  0.6060
 3994SOL    HW116829   9.047   7.643   5.734 -0.3079 -0.5539 -1.6462
 3994SOL    HW216830   8.959   7.547   5.811  0.3306  0.7129  0.7632
 3995SOL     OW16831   2.863   5.847   6.987 -0.0263 -0.6378  0.6985
 3995SOL    HW116832   2.915   5.865   7.065 -0.8175  2.0072  0.6898
 3995SOL    HW216833   2.772   5.856   7.016 -0.3234  0.9232 -0.5923
 3996SOL     OW16834   2.694   9.161   6.882  0.0010  0.3127  0.2126
 3996SOL    HW116835   2.679   9.081   6.831 -0.7081  2.2750 -2.9150
 3996SOL    HW216836   2.788   9.179   6.873  0.4059 -0.6800  1.9068
 3997SOL     OW16837   0.025   6.943   3.617 -0.3122  0.1554 -0.2287
 3997SOL    HW116838  -0.014   7.016   3.569  1.0330  0.9087 -0.2306
 3997SOL    HW216839   0.049   6.879   3.550  1.8061  1.3163 -0.6798
 3998SOL     OW16840   0.088   6.306   5.720  0.3195  0.2996 -0.0419
 3998SOL    HW116841   0.142   6.230   5.697 -0.1205  0.3418 -1.3333
 3998SOL    HW216842   0.126   6.378   5.670 -1.1571  0.2386 -1.3488
 3999SOL     OW16843   2.173   9.489   7.421  0.6967 -0.2176  0.8417
 3999SOL    HW116844   2.123   9.509   7.500  0.6930 -0.0724  0.8028
 3999SOL    HW216845   2.184   9.573   7.378  1.8231 -0.0892  1.3450
 4000SOL     OW16846   1.096   6.207   6.790  0.7379  0.0693 -0.0226
 4000SOL    HW116847   1.160   6.150   6.834  0.1341 -2.4531 -2.1541
 4000SOL    HW216848   1.012   6.182   6.828  0.6477  0.9588  0.3829
 4001SOL     OW16849   1.384   5.934   3.405  0.3829  0.3044  0.1327
 4001SOL    HW116850   1.387   6.029   3.406  0.2490  0.3091 -0.0037
 4001SOL    HW216851   1.307   5.912   3.353  0.8830  0.1155 -0.5297
 4002SOL     OW16852   8.310   7.920   4.599  0.2261 -0.2520 -0.2771
 4002SOL    HW116853   8.320   8.013   4.577 -2.6701  0.5842  1.3066
 4002SOL    HW216854   8.340   7.913   4.690 -0.3119 -0.6669 -0.1258
 4003SOL     OW16855   1.473   5.211   5.117  0.2536  0.6487 -0.1759
 4003SOL    HW116856   1.416   5.278   5.154 -0.4315  0.6123 -1.1214
 4003SOL    HW216857   1.486   5.148   5.188 -2.5233 -0.3808 -0.4860
 4004SOL     OW16858   7.613   7.986   8.619  0.2979  0.5728  0.1189
 4004SOL    HW116859   7.581   8.007   8.532  0.1913 -0.2723 -0.0576
 4004SOL    HW216860   7.653   7.900   8.610  0.4027  0.5313  0.8749
 4005SOL     OW16861   0.841   7.191   5.799  0.2059 -0.5930 -0.3608
 4005SOL    HW116862   0.790   7.135   5.740 -0.2672 -0.3986 -0.1336
 4005SOL    HW216863   0.900   7.130   5.844 -0.7442 -1.0012  0.3477
 4006SOL     OW16864   0.018   5.806   4.392  0.0476 -0.2455  0.2972
 4006SOL    HW116865   0.109   5.826   4.415  0.2086  0.9739 -1.2427
 4006SOL    HW216866   0.008   5.713   4.413  2.6521 -1.2873 -2.4673
 4007SOL     OW16867   1.995   7.365   5.999 -0.4439  0.7998 -0.0280
 4007SOL    HW116868   1.991   7.310   6.077  0.9244  0.5458 -0.1210
 4007SOL    HW216869   1.904   7.372   5.970 -0.6180 -1.8670 -0.3242
 4008SOL     OW16870   1.948   7.568   5.181 -0.5779 -0.0098  0.0829
 4008SOL    HW116871   2.015   7.562   5.248 -1.8604  1.8263  1.6486
 4008SOL    HW216872   1.971   7.646   5.130  0.5631 -1.5619 -1.9071
 4009SOL     OW16873   0.409   6.449   8.793  0.0772  0.3354  0.4861
 4009SOL    HW116874   0.424   6.543   8.807 -0.6772  0.7544 -1.2365
 4009SOL    HW216875   0.314   6.441   8.784  0.1218 -0.6246  0.7699
 4010SOL     OW16876   9.295   5.581   5.780 -0.1597 -0.0451  0.2643
 4010SOL    HW116877   9.338   5.664   5.762  1.2366 -0.6887  0.5247
 4010SOL    HW216878   9.202   5.598   5.763  0.2951  1.1127 -1.2502
 4011SOL     OW16879   2.138   7.026   4.928 -0.0592 -0.4035  0.0346
 4011SOL    HW116880   2.053   7.035   4.885 -1.5970 -0.9464  2.7169
 4011SOL    HW216881   2.130   7.080   5.007  2.1916 -0.3145  0.2644
 4012SOL     OW16882   1.486   5.705   8.755 -0.2276 -0.0561  0.0316
 4012SOL    HW116883   1.467   5.798   8.746  1.2931  0.3233  0.5457
 4012SOL    HW216884   1.454   5.683   8.843  0.7991  0.3480  0.5124
 4013SOL     OW16885   1.161   6.112   5.311 -0.0436 -0.1905 -0.0245
 4013SOL    HW116886   1.071   6.136   5.333  0.1891  0.9120 -0.2078
 4013SOL    HW216887   1.207   6.195   5.308  1.1118 -0.7866  0.6174
 4014SOL     OW16888   1.647   6.390   6.468  0.3737  0.4256 -0.2759
 4014SOL    HW116889   1.741   6.387   6.486  0.7867 -2.1255 -2.4222
 4014SOL    HW216890   1.608   6.333   6.534  0.2449  1.5491  0.6673
 4015SOL     OW16891   8.769   6.001   4.335  0.7269 -0.3495 -0.2848
 4015SOL    HW116892   8.710   6.030   4.266  0.7906 -0.8295 -0.5492
 4015SOL    HW216893   8.857   6.022   4.302  0.8432 -1.7193 -0.9355
 4016SOL     OW16894   0.944   7.311   4.732  0.3742 -0.2504 -0.4611
 4016SOL    HW116895   0.996   7.244   4.776  2.1146  2.0786  1.3025
 4016SOL    HW216896   0.856   7.300   4.766  1.0006 -0.6019  1.1172
 4017SOL     OW16897   1.972   5.941   4.897  0.1287  0.1656  0.1646
 4017SOL    HW116898   2.003   5.870   4.841  1.3103  0.5186  0.3334
 4017SOL    HW216899   1.884   5.961   4.866  0.5997  0.0688 -1.2824
 4018SOL     OW16900   1.569   6.251   3.583  0.4836 -0.5655  0.2808
 4018SOL    HW116901   1.518   6.267   3.503  1.0368  0.7569  0.1679
 4018SOL    HW216902   1.641   6.196   3.554  1.9424  1.7019 -0.6696
 4019SOL     OW16903   1.903   5.829   6.692 -0.0583  1.2469  0.0145
 4019SOL    HW116904   1.895   5.853   6.600 -0.1281  1.3198  0.0398
 4019SOL    HW216905   1.841   5.756   6.703  0.2684  0.9476 -0.0986
 4020SOL     OW16906   8.271   7.796   7.005  0.3750  0.5765 -0.0756
 4020SOL    HW116907   8.253   7.847   6.926  0.6493 -0.4085 -0.7941
 4020SOL    HW216908   8.340   7.846   7.051  0.5159  0.9391 -0.6686
 4021SOL     OW16909   3.116   6.646   7.858  0.7327  0.1650 -0.1436
 4021SOL    HW116910   3.092   6.708   7.789 -2.4856 -0.8580 -0.0642
 4021SOL    HW216911   3.147   6.569   7.810 -0.3000 -0.0826 -0.4311
 4022SOL     OW16912   1.135   6.805   6.962  0.0581 -0.4510  0.4211
 4022SOL    HW116913   1.216   6.840   6.926 -0.3614 -0.6197 -0.7563
 4022SOL    HW216914   1.072   6.877   6.955 -0.2487 -0.7519  0.0035
 4023SOL     OW16915   1.629   4.977   6.188  0.3758  0.7525  0.1737
 4023SOL    HW116916   1.628   5.069   6.161  0.5609  0.8427  0.4710
 4023SOL    HW216917   1.584   4.977   6.273 -1.4969  0.2689 -0.7590
 4024SOL     OW16918   0.572   5.031   6.185  0.1193 -0.1341  0.1062
 4024SOL    HW116919   0.510   4.986   6.127  0.3260 -1.0550  0.5801
 4024SOL    HW216920   0.544   5.006   6.273 -0.2485  1.3278  0.4215
 4025SOL     OW16921   3.479   4.126   6.769  0.2320 -0.1626 -0.2512
 4025SOL    HW116922   3.412   4.194   6.774 -1.3628 -1.6246 -0.5440
 4025SOL    HW216923   3.558   4.171   6.742 -0.8376  1.5203 -0.7080
 4026SOL     OW16924   1.403   8.550   6.666 -0.3800 -0.4181 -0.4928
 4026SOL    HW116925   1.482   8.535   6.614  0.5974 -2.2133  1.3771
 4026SOL    HW216926   1.338   8.491   6.627 -0.1693 -0.5056 -0.7207
 4027SOL     OW16927   2.360   6.172   4.658 -0.2716  0.6666 -0.4520
 4027SOL    HW116928   2.441   6.183   4.707 -0.4558  0.0954 -0.0103
 4027SOL    HW216929   2.301   6.126   4.718 -0.6805  0.4414 -1.0156
 4028SOL     OW16930   1.216   5.867   4.813 -0.3559  0.7162  0.3288
 4028SOL    HW116931   1.183   5.922   4.884 -1.6260  2.0633 -1.2022
 4028SOL    HW216932   1.168   5.785   4.821 -2.1629  1.6599 -0.2241
 4029SOL     OW16933   0.010   4.181   5.382 -0.2228  0.2637  0.3661
 4029SOL    HW116934  -0.071   4.206   5.428  0.6206  1.5587  1.1944
 4029SOL    HW216935   0.062   4.261   5.380  0.0176  0.1286 -2.4285
 4030SOL     OW16936   2.204   7.864   5.303  0.3370 -0.1078 -0.5811
 4030SOL    HW116937   2.125   7.889   5.352  0.2019 -0.0151 -0.8383
 4030SOL    HW216938   2.276   7.907   5.349 -0.0697  2.5686 -2.1645
 4031SOL     OW16939   1.091   6.914   7.491  0.2564 -0.2458 -0.2981
 4031SOL    HW116940   1.091   6.982   7.424 -0.7849  0.5450  0.4648
 4031SOL    HW216941   1.042   6.841   7.452  2.5145 -1.1713 -1.6351
 4032SOL     OW16942   0.391   6.567   3.488  0.2213  0.2445 -0.1533
 4032SOL    HW116943   0.376   6.544   3.397  1.5354  1.0042 -0.5800
 4032SOL    HW216944   0.336   6.645   3.502 -2.1353 -1.4198  0.5407
 4033SOL     OW16945   1.252   6.092   6.475 -1.1558  0.0221  0.1070
 4033SOL    HW116946   1.157   6.097   6.476 -1.1715 -0.1113 -0.4691
 4033SOL    HW216947   1.272   6.001   6.452 -0.8765 -0.5289  2.2863
 4034SOL     OW16948   0.913   5.973   6.535  0.6705 -0.0245 -0.0357
 4034SOL    HW116949   0.929   5.901   6.474 -1.5471 -0.5121 -0.0971
 4034SOL    HW216950   0.922   5.932   6.622  0.2870 -0.1732 -0.0651
 4035SOL     OW16951   0.592   6.051   9.242  0.3947 -0.0524  0.8455
 4035SOL    HW116952   0.553   6.125   9.197 -0.7439 -1.6176 -0.8816
 4035SOL    HW216953   0.582   6.072   9.335 -0.8641  1.4710  0.4150
 4036SOL     OW16954   1.138   7.289   8.044  0.4028  0.2818 -0.2152
 4036SOL    HW116955   1.104   7.378   8.048 -0.5123 -0.0103 -1.0407
 4036SOL    HW216956   1.153   7.274   7.950  3.1466  0.4991  0.1140
 4037SOL     OW16957   2.655   6.151   4.517 -0.6545 -0.5447 -0.3113
 4037SOL    HW116958   2.632   6.243   4.529  1.5065  0.0451 -0.1689
 4037SOL    HW216959   2.670   6.117   4.605 -0.9991 -0.9273 -0.3926
 4038SOL     OW16960   1.127   3.802   6.196  0.1392  0.2110 -0.2188
 4038SOL    HW116961   1.051   3.745   6.213 -0.4454  1.5337  1.8931
 4038SOL    HW216962   1.090   3.878   6.150 -0.0738  1.3630  1.7622
 4039SOL     OW16963   0.497   5.123   7.955 -0.4140 -0.2734 -0.2069
 4039SOL    HW116964   0.440   5.182   8.003  0.3500  0.6228 -0.3713
 4039SOL    HW216965   0.452   5.108   7.872  0.6360  2.3627 -1.3576
 4040SOL     OW16966   0.705   6.860   8.509 -0.4822  0.1738  0.4050
 4040SOL    HW116967   0.690   6.916   8.586  0.7445 -1.0375  1.5769
 4040SOL    HW216968   0.768   6.909   8.456 -1.0675  0.8623  0.3209
 4041SOL     OW16969   0.649   6.057   6.799  0.1814 -0.3688  0.8947
 4041SOL    HW116970   0.582   6.096   6.743 -0.7244 -0.3824  1.9430
 4041SOL    HW216971   0.635   5.962   6.791 -1.9991 -0.3921  3.4319
 4042SOL     OW16972   9.531   7.191   8.739 -0.5892 -0.7277 -0.0831
 4042SOL    HW116973   9.528   7.253   8.811  0.0614 -0.5680 -0.1792
 4042SOL    HW216974   9.616   7.147   8.749 -0.6707 -0.9922 -0.5079
 4043SOL     OW16975   0.287   5.792   8.208 -0.0966  0.0948 -0.9178
 4043SOL    HW116976   0.328   5.879   8.207 -0.0724  0.0830 -1.8203
 4043SOL    HW216977   0.300   5.760   8.297  2.2798 -0.1057 -1.2940
 4044SOL     OW16978   0.897   6.344   6.066 -0.0833 -0.6566  0.2512
 4044SOL    HW116979   0.803   6.356   6.074  0.1481  1.4684  0.3772
 4044SOL    HW216980   0.925   6.412   6.004  1.3461 -1.4268 -0.0187
 4045SOL     OW16981   1.393   6.518   4.218 -0.1682  0.4901  0.6046
 4045SOL    HW116982   1.385   6.604   4.175  1.7564  1.3510  1.8671
 4045SOL    HW216983   1.467   6.476   4.175 -0.5424 -0.2054  0.6143
 4046SOL     OW16984   3.519   7.815   3.755 -0.2160 -0.2677  0.0067
 4046SOL    HW116985   3.543   7.819   3.663 -0.4607  0.3473 -0.0345
 4046SOL    HW216986   3.490   7.725   3.769 -1.4766 -0.0207 -0.8473
 4047SOL     OW16987   3.096   4.528   7.764 -0.7200 -0.1317  0.1018
 4047SOL    HW116988   3.032   4.457   7.758 -1.7351  0.7387  0.3713
 4047SOL    HW216989   3.047   4.607   7.742 -0.0025  0.6936  1.3420
 4048SOL     OW16990   1.161   7.300   7.760 -0.1672  0.4888 -0.0831
 4048SOL    HW116991   1.124   7.362   7.698 -0.8174  0.8411  0.6503
 4048SOL    HW216992   1.249   7.283   7.726 -0.6371  0.3938 -1.2954
 4049SOL     OW16993   0.385   5.657   6.661 -0.0014  0.3481  0.0043
 4049SOL    HW116994   0.414   5.613   6.581 -0.3375  0.7058 -0.3184
 4049SOL    HW216995   0.336   5.590   6.709 -0.4791  0.3475 -0.4687
 4050SOL     OW16996   0.155   4.163   6.291 -0.3662  0.1198 -0.0919
 4050SOL    HW116997   0.174   4.208   6.208 -0.0482  0.3273  0.0906
 4050SOL    HW216998   0.066   4.191   6.313  0.3530  1.9228  0.8009
 4051SOL     OW16999   0.154   6.040   5.637 -0.3151  0.1237 -0.1693
 4051SOL    HW117000   0.238   6.020   5.595  0.4098  1.0210  0.7723
 4051SOL    HW217001   0.169   6.020   5.730 -0.6451  1.6770  0.2496
 4052SOL     OW17002   2.926   5.652   6.498 -0.3184 -0.2726  0.5289
 4052SOL    HW117003   2.881   5.710   6.560  0.0527  1.2387 -0.5358
 4052SOL    HW217004   3.016   5.649   6.530 -0.0168  0.8795 -0.1386
 4053SOL     OW17005   0.782   6.548   5.481 -0.5484 -0.7028  0.0934
 4053SOL    HW117006   0.867   6.581   5.453 -0.5476 -1.5608 -0.9553
 4053SOL    HW217007   0.801   6.469   5.531 -0.6968 -0.4623  0.5433
 4054SOL     OW17008   0.310   8.285   7.173 -0.2696  0.0394 -0.4088
 4054SOL    HW117009   0.404   8.295   7.184 -0.4945  3.2397 -0.4335
 4054SOL    HW217010   0.277   8.267   7.261  0.0979  2.5601  0.3184
 4055SOL     OW17011   2.760   5.953   4.748  0.3779 -0.5028 -0.1940
 4055SOL    HW117012   2.711   5.999   4.816  0.0374  2.1340 -2.0180
 4055SOL    HW217013   2.850   5.954   4.779  0.1462  0.1373  0.5043
 4056SOL     OW17014   0.152   6.917   7.998  0.0527 -0.1319  0.0675
 4056SOL    HW117015   0.121   6.834   8.036 -0.9267  0.1131 -0.1663
 4056SOL    HW217016   0.226   6.941   8.052 -0.4752 -0.4939  0.9819
 4057SOL     OW17017   2.893   8.200   6.182  0.3529  0.1560  0.0022
 4057SOL    HW117018   2.849   8.228   6.102  0.5907  0.3595 -0.0621
 4057SOL    HW217019   2.851   8.250   6.252 -0.0326 -0.2164  0.0393
 4058SOL     OW17020   1.225   5.746   9.574  0.4095  0.3168  0.6043
 4058SOL    HW117021   1.147   5.745   9.519  0.8269 -0.9595 -0.0179
 4058SOL    HW217022   1.208   5.813   9.640 -1.3574 -0.1819  0.7043
 4059SOL     OW17023   8.784   5.124   5.272 -0.2322  0.2695  0.0587
 4059SOL    HW117024   8.718   5.142   5.339 -1.4101  1.8160 -1.4058
 4059SOL    HW217025   8.762   5.036   5.241 -3.3858  1.6069 -2.1162
 4060SOL     OW17026   2.340   6.680   9.209 -0.1198  0.0834 -0.1312
 4060SOL    HW117027   2.257   6.715   9.177 -1.0043 -2.1942 -0.5201
 4060SOL    HW217028   2.399   6.687   9.134 -0.3216  0.5926 -0.2446
 4061SOL     OW17029   0.758   4.842   5.960  0.3409 -1.3836 -0.0011
 4061SOL    HW117030   0.839   4.856   6.011  0.4256 -1.6898 -0.0500
 4061SOL    HW217031   0.789   4.811   5.875  0.3252  1.2483 -1.0520
 4062SOL     OW17032   0.057   6.203   4.964 -0.3692 -0.1559 -0.0157
 4062SOL    HW117033   0.086   6.118   4.933 -1.1235 -0.4563  0.0858
 4062SOL    HW217034   0.062   6.260   4.887  0.5837 -0.1705  0.0300
 4063SOL     OW17035   0.883   5.624   6.580 -0.4880 -0.8920  0.0451
 4063SOL    HW117036   0.882   5.550   6.520 -1.6832 -1.4638  0.7497
 4063SOL    HW217037   0.956   5.607   6.639  0.0789 -0.8185 -0.6258
 4064SOL     OW17038   0.585   5.880   5.876  0.4158  0.3077 -0.2195
 4064SOL    HW117039   0.636   5.880   5.795  1.9902  2.5948  0.6374
 4064SOL    HW217040   0.651   5.881   5.945 -0.8848 -1.0471  1.0959
 4065SOL     OW17041   1.718   5.160   7.847 -0.5868  0.7966  0.0034
 4065SOL    HW117042   1.732   5.148   7.941  1.2368  0.3370 -0.2894
 4065SOL    HW217043   1.738   5.252   7.831  2.9050  0.0989 -0.4506
 4066SOL     OW17044   0.789   5.137   3.359 -0.6231  0.2366 -0.6503
 4066SOL    HW117045   0.715   5.137   3.419 -0.6172 -0.1776 -0.6435
 4066SOL    HW217046   0.756   5.095   3.280 -0.6236  0.7564 -0.9328
 4067SOL     OW17047   9.676   7.682   6.461  0.1179 -0.2864 -0.0397
 4067SOL    HW117048   9.758   7.699   6.507  0.9924 -0.9427 -1.3141
 4067SOL    HW217049   9.648   7.596   6.494 -0.3721  0.1703  0.7922
 4068SOL     OW17050   9.672   6.173   6.343  0.0275  0.3058  0.1321
 4068SOL    HW117051   9.689   6.083   6.372 -1.8937  0.4722  2.0576
 4068SOL    HW217052   9.759   6.212   6.335  0.8428 -1.1790  1.1583
 4069SOL     OW17053   9.112   4.689   5.386 -0.1817  0.3116  0.0467
 4069SOL    HW117054   9.194   4.736   5.406  0.4861  0.9892 -3.5554
 4069SOL    HW217055   9.043   4.747   5.417  0.6329  0.2940  2.0426
 4070SOL     OW17056   8.806   6.566   6.637 -0.0505 -0.8659 -0.8508
 4070SOL    HW117057   8.769   6.493   6.686  3.4213 -0.1042  3.4992
 4070SOL    HW217058   8.887   6.531   6.599 -0.9251 -0.4595 -3.3311
 4071SOL     OW17059   9.617   4.768   3.765  0.5910  0.5845  0.3972
 4071SOL    HW117060   9.662   4.726   3.692  0.7564 -1.2568  1.4975
 4071SOL    HW217061   9.545   4.816   3.725  1.4711  0.7240 -1.0765
 4072SOL     OW17062   9.430   7.411   6.022  0.0950 -0.9246 -0.0655
 4072SOL    HW117063   9.493   7.354   5.977  2.2596 -0.2200  1.9156
 4072SOL    HW217064   9.474   7.496   6.028  0.1360 -1.0693  3.6304
 4073SOL     OW17065   1.542   6.196   6.622 -0.2011 -0.0071  0.0494
 4073SOL    HW117066   1.452   6.220   6.644 -0.3670  0.0457 -0.6723
 4073SOL    HW217067   1.539   6.101   6.611 -0.0992 -0.0445  0.3301
 4074SOL     OW17068   6.606   6.325   5.343  0.4140 -0.1876 -0.4335
 4074SOL    HW117069   6.665   6.252   5.326 -0.7174 -0.8059 -1.9191
 4074SOL    HW217070   6.562   6.302   5.426  0.0592 -1.2217 -0.8954
 4075SOL     OW17071   9.387   4.191   7.752 -0.3162 -0.0777  0.4844
 4075SOL    HW117072   9.435   4.108   7.751 -1.1370 -0.5672  0.5503
 4075SOL    HW217073   9.297   4.166   7.774 -0.4339  0.9112  1.1846
 4076SOL     OW17074   3.442   7.292   7.978  0.2137  0.6250 -0.1998
 4076SOL    HW117075   3.467   7.362   7.918 -1.3252  0.4637 -1.0682
 4076SOL    HW217076   3.347   7.288   7.973  0.1957 -0.8413  0.6153
 4077SOL     OW17077   0.839   6.047   5.860  0.4532 -0.0739  0.1564
 4077SOL    HW117078   0.796   5.997   5.790 -0.9961  2.0396 -0.5639
 4077SOL    HW217079   0.932   6.042   5.839  0.1409 -0.5148 -1.2173
 4078SOL     OW17080   2.004   4.878   5.862 -0.2675  0.4146 -0.0425
 4078SOL    HW117081   2.073   4.945   5.865  0.1836 -0.0658  1.4368
 4078SOL    HW217082   2.051   4.797   5.843 -0.8584  0.5137 -2.1926
 4079SOL     OW17083   9.806   7.539   6.816 -0.7020 -0.6373  0.2208
 4079SOL    HW117084   9.784   7.451   6.786  1.2464 -1.4276  0.9027
 4079SOL    HW217085   9.861   7.575   6.747 -1.1919 -0.0789  0.1130
 4080SOL     OW17086   1.685   4.604   7.722  0.2734 -0.0787 -0.4065
 4080SOL    HW117087   1.651   4.623   7.634 -1.2442 -0.0507  0.1562
 4080SOL    HW217088   1.771   4.565   7.706  0.5575  1.0255 -1.8502
 4081SOL     OW17089   7.143   8.619   7.322 -0.0227  0.3838 -0.5049
 4081SOL    HW117090   7.226   8.647   7.360 -0.2590  0.7443 -0.2485
 4081SOL    HW217091   7.149   8.524   7.317 -0.4045  0.2301  1.4187
 4082SOL     OW17092   2.259   4.919   6.750 -0.1846 -0.0133  0.1501
 4082SOL    HW117093   2.192   4.965   6.699  0.3417  0.0511 -0.5105
 4082SOL    HW217094   2.244   4.827   6.730  0.8459  0.0788 -1.2221
 4083SOL     OW17095   2.846   5.149   9.643  0.3720  0.0532  0.2036
 4083SOL    HW117096   2.931   5.114   9.670 -0.3830 -1.2242  0.9426
 4083SOL    HW217097   2.804   5.078   9.595 -0.3774  0.6138  0.0038
 4084SOL     OW17098   1.826   7.257   5.317  0.4020 -0.5018 -0.7999
 4084SOL    HW117099   1.761   7.261   5.246 -0.6467  1.5971  0.1673
 4084SOL    HW217100   1.790   7.195   5.379 -0.6333  0.4819 -0.3750
 4085SOL     OW17101   0.050   6.868   6.185  0.0776 -0.3411 -0.4235
 4085SOL    HW117102   0.063   6.803   6.254 -1.8433 -0.0792  0.2367
 4085SOL    HW217103  -0.018   6.830   6.129 -0.2091  0.5712 -0.7093
 4086SOL     OW17104   3.108   7.687   4.853 -0.3584 -0.1392 -0.0354
 4086SOL    HW117105   3.166   7.751   4.894 -0.4989  0.7791 -1.2208
 4086SOL    HW217106   3.043   7.739   4.806 -1.6185 -1.1486  0.4929
 4087SOL     OW17107   1.657   5.907   6.875 -0.0548 -0.7515 -0.5050
 4087SOL    HW117108   1.723   5.859   6.925  0.2066 -2.8015 -2.6488
 4087SOL    HW217109   1.629   5.977   6.934  1.8397 -1.6336  1.6039
 4088SOL     OW17110   1.114   6.379   3.871 -0.3755 -0.3359  0.2343
 4088SOL    HW117111   1.197   6.377   3.919  0.3722  0.8411 -0.9458
 4088SOL    HW217112   1.094   6.287   3.854  0.7562 -0.6295  0.4190
 4089SOL     OW17113   0.652   8.253   6.353  0.0048 -0.0727 -0.2542
 4089SOL    HW117114   0.621   8.176   6.306  1.0066 -1.0946  0.7074
 4089SOL    HW217115   0.686   8.311   6.285  0.0820 -0.8821 -0.9165
 4090SOL     OW17116   9.783   7.971   5.549  0.5413 -0.1261 -0.6403
 4090SOL    HW117117   9.872   7.964   5.583  0.4014  1.9700  0.3244
 4090SOL    HW217118   9.776   8.061   5.518 -1.9199  0.5269  1.4709
 4091SOL     OW17119   0.811   7.091   6.560 -0.0230 -0.0668 -0.1635
 4091SOL    HW117120   0.856   7.036   6.496  1.1915  1.0963 -0.3491
 4091SOL    HW217121   0.790   7.172   6.513  2.0930  1.3757  1.1791
 4092SOL     OW17122   8.531   7.392   0.244  0.4682  0.4369  0.4714
 4092SOL    HW117123   8.624   7.384   0.265  0.9233  1.1741 -1.0730
 4092SOL    HW217124   8.510   7.312   0.196  0.8937  1.1553 -1.0041
 4093SOL     OW17125   9.776   4.772   5.374  0.2763  0.2683 -0.6843
 4093SOL    HW117126   9.769   4.825   5.295 -0.2698  2.3681  0.6662
 4093SOL    HW217127   9.696   4.793   5.424  0.7299 -0.7725  0.5534
 4094SOL     OW17128   0.476   7.096   7.851  0.6299  0.0588  0.1566
 4094SOL    HW117129   0.568   7.121   7.862  0.4249  0.8043  0.2215
 4094SOL    HW217130   0.439   7.101   7.939 -0.1104  2.3949 -0.2311
 4095SOL     OW17131   0.600   7.187   3.692  0.0875 -0.1778  0.5148
 4095SOL    HW117132   0.585   7.115   3.630  0.1339 -0.3458  0.6982
 4095SOL    HW217133   0.588   7.266   3.640  5.1085 -0.1499 -1.1409
 4096SOL     OW17134   1.544   7.008   6.694 -0.3746  0.1856  0.1683
 4096SOL    HW117135   1.596   6.930   6.713  0.1126  0.5811  0.4886
 4096SOL    HW217136   1.600   7.060   6.635 -1.2225 -0.2945 -1.1117
 4097SOL     OW17137   4.030   8.034   4.566  0.5366  0.0077 -0.0408
 4097SOL    HW117138   4.020   8.069   4.478  0.0225  0.7049  0.2844
 4097SOL    HW217139   3.974   8.089   4.621  2.2535  0.7973  1.0332
 4098SOL     OW17140   0.720   6.778   6.490  0.0894 -0.0364 -0.0975
 4098SOL    HW117141   0.663   6.849   6.519  0.7094  0.0860  0.8764
 4098SOL    HW217142   0.709   6.710   6.557  0.0705 -0.5546 -0.6195
 4099SOL     OW17143   0.113   6.630   4.791  0.2137  0.1606  0.4522
 4099SOL    HW117144   0.069   6.558   4.745 -0.1247  0.4160  0.3697
 4099SOL    HW217145   0.140   6.690   4.721  1.2747 -0.3066  0.4492
 4100SOL     OW17146   0.372   6.751   8.802  0.3715 -0.0462 -0.3772
 4100SOL    HW117147   0.318   6.766   8.880  0.5855 -0.0648 -0.2250
 4100SOL    HW217148   0.456   6.722   8.837 -0.1770 -2.1730 -0.6492
 4101SOL     OW17149   9.657   6.656   5.523 -0.4617 -0.6322 -0.2450
 4101SOL    HW117150   9.622   6.729   5.471 -1.2632 -1.4714 -0.9287
 4101SOL    HW217151   9.649   6.684   5.614 -0.8129  0.1074 -0.5012
 4102SOL     OW17152   4.776   7.655   5.075  0.2123 -0.4838 -0.0824
 4102SOL    HW117153   4.708   7.700   5.124  0.6416  1.3076 -1.0372
 4102SOL    HW217154   4.736   7.636   4.990  0.8535  0.5976 -0.6568
 4103SOL     OW17155   9.558   7.214   5.868  0.3222 -0.4719 -0.1423
 4103SOL    HW117156   9.485   7.210   5.807  0.3193  1.0589 -0.2758
 4103SOL    HW217157   9.565   7.125   5.903 -1.6115 -0.6576 -0.1085
 4104SOL     OW17158   9.196   7.370   3.027 -0.0397  0.2494  0.7201
 4104SOL    HW117159   9.125   7.382   3.089  0.3195  0.8093  1.0354
 4104SOL    HW217160   9.269   7.337   3.080  0.0920  0.1664  0.4925
 4105SOL     OW17161   0.579   5.030   4.900 -0.3289  0.0669 -0.6937
 4105SOL    HW117162   0.509   5.034   4.834 -0.9187  0.4650 -0.0534
 4105SOL    HW217163   0.542   5.073   4.977  0.6277  0.2914 -0.3436
 4106SOL     OW17164   0.316   7.240   5.954  0.0118 -0.1579  0.1625
 4106SOL    HW117165   0.244   7.290   5.992 -0.0324  0.7549 -1.0737
 4106SOL    HW217166   0.275   7.186   5.886  0.4452  0.2015 -0.3984
 4107SOL     OW17167   1.670   5.539   6.459  0.0060  0.1154 -0.0009
 4107SOL    HW117168   1.703   5.543   6.548  1.1487  0.3387 -0.4222
 4107SOL    HW217169   1.681   5.628   6.425 -0.7262  0.1150 -0.2687
 4108SOL     OW17170   0.219   5.718   3.660 -0.7585 -0.1182 -0.3213
 4108SOL    HW117171   0.256   5.634   3.632  1.2933  0.4394  0.5895
 4108SOL    HW217172   0.288   5.782   3.646 -1.9052  1.2685  0.0264
 4109SOL     OW17173   8.688   8.005   8.113 -0.6090  0.2502 -0.7585
 4109SOL    HW117174   8.760   8.025   8.054  0.1247 -0.0652  0.0087
 4109SOL    HW217175   8.631   7.946   8.063 -0.3959  0.5831 -1.4026
 4110SOL     OW17176   1.976   8.182   7.235  0.0707  0.0756  0.7122
 4110SOL    HW117177   2.021   8.212   7.156 -0.2095 -0.3863  0.3686
 4110SOL    HW217178   2.045   8.171   7.299  0.1381  1.8049  0.9730
 4111SOL     OW17179   1.308   4.856   4.328 -0.0887  0.3238 -0.6526
 4111SOL    HW117180   1.282   4.840   4.419  1.6020 -0.1475 -0.2149
 4111SOL    HW217181   1.371   4.928   4.334  0.2877  0.0622 -1.4128
 4112SOL     OW17182   2.122   5.429   6.659  0.2165 -0.1546 -0.2800
 4112SOL    HW117183   2.058   5.361   6.638  0.2122  0.3074 -1.8858
 4112SOL    HW217184   2.194   5.381   6.701 -0.8971 -0.7552  1.0268
 4113SOL     OW17185   0.127   3.606   4.726 -0.1303  0.4987 -0.1950
 4113SOL    HW117186   0.206   3.566   4.762 -0.2716 -1.7417 -2.1105
 4113SOL    HW217187   0.116   3.687   4.776  2.1616 -0.1578  1.5535
 4114SOL     OW17188   9.606   5.670   4.861 -0.5643  0.1515  0.1554
 4114SOL    HW117189   9.525   5.641   4.820 -2.0390  0.8626  2.3846
 4114SOL    HW217190   9.604   5.765   4.855  1.2554  0.1401 -1.7207
 4115SOL     OW17191   9.417   7.401   6.300  0.8571  0.7939 -0.3445
 4115SOL    HW117192   9.391   7.316   6.265  3.8228 -0.7173  0.7282
 4115SOL    HW217193   9.465   7.443   6.228  0.6764  0.9036 -0.4014
 4116SOL     OW17194   3.351   6.300   7.205  0.5933 -0.0541 -0.1912
 4116SOL    HW117195   3.380   6.226   7.258 -0.3392 -0.2449  0.0695
 4116SOL    HW217196   3.386   6.282   7.118 -0.0885 -1.0883 -0.2605
 4117SOL     OW17197   1.582   7.867   3.538  0.1740 -0.0422  0.1587
 4117SOL    HW117198   1.585   7.962   3.530 -1.1253 -0.0408 -0.6663
 4117SOL    HW217199   1.592   7.835   3.449 -0.5874 -0.6137  0.2655
 4118SOL     OW17200   1.872   5.236   5.240  0.4612 -0.0427  0.0981
 4118SOL    HW117201   1.880   5.255   5.334  0.5015 -0.2993  0.1475
 4118SOL    HW217202   1.822   5.309   5.205 -2.5080 -1.5543  0.8899
 4119SOL     OW17203   9.194   7.211   5.957  0.7659  0.3667 -0.2843
 4119SOL    HW117204   9.256   7.193   5.886  0.8673  1.9722 -0.6280
 4119SOL    HW217205   9.183   7.306   5.956 -0.0591  0.3081  1.1687
 4120SOL     OW17206   1.587   6.573   5.414  0.3282 -0.1601 -0.2844
 4120SOL    HW117207   1.621   6.505   5.355  0.6735  0.7728 -1.1823
 4120SOL    HW217208   1.656   6.583   5.480 -0.4702 -1.8822  0.8769
 4121SOL     OW17209   9.403   7.747   6.522  0.0551 -0.3176 -0.2640
 4121SOL    HW117210   9.392   7.838   6.496  1.2546 -0.1339 -0.2030
 4121SOL    HW217211   9.498   7.732   6.517 -0.1115 -1.5282 -0.1711
 4122SOL     OW17212   1.007   5.449   7.575  0.0180 -0.3525 -0.3685
 4122SOL    HW117213   0.996   5.544   7.577  0.1945 -0.2922 -1.5407
 4122SOL    HW217214   1.013   5.427   7.482  0.3597 -1.4712 -0.1044
 4123SOL     OW17215   2.140   5.672   6.574 -0.3196 -0.0835  0.0534
 4123SOL    HW117216   2.067   5.732   6.584 -0.8024 -0.2893 -1.7969
 4123SOL    HW217217   2.109   5.589   6.610 -1.2638 -0.3377 -1.2871
 4124SOL     OW17218   3.188   4.741   7.427 -0.3005 -0.1213 -0.3988
 4124SOL    HW117219   3.274   4.719   7.463 -1.2896  0.6941  2.7902
 4124SOL    HW217220   3.136   4.662   7.439 -0.6516  0.1607 -0.0566
 4125SOL     OW17221   9.743   6.773   4.115 -0.0784 -0.1968  0.2083
 4125SOL    HW117222   9.715   6.685   4.138 -1.0849  0.0472  0.0010
 4125SOL    HW217223   9.780   6.765   4.028 -2.9478  0.0203 -1.1482
 4126SOL     OW17224   2.077   6.788   6.483  0.1000 -0.4547  0.0632
 4126SOL    HW117225   2.154   6.842   6.467 -0.2478 -0.1401 -0.5986
 4126SOL    HW217226   2.101   6.733   6.557  0.3410  0.8876  1.0247
 4127SOL     OW17227   0.972   6.534   6.659  0.3023 -0.4961 -0.6688
 4127SOL    HW117228   0.989   6.562   6.748  0.6428 -0.3325 -0.7850
 4127SOL    HW217229   0.989   6.439   6.660  2.9259 -0.0991 -1.1732
 4128SOL     OW17230   2.683   6.905   6.124 -0.5511  0.3193  0.3595
 4128SOL    HW117231   2.662   6.907   6.218  0.7131  1.3283  0.6488
 4128SOL    HW217232   2.742   6.980   6.111  0.8395 -0.9276 -0.8614
 4129SOL     OW17233   2.724   6.321   5.305 -0.2388 -0.5140  0.2077
 4129SOL    HW117234   2.655   6.257   5.322  0.0514 -0.0214  4.1552
 4129SOL    HW217235   2.805   6.276   5.328  0.7159 -0.5586 -2.8364
 4130SOL     OW17236   0.248   6.967   7.723  0.1118  0.4336 -0.5784
 4130SOL    HW117237   0.309   7.029   7.763  2.1103 -1.3968 -0.6343
 4130SOL    HW217238   0.223   6.908   7.794  1.1566 -0.8859 -1.2570
 4131SOL     OW17239   8.095   6.492   7.711  0.6190  0.3308  0.3430
 4131SOL    HW117240   8.146   6.441   7.775 -0.3077 -1.8432 -0.5605
 4131SOL    HW217241   8.143   6.483   7.629 -0.3007 -0.3166 -0.1396
 4132SOL     OW17242   0.124   6.020   7.643 -0.3875  0.3752  0.1907
 4132SOL    HW117243   0.172   6.079   7.701 -0.5570 -0.6525  1.4099
 4132SOL    HW217244   0.033   6.046   7.652 -0.3471  0.6378 -0.1305
 4133SOL     OW17245   2.197   5.130   6.175 -0.2890 -0.3648 -0.0187
 4133SOL    HW117246   2.206   5.044   6.134  0.6928 -1.2380  1.8985
 4133SOL    HW217247   2.216   5.192   6.104 -0.8218 -1.7098 -1.3942
 4134SOL     OW17248   2.650   5.952   5.377 -0.4629 -0.0260 -0.5014
 4134SOL    HW117249   2.726   5.956   5.436 -1.4542 -0.4780  0.8696
 4134SOL    HW217250   2.627   6.043   5.361 -0.4381  0.1097  0.1814
 4135SOL     OW17251   2.960   6.153   6.583 -0.5206 -0.1019  0.2521
 4135SOL    HW117252   3.012   6.225   6.617 -3.0149  2.0780 -0.1752
 4135SOL    HW217253   2.938   6.101   6.660 -1.4424  1.5601  1.1670
 4136SOL     OW17254   0.104   6.570   5.510  0.3511  0.1229 -0.1239
 4136SOL    HW117255   0.024   6.609   5.474  0.9113  0.4588 -1.0494
 4136SOL    HW217256   0.120   6.620   5.590  1.0232  1.8296 -1.2545
 4137SOL     OW17257   9.377   7.430   4.968 -0.0358 -0.0253  0.4459
 4137SOL    HW117258   9.335   7.501   5.018  0.5129  0.0286  0.8372
 4137SOL    HW217259   9.387   7.466   4.880  3.0675  1.6255  1.3359
 4138SOL     OW17260   2.378   5.029   6.995 -0.2651  0.4166  0.0178
 4138SOL    HW117261   2.328   5.060   6.920  1.5111  0.8218 -1.0550
 4138SOL    HW217262   2.451   4.980   6.957 -0.9394 -2.0051  1.5809
 4139SOL     OW17263   1.594   5.966   5.955 -0.2536 -0.5331  0.2309
 4139SOL    HW117264   1.602   5.919   5.872  0.3852 -0.7075  0.3864
 4139SOL    HW217265   1.502   5.957   5.979  0.1514 -3.2953  1.1650
 4140SOL     OW17266   0.745   3.794   5.749 -0.2777  0.2787  0.5820
 4140SOL    HW117267   0.770   3.879   5.786  0.3652  0.4511 -0.2186
 4140SOL    HW217268   0.824   3.740   5.758  0.8702  1.1014 -2.8090
 4141SOL     OW17269   7.520   6.381   8.148  0.2677 -0.0024  0.1229
 4141SOL    HW117270   7.609   6.349   8.163  0.1429 -0.5407 -0.2674
 4141SOL    HW217271   7.525   6.430   8.066  0.9645  3.0020  1.8135
 4142SOL     OW17272   1.437   5.530   4.557 -0.4719 -0.3723 -0.2210
 4142SOL    HW117273   1.484   5.495   4.480 -0.1514  0.0320 -0.2174
 4142SOL    HW217274   1.438   5.625   4.543 -0.6520 -0.3171  0.1524
 4143SOL     OW17275   1.916   4.180   6.528  0.3322 -0.5213  0.2962
 4143SOL    HW117276   1.974   4.255   6.540  0.7008 -0.8125  0.3665
 4143SOL    HW217277   1.831   4.218   6.506  0.0766 -0.0119  2.0075
 4144SOL     OW17278   0.913   5.035   7.038 -0.1431 -0.2230 -0.0889
 4144SOL    HW117279   0.831   4.993   7.011 -0.1596  0.2057 -0.7203
 4144SOL    HW217280   0.977   4.963   7.038 -0.5702 -0.6200  0.6966
 4145SOL     OW17281   1.591   7.140   6.956 -0.0780  0.0463  0.2041
 4145SOL    HW117282   1.563   7.115   6.868  1.4621  1.2048 -0.6682
 4145SOL    HW217283   1.548   7.224   6.972  0.2353  0.2036  0.2317
 4146SOL     OW17284   1.916   8.029   6.124 -0.0919 -0.3839 -0.0521
 4146SOL    HW117285   1.909   8.089   6.198 -2.2023 -0.9935  0.3044
 4146SOL    HW217286   1.999   7.983   6.139 -0.2495 -0.1787  1.6976
 4147SOL     OW17287   8.780   6.724   7.199  0.1262  0.3088  0.1127
 4147SOL    HW117288   8.781   6.712   7.104  2.3003 -1.3929  0.2607
 4147SOL    HW217289   8.712   6.664   7.230 -0.5022  0.7753 -0.3449
 4148SOL     OW17290   1.916   3.263   8.591 -0.4371  0.1319 -0.2577
 4148SOL    HW117291   1.880   3.188   8.637  2.2643 -0.5014  0.9909
 4148SOL    HW217292   1.855   3.278   8.518 -1.9478 -2.1678  0.4410
 4149SOL     OW17293   9.142   6.238   7.960 -0.5203  0.3108 -0.6729
 4149SOL    HW117294   9.134   6.172   8.029  0.6060  2.1531  1.3350
 4149SOL    HW217295   9.194   6.196   7.892 -1.5459 -1.5208 -0.4008
 4150SOL     OW17296   8.732   7.006   7.153 -0.3847  0.0904  0.3367
 4150SOL    HW117297   8.754   6.913   7.162  1.1726  0.4817  0.8739
 4150SOL    HW217298   8.715   7.036   7.243 -1.6508  0.1722  0.0909
 4151SOL     OW17299   2.801   7.186   7.318  0.6127  0.0880 -0.6760
 4151SOL    HW117300   2.785   7.140   7.400 -2.9267  0.0321 -1.2481
 4151SOL    HW217301   2.829   7.117   7.257  2.0543 -0.0687  0.1236
 4152SOL     OW17302   2.211   5.643   6.056 -0.8306 -0.3219  0.3312
 4152SOL    HW117303   2.207   5.708   5.985 -0.3823 -1.2616 -0.5932
 4152SOL    HW217304   2.190   5.692   6.135  3.0745  1.8413  0.2687
 4153SOL     OW17305   9.498   6.402   9.302 -0.1435 -0.0011  0.4642
 4153SOL    HW117306   9.410   6.364   9.307  0.1543 -0.8354 -0.3368
 4153SOL    HW217307   9.486   6.482   9.252 -0.2046 -1.0066 -1.2143
 4154SOL     OW17308   2.107   6.052   8.938  0.0662 -0.3038 -0.0660
 4154SOL    HW117309   2.166   6.010   9.000  0.8436 -0.4213 -0.8512
 4154SOL    HW217310   2.162   6.115   8.892 -0.3098 -0.7118 -1.1119
 4155SOL     OW17311   1.472   7.341   7.823  1.4069 -0.1291 -0.3366
 4155SOL    HW117312   1.503   7.430   7.843  0.0192  0.2157  0.4333
 4155SOL    HW217313   1.436   7.347   7.735 -0.0010  0.4820  0.2412
 4156SOL     OW17314   1.122   8.531   9.236  0.8928 -0.6572  0.1701
 4156SOL    HW117315   1.141   8.488   9.153 -0.5775 -1.2572  0.1188
 4156SOL    HW217316   1.194   8.504   9.294  2.2059  0.1753 -1.0030
 4157SOL     OW17317   9.519   6.526   8.013  0.2543  0.6831 -0.1688
 4157SOL    HW117318   9.451   6.582   7.975 -0.7786 -0.7480 -0.5308
 4157SOL    HW217319   9.470   6.455   8.056  1.5085 -0.7957 -1.0808
 4158SOL     OW17320   1.480   6.524   1.171 -0.0750 -0.0670  0.7034
 4158SOL    HW117321   1.397   6.482   1.196  0.3759 -0.9459  0.7744
 4158SOL    HW217322   1.474   6.534   1.076 -0.2982 -0.0463  0.7188
 4159SOL     OW17323   1.194   8.209   0.662 -0.3559  0.1082 -0.7004
 4159SOL    HW117324   1.278   8.225   0.619 -0.1853  0.5780 -0.2047
 4159SOL    HW217325   1.212   8.221   0.755 -0.5989 -1.4575 -0.4345
 4160SOL     OW17326   9.522   8.773   6.597 -0.3323 -0.4494 -0.0360
 4160SOL    HW117327   9.598   8.717   6.610  1.0121  0.9737 -1.3330
 4160SOL    HW217328   9.536   8.847   6.656  0.5116  0.9290 -1.8653
 4161SOL     OW17329   1.176   5.786   0.809 -0.1198  0.5458  0.4664
 4161SOL    HW117330   1.152   5.795   0.717 -1.2710  0.3246  0.7377
 4161SOL    HW217331   1.154   5.871   0.849 -0.8271  0.2198  0.7905
 4162SOL     OW17332   8.591   8.757   1.138  0.0759  0.3017  0.0975
 4162SOL    HW117333   8.586   8.669   1.101  1.9144  0.5598 -0.9084
 4162SOL    HW217334   8.517   8.804   1.099 -0.2159 -0.4640 -0.2891
 4163SOL     OW17335   8.912   7.834   7.684  0.7176 -0.0633 -0.0820
 4163SOL    HW117336   8.848   7.775   7.724 -1.5718  2.6100  0.4998
 4163SOL    HW217337   8.882   7.844   7.594 -0.0180  1.5126  0.3013
 4164SOL     OW17338   1.066   6.666   8.086 -0.1796 -0.3211 -0.4705
 4164SOL    HW117339   1.074   6.743   8.030 -0.8003  0.4065  0.4121
 4164SOL    HW217340   1.146   6.616   8.069 -0.6967 -0.5304 -2.5672
 4165SOL     OW17341   1.477   6.226   7.342 -0.0758  0.0360 -0.3564
 4165SOL    HW117342   1.439   6.177   7.416 -0.1242 -1.8981 -1.6011
 4165SOL    HW217343   1.521   6.301   7.383  1.1025 -1.7254  1.7719
 4166SOL     OW17344   1.868   6.997   7.549 -0.3790 -0.2496 -0.0367
 4166SOL    HW117345   1.881   7.007   7.643 -0.8727 -2.4777  0.3157
 4166SOL    HW217346   1.954   7.012   7.511 -0.5145  2.4958  0.5260
 4167SOL     OW17347   0.992   4.768   8.526 -0.3610 -0.3130 -0.3312
 4167SOL    HW117348   0.953   4.796   8.609  1.3890  1.0489  0.0859
 4167SOL    HW217349   1.058   4.703   8.551 -0.0499 -0.1342 -0.6742
 4168SOL     OW17350   2.093   6.790   8.252  0.1275 -0.3115  0.4279
 4168SOL    HW117351   2.096   6.832   8.337  0.8756 -0.6535  0.5781
 4168SOL    HW217352   2.102   6.862   8.189 -0.9668  0.0052  0.6012
 4169SOL     OW17353   9.525   7.086   6.949  0.0786  0.2941  0.6444
 4169SOL    HW117354   9.524   7.112   6.857  1.3890  0.3993  0.6497
 4169SOL    HW217355   9.465   7.011   6.953 -2.0541  1.8772  0.2319
 4170SOL     OW17356   3.355   6.268   8.462 -0.3458  0.1548  0.6433
 4170SOL    HW117357   3.380   6.187   8.506  1.1799 -0.1735 -0.6903
 4170SOL    HW217358   3.419   6.333   8.493  0.2137  0.1219 -0.3725
 4171SOL     OW17359   3.673   6.262   6.841 -0.1452 -0.2209  0.3558
 4171SOL    HW117360   3.708   6.287   6.755 -1.4132  1.7069  0.3106
 4171SOL    HW217361   3.593   6.213   6.820 -0.4486  0.2405  0.4010
 4172SOL     OW17362   0.124   5.705   0.015 -0.2798 -0.0611  0.1584
 4172SOL    HW117363   0.196   5.745  -0.032  0.3328  1.4293  2.1968
 4172SOL    HW217364   0.156   5.697   0.105 -2.5854  0.5503  1.1098
 4173SOL     OW17365   8.992   5.168   7.312  0.7614 -0.3426 -0.2334
 4173SOL    HW117366   8.937   5.239   7.279 -1.5713 -1.0540  1.7838
 4173SOL    HW217367   9.068   5.212   7.349  0.2846  0.9349 -0.7001
 4174SOL     OW17368   3.702   7.324   8.784  0.3793 -0.7807 -0.1971
 4174SOL    HW117369   3.773   7.354   8.727 -0.0261 -0.7235 -0.6768
 4174SOL    HW217370   3.713   7.229   8.787 -0.1694 -0.8887 -1.1594
 4175SOL     OW17371   0.951   5.684   6.069 -0.0995  0.1570 -0.3851
 4175SOL    HW117372   0.981   5.679   5.978 -0.2584 -1.2035 -0.3776
 4175SOL    HW217373   1.019   5.642   6.120  0.1178  1.1631  0.1783
 4176SOL     OW17374   1.212   7.446   9.039  0.6453 -0.1384 -0.0236
 4176SOL    HW117375   1.222   7.463   8.946  0.0398 -1.3881 -0.3416
 4176SOL    HW217376   1.127   7.483   9.061 -0.2545 -1.7889 -0.5109
 4177SOL     OW17377   0.724   7.352   9.245  0.0801 -0.0306 -0.3864
 4177SOL    HW117378   0.738   7.320   9.334  1.4213  0.3765 -0.4185
 4177SOL    HW217379   0.811   7.347   9.204 -0.6426 -0.8896 -1.9140
 4178SOL     OW17380   1.636   6.747   0.361 -0.0723  0.0104  0.4149
 4178SOL    HW117381   1.565   6.720   0.302 -0.4175  1.1699  0.2806
 4178SOL    HW217382   1.616   6.838   0.382  2.0480  0.7671 -0.6069
 4179SOL     OW17383   0.762   5.838   6.999  0.0105 -0.6252 -0.2634
 4179SOL    HW117384   0.683   5.853   7.050 -1.0870  0.6609 -2.2416
 4179SOL    HW217385   0.745   5.756   6.952 -0.3391 -0.1403 -0.9964
 4180SOL     OW17386   1.362   6.896   7.521  0.0967  0.2400  0.7703
 4180SOL    HW117387   1.395   6.864   7.437  0.9550  0.2060  1.1177
 4180SOL    HW217388   1.271   6.919   7.503  0.0063 -0.6229  0.0538
 4181SOL     OW17389   0.108   5.227   6.749  0.3440  0.2770 -0.5278
 4181SOL    HW117390   0.040   5.206   6.684 -0.3406 -1.6615  0.7257
 4181SOL    HW217391   0.060   5.240   6.830  1.3715  0.4005  0.0771
 4182SOL     OW17392   9.705   6.778   7.255  0.4973  0.4201 -0.4580
 4182SOL    HW117393   9.654   6.772   7.336  1.3448 -0.3796  0.0318
 4182SOL    HW217394   9.688   6.695   7.210  0.6140  0.5531 -0.7498
 4183SOL     OW17395   1.722   6.449   4.928  0.1095 -0.2255  0.2253
 4183SOL    HW117396   1.805   6.408   4.904  2.0926  2.8899  1.1536
 4183SOL    HW217397   1.663   6.376   4.945  2.6320 -2.5871 -0.4732
 4184SOL     OW17398   1.700   4.956   6.806  0.0796  0.2331  0.0388
 4184SOL    HW117399   1.610   4.927   6.791  0.0596  1.0041 -1.5055
 4184SOL    HW217400   1.691   5.027   6.870 -0.4418  0.4713 -0.2928
 4185SOL     OW17401   2.814   6.376   7.306  0.4117  0.0419  0.4740
 4185SOL    HW117402   2.858   6.376   7.391  2.1209  1.1900 -0.3589
 4185SOL    HW217403   2.832   6.463   7.269  0.1125 -0.5916 -1.2728
 4186SOL     OW17404   3.188   4.948   6.125  0.1601 -1.0115 -0.7498
 4186SOL    HW117405   3.176   4.999   6.045  2.3052  0.1780 -0.3827
 4186SOL    HW217406   3.168   5.008   6.196 -1.9263 -2.1208 -0.3289
 4187SOL     OW17407   2.462   5.858   8.055  0.6714  0.5051  0.2360
 4187SOL    HW117408   2.401   5.798   8.097 -0.9628  1.9649  0.0463
 4187SOL    HW217409   2.522   5.801   8.006  0.0374 -1.0074  1.1544
 4188SOL     OW17410   0.887   5.776   8.726 -0.3740 -0.1297  0.0207
 4188SOL    HW117411   0.890   5.843   8.658 -1.0824 -1.1222 -1.0237
 4188SOL    HW217412   0.844   5.818   8.800  1.0029  1.1724  0.1293
 4189SOL     OW17413   3.024   6.208   8.095 -0.2803 -0.2978  0.2436
 4189SOL    HW117414   2.971   6.283   8.121 -0.2014 -0.1361 -0.0582
 4189SOL    HW217415   3.106   6.218   8.144 -0.5546 -0.5925  0.7739
 4190SOL     OW17416   2.079   5.883   8.584 -0.0647 -0.2714 -0.0260
 4190SOL    HW117417   2.018   5.881   8.657 -0.0593  0.8886  0.0287
 4190SOL    HW217418   2.158   5.839   8.617 -0.1067  0.1368  0.6338
 4191SOL     OW17419   4.093   7.083   7.313  0.6035 -0.0420 -0.0581
 4191SOL    HW117420   4.143   7.004   7.333  1.3021  0.5794  0.7271
 4191SOL    HW217421   4.057   7.111   7.398 -2.5449 -1.4005 -0.8224
 4192SOL     OW17422   8.095   4.626   8.017  0.4272 -0.0400 -0.4775
 4192SOL    HW117423   8.003   4.647   8.036 -0.0601 -2.6770  0.5596
 4192SOL    HW217424   8.142   4.706   8.036 -1.6394  1.3881 -1.0036
 4193SOL     OW17425   9.371   8.172   7.215 -0.5927 -0.1906 -0.1400
 4193SOL    HW117426   9.362   8.086   7.175 -0.8209 -0.7113  0.9987
 4193SOL    HW217427   9.396   8.155   7.305  1.7400  1.0012 -0.4838
 4194SOL     OW17428   0.785   6.731   6.843  0.3789 -0.0244 -0.3256
 4194SOL    HW117429   0.864   6.732   6.897  0.6567 -0.9072 -0.6839
 4194SOL    HW217430   0.736   6.808   6.870 -0.0551 -1.0122  2.0084
 4195SOL     OW17431   2.063   7.350   9.806  0.4506 -0.1379 -0.5139
 4195SOL    HW117432   2.030   7.308   9.727  1.1843 -0.1990 -0.7944
 4195SOL    HW217433   1.987   7.395   9.843 -0.2369 -1.3205 -0.4479
 4196SOL     OW17434   9.721   6.765   7.611 -0.7223 -0.2043 -0.0751
 4196SOL    HW117435   9.635   6.797   7.583 -0.0590  1.8999  0.0949
 4196SOL    HW217436   9.754   6.834   7.669  0.2370 -1.9282  1.5430
 4197SOL     OW17437   1.869   5.123   0.093 -0.3856  0.3636  0.0738
 4197SOL    HW117438   1.809   5.055   0.121 -0.6083  0.3304 -0.4693
 4197SOL    HW217439   1.878   5.110  -0.002 -0.8511  1.4237 -0.1268
 4198SOL     OW17440   0.989   5.581   6.957  0.5105  0.5086  0.1151
 4198SOL    HW117441   0.993   5.487   6.969 -0.4660 -0.0030 -2.7694
 4198SOL    HW217442   1.050   5.599   6.886  1.0955  2.1670  0.9755
 4199SOL     OW17443   9.230   7.409   9.008  0.1693 -0.4461 -0.4040
 4199SOL    HW117444   9.188   7.329   8.977 -0.5539  0.4130 -1.7098
 4199SOL    HW217445   9.188   7.428   9.092 -0.0948 -1.0774 -0.3905
 4200SOL     OW17446   1.652   7.229   6.449 -0.4966 -0.5225  0.0290
 4200SOL    HW117447   1.679   7.298   6.388 -2.3035 -0.2916 -0.5764
 4200SOL    HW217448   1.633   7.154   6.393 -1.2892 -0.5958  0.3795
 4201SOL     OW17449   0.780   6.645   4.344  0.0810  0.9079 -0.3862
 4201SOL    HW117450   0.846   6.664   4.411  0.1178  1.2445 -0.5196
 4201SOL    HW217451   0.818   6.677   4.262  0.7715 -1.0094 -0.8842
 4202SOL     OW17452   3.205   5.314   7.726 -0.2583 -0.0382 -0.0423
 4202SOL    HW117453   3.291   5.355   7.730  0.1383 -0.9367  2.6409
 4202SOL    HW217454   3.221   5.228   7.686  0.0571 -0.0863  0.1851
 4203SOL     OW17455   8.408   6.127   8.124 -0.2757  0.1212  0.3516
 4203SOL    HW117456   8.432   6.203   8.070  0.1259 -0.1816  0.0982
 4203SOL    HW217457   8.315   6.139   8.142  0.3244  2.1476  2.6723
 4204SOL     OW17458   9.726   7.416   7.244  0.4314 -0.3569 -0.0047
 4204SOL    HW117459   9.689   7.370   7.319  1.6467 -0.8484  0.3182
 4204SOL    HW217460   9.751   7.346   7.183 -0.2184  0.0168 -0.7221
 4205SOL     OW17461   9.660   5.428   9.670 -0.5242 -0.1675 -0.5225
 4205SOL    HW117462   9.578   5.477   9.659 -0.5489  0.2361  1.1056
 4205SOL    HW217463   9.642   5.369   9.743  0.6103 -0.1010 -0.1729
 4206SOL     OW17464   0.650   5.777   9.238 -0.3290  0.0152 -0.5174
 4206SOL    HW117465   0.670   5.770   9.332  1.2802 -0.0888 -0.8523
 4206SOL    HW217466   0.663   5.869   9.217  0.7720 -0.2313 -0.9464
 4207SOL     OW17467   0.604   5.164   7.009  0.5166  0.5377 -0.7451
 4207SOL    HW117468   0.589   5.197   6.920  1.5592  0.5645 -0.9251
 4207SOL    HW217469   0.651   5.081   6.995 -2.6548 -1.4969 -0.3499
 4208SOL     OW17470   1.067   6.812   9.685  0.0469  0.2766 -0.1455
 4208SOL    HW117471   1.143   6.755   9.674  0.9138  1.6807 -1.9109
 4208SOL    HW217472   1.088   6.865   9.762 -0.8063 -1.6974  1.5757
 4209SOL     OW17473   1.694   7.096   7.772 -0.3172 -0.1764  0.1870
 4209SOL    HW117474   1.756   7.166   7.752 -1.3522  1.2000  1.6105
 4209SOL    HW217475   1.611   7.140   7.787 -0.7245 -1.5305  2.4648
 4210SOL     OW17476   0.801   7.759   7.977  0.1979 -0.0731  0.0379
 4210SOL    HW117477   0.749   7.718   7.908  1.2702 -1.4032 -0.0200
 4210SOL    HW217478   0.879   7.791   7.933  0.4040  0.0281  0.4736
 4211SOL     OW17479   0.717   5.979   0.298  0.0496  0.6901 -0.1903
 4211SOL    HW117480   0.633   5.979   0.251 -0.9266 -1.1958  1.4162
 4211SOL    HW217481   0.694   6.005   0.387  0.9189 -1.1280  0.6013
 4212SOL     OW17482   0.724   8.012   8.999 -0.3249 -0.7826 -0.5506
 4212SOL    HW117483   0.759   7.964   9.074  0.5411  4.5843  3.0117
 4212SOL    HW217484   0.638   8.043   9.029  0.4661  2.3298 -1.1938
 4213SOL     OW17485   0.658   6.622   8.821 -0.5541  0.3890  0.4509
 4213SOL    HW117486   0.703   6.621   8.737  0.3763 -0.3340  0.9451
 4213SOL    HW217487   0.728   6.621   8.886 -1.2764 -0.0391  1.2385
 4214SOL     OW17488   9.415   6.446   8.890  0.8055  0.2670 -0.9267
 4214SOL    HW117489   9.436   6.457   8.983 -2.4516 -1.9613  0.2591
 4214SOL    HW217490   9.376   6.530   8.864  0.3217  0.4077  0.1895
 4215SOL     OW17491   1.426   7.096   7.923  0.4126  0.0327 -0.6173
 4215SOL    HW117492   1.433   7.188   7.900  2.0865 -0.0609 -0.5550
 4215SOL    HW217493   1.414   7.095   8.018  0.3375  0.1787 -0.6250
 4216SOL     OW17494   1.782   5.387   9.297 -0.3311 -0.0514 -0.1732
 4216SOL    HW117495   1.732   5.464   9.271 -1.0460  0.3919  2.2540
 4216SOL    HW217496   1.859   5.388   9.240 -1.4367  1.1391 -1.7358
 4217SOL     OW17497   0.655   6.369   8.952  0.0173  0.4236  0.0081
 4217SOL    HW117498   0.605   6.310   9.007  1.3491 -1.1972 -0.4269
 4217SOL    HW217499   0.590   6.431   8.917 -1.0135  0.8539  2.4775
 4218SOL     OW17500   2.452   6.473   6.714  0.1190  0.5163 -0.0729
 4218SOL    HW117501   2.422   6.394   6.668 -1.1856  0.2792  1.0932
 4218SOL    HW217502   2.547   6.473   6.702 -0.1729  1.0476 -3.5865
 4219SOL     OW17503   0.109   7.661   6.596  0.6658 -0.1766  0.5181
 4219SOL    HW117504   0.137   7.732   6.654  0.7349  0.6621 -0.5002
 4219SOL    HW217505   0.190   7.629   6.557  0.7897 -1.7370  1.9328
 4220SOL     OW17506   2.724   8.019   8.210 -0.3864  0.2362 -0.3132
 4220SOL    HW117507   2.781   8.092   8.186  0.2973  0.0864  0.8279
 4220SOL    HW217508   2.684   8.045   8.293  0.4448 -0.9894  0.5038
 4221SOL     OW17509   1.141   3.902   8.423  0.3697  0.0757  0.5138
 4221SOL    HW117510   1.156   3.884   8.330  1.7301 -1.7784  1.0326
 4221SOL    HW217511   1.191   3.982   8.440 -0.1600  0.6293 -0.3803
 4222SOL     OW17512   0.815   6.471   7.737  0.2826  0.4794 -0.2687
 4222SOL    HW117513   0.825   6.378   7.755  0.4149  0.6213  0.4192
 4222SOL    HW217514   0.849   6.483   7.648  1.5908  0.1153  0.1674
 4223SOL     OW17515   1.972   5.769   7.964  0.2619 -0.5860  0.0791
 4223SOL    HW117516   1.985   5.857   7.999 -1.5468 -0.9398  1.7568
 4223SOL    HW217517   1.906   5.780   7.895  1.6671 -0.3438 -1.2891
 4224SOL     OW17518   1.589   6.546   9.787 -0.1709  0.0168  0.6540
 4224SOL    HW117519   1.538   6.471   9.760 -2.0260  1.2728  0.4983
 4224SOL    HW217520   1.612   6.591   9.706  0.6939 -0.1989  0.7618
 4225SOL     OW17521   2.089   7.431   7.216 -0.2737  0.0301 -0.1038
 4225SOL    HW117522   2.099   7.469   7.128  3.6756  1.5043  0.7678
 4225SOL    HW217523   2.048   7.501   7.268 -0.5367  0.0079 -0.2796
 4226SOL     OW17524   1.591   8.051   7.656 -0.3057  0.2004  0.3954
 4226SOL    HW117525   1.617   8.140   7.631  0.2386  0.1929  0.9041
 4226SOL    HW217526   1.673   8.008   7.681 -0.1190 -1.2960 -2.3270
 4227SOL     OW17527   1.866   5.750   6.999  0.1743  0.8675  0.0579
 4227SOL    HW117528   1.835   5.726   6.911  2.6059 -1.6984 -0.2577
 4227SOL    HW217529   1.911   5.671   7.030  0.9514  2.3153  2.8958
 4228SOL     OW17530   3.527   7.080   5.297 -0.7654 -0.8356  0.1551
 4228SOL    HW117531   3.542   7.083   5.203  0.7244  0.0247  0.3905
 4228SOL    HW217532   3.432   7.072   5.306 -1.0174  0.0729 -1.4175
 4229SOL     OW17533   0.836   7.200   7.537  1.0766 -0.2443 -0.3807
 4229SOL    HW117534   0.863   7.139   7.606  1.8488  0.2994 -0.1886
 4229SOL    HW217535   0.910   7.260   7.527 -0.5677  2.2288  1.1615
 4230SOL     OW17536   1.960   5.379   8.412 -0.3745 -0.8550  0.5366
 4230SOL    HW117537   1.936   5.463   8.450 -1.1120 -1.9419  2.6649
 4230SOL    HW217538   1.882   5.324   8.424 -0.5979 -1.3658 -2.5000
 4231SOL     OW17539   9.204   5.840   8.342 -0.3325 -0.1564  0.2029
 4231SOL    HW117540   9.265   5.795   8.283 -1.5811  2.4247 -3.4703
 4231SOL    HW217541   9.256   5.909   8.382  0.1349 -0.8385  0.7977
 4232SOL     OW17542   2.369   6.384   5.881 -0.1405 -0.5181 -0.1612
 4232SOL    HW117543   2.359   6.346   5.794 -2.3048  0.6478 -0.4854
 4232SOL    HW217544   2.335   6.317   5.941 -0.1107 -0.6959 -0.3431
 4233SOL     OW17545   2.637   8.682   8.995 -0.2444 -0.1710  0.2500
 4233SOL    HW117546   2.633   8.755   8.934  0.4305 -1.2038 -1.0818
 4233SOL    HW217547   2.609   8.719   9.079  1.4636  1.9601 -0.0275
 4234SOL     OW17548   8.137   5.702   9.781  0.3784 -0.0867  0.2907
 4234SOL    HW117549   8.101   5.639   9.719  2.1002  0.1295 -1.0030
 4234SOL    HW217550   8.076   5.775   9.779 -0.2252 -0.5918 -0.2460
 4235SOL     OW17551   0.548   4.714   8.562  0.4518  0.3980 -0.0925
 4235SOL    HW117552   0.508   4.673   8.639  0.2974  0.5127 -0.1114
 4235SOL    HW217553   0.562   4.805   8.588 -1.9635  1.1172 -1.0522
 4236SOL     OW17554   0.778   8.513   9.815  0.5747 -0.4026 -0.2170
 4236SOL    HW117555   0.763   8.435   9.762  1.1777 -0.3782 -0.4318
 4236SOL    HW217556   0.728   8.582   9.771  1.2903 -0.3192 -0.9260
 4237SOL     OW17557   2.402   8.146   5.466  0.5738  0.4821  0.1110
 4237SOL    HW117558   2.458   8.076   5.432  0.9352  0.7065  0.2335
 4237SOL    HW217559   2.333   8.155   5.401 -0.3195 -0.9789  0.8022
 4238SOL     OW17560   2.537   4.254   1.307 -0.6037  0.3073 -1.1585
 4238SOL    HW117561   2.560   4.302   1.386 -0.5869 -1.6205  0.0810
 4238SOL    HW217562   2.567   4.309   1.235 -1.2638  2.4584  0.1183
 4239SOL     OW17563   8.955   6.293   8.410  0.7984  0.1110  0.2480
 4239SOL    HW117564   8.935   6.328   8.497  1.8408  1.4727 -0.0350
 4239SOL    HW217565   8.978   6.201   8.426 -1.0577 -0.2567  1.1217
 4240SOL     OW17566   0.384   6.011   6.283  0.2563  0.9126 -0.2230
 4240SOL    HW117567   0.397   6.021   6.189  3.2309  0.9697  0.0952
 4240SOL    HW217568   0.403   5.918   6.299  3.1629  1.5809  0.6765
 4241SOL     OW17569   0.930   6.458   8.243 -0.0314  0.3764  0.0943
 4241SOL    HW117570   0.989   6.533   8.249  1.3939 -0.7749  1.2727
 4241SOL    HW217571   0.983   6.389   8.201 -0.8400 -0.3965  0.3071
 4242SOL     OW17572   2.290   8.213   8.613 -0.4502 -0.1039 -0.6677
 4242SOL    HW117573   2.337   8.204   8.696 -0.6535 -0.3776 -0.5817
 4242SOL    HW217574   2.292   8.307   8.595 -0.2401 -0.0645 -0.4501
 4243SOL     OW17575   9.105   5.614   7.987 -0.2667  0.3613 -0.6490
 4243SOL    HW117576   9.148   5.573   7.912 -0.6857 -0.9040 -0.2201
 4243SOL    HW217577   9.083   5.702   7.956 -0.5219 -0.1680 -2.0542
 4244SOL     OW17578   0.302   5.628   0.942 -0.1998 -0.1913  0.0323
 4244SOL    HW117579   0.220   5.668   0.970 -0.3512 -1.2761  1.2807
 4244SOL    HW217580   0.275   5.561   0.878 -0.2748 -0.4110  0.2916
 4245SOL     OW17581   1.994   4.556   8.216  0.1046  0.2765 -0.4807
 4245SOL    HW117582   1.991   4.471   8.172 -0.3406  0.1037 -0.1258
 4245SOL    HW217583   1.905   4.570   8.247  0.3124  0.6045 -0.0266
 4246SOL     OW17584   2.544   2.719   1.023 -0.1940  0.6136 -0.0414
 4246SOL    HW117585   2.508   2.631   1.014 -1.6323  0.9415  1.7369
 4246SOL    HW217586   2.567   2.745   0.934 -0.4685 -1.2558 -0.7032
 4247SOL     OW17587   1.150   7.853   9.487 -0.3958  0.1526 -0.5674
 4247SOL    HW117588   1.159   7.781   9.425  0.6949 -1.0774  0.9227
 4247SOL    HW217589   1.056   7.872   9.489 -0.8554 -1.9011 -0.3178
 4248SOL     OW17590   9.354   7.558   0.007  0.1086  0.6537 -0.3084
 4248SOL    HW117591   9.339   7.473   0.048  1.5857 -0.2181 -1.4796
 4248SOL    HW217592   9.267   7.592  -0.012 -0.5063 -0.3609  0.6446
 4249SOL     OW17593   3.610   8.071   0.088 -0.4189 -0.2163 -0.1494
 4249SOL    HW117594   3.518   8.046   0.096 -0.4038 -0.4953 -0.8475
 4249SOL    HW217595   3.612   8.134   0.016  0.0466 -0.7851 -0.6382
 4250SOL     OW17596   8.679   6.555   7.692  0.1440 -0.0530 -0.5205
 4250SOL    HW117597   8.761   6.505   7.688  0.7437  0.7459  0.8462
 4250SOL    HW217598   8.652   6.564   7.601  0.6816 -1.7454 -0.8937
 4251SOL     OW17599   8.604   7.095   8.237 -0.4927  0.3361  0.3718
 4251SOL    HW117600   8.572   7.165   8.294 -0.3009  0.7939 -0.0656
 4251SOL    HW217601   8.531   7.035   8.229 -1.5183  1.7067 -1.1516
 4252SOL     OW17602   2.318   8.162   0.358  0.2906  0.1258 -0.1192
 4252SOL    HW117603   2.286   8.074   0.340 -1.4429  0.8671 -0.8866
 4252SOL    HW217604   2.265   8.192   0.432  1.8299  0.0445  1.0595
 4253SOL     OW17605   0.233   3.534   6.206 -0.5724 -0.2185  0.0053
 4253SOL    HW117606   0.190   3.607   6.164  1.0978  0.6783 -0.2530
 4253SOL    HW217607   0.232   3.555   6.299  0.4404  0.4776 -0.1213
 4254SOL     OW17608   2.318   5.557   7.169 -0.4624 -0.3472 -0.0089
 4254SOL    HW117609   2.400   5.529   7.210 -0.4405 -1.0231 -0.5013
 4254SOL    HW217610   2.315   5.651   7.185 -1.0610 -0.7544  2.5966
 4255SOL     OW17611   8.707   5.540   7.882  0.6123  0.0931  0.0314
 4255SOL    HW117612   8.717   5.598   7.957 -0.7453 -0.0405  0.3487
 4255SOL    HW217613   8.743   5.590   7.808 -3.5545  2.9699 -0.4147
 4256SOL     OW17614   0.627   5.437   7.675 -0.2163 -0.1157 -0.5893
 4256SOL    HW117615   0.690   5.380   7.718  0.1728 -1.5074 -2.8527
 4256SOL    HW217616   0.557   5.448   7.739  0.3775 -1.9796  0.4551
 4257SOL     OW17617   2.398   7.820   1.393 -0.6225  0.5781  0.1190
 4257SOL    HW117618   2.435   7.883   1.332 -0.4077  0.5632  0.2335
 4257SOL    HW217619   2.366   7.749   1.338 -2.6613  1.6588 -0.1986
 4258SOL     OW17620   9.557   3.931   6.566 -0.1164  0.1316  0.4955
 4258SOL    HW117621   9.467   3.925   6.599 -0.5528 -0.7295 -0.7651
 4258SOL    HW217622   9.610   3.887   6.632 -0.9444 -1.4697  0.1417
 4259SOL     OW17623   1.340   4.038   6.274 -0.2618  0.4782 -0.1516
 4259SOL    HW117624   1.338   4.077   6.187  0.2613  0.6123 -0.1059
 4259SOL    HW217625   1.353   4.112   6.333 -1.3196  0.4782  0.1066
 4260SOL     OW17626   1.908   4.611   8.901  0.0679 -0.0764 -0.0514
 4260SOL    HW117627   1.996   4.619   8.865 -1.3569  2.7723 -3.5821
 4260SOL    HW217628   1.882   4.521   8.883  1.9632 -0.7986  0.5475
 4261SOL     OW17629   2.682   7.287   9.636 -0.1942  0.3801 -0.3936
 4261SOL    HW117630   2.653   7.280   9.545 -2.9123  1.0475  0.3163
 4261SOL    HW217631   2.642   7.368   9.668 -1.2040 -0.9420  1.9926
 4262SOL     OW17632   6.457   7.587   9.373  0.1468  0.5518 -0.4374
 4262SOL    HW117633   6.371   7.563   9.338  0.8803  1.6638 -3.3586
 4262SOL    HW217634   6.454   7.683   9.379  0.4354  0.4737  1.7794
 4263SOL     OW17635   9.149   4.926   8.083 -0.0905  0.0402  0.6714
 4263SOL    HW117636   9.219   4.912   8.019 -0.5283 -1.4578  0.4725
 4263SOL    HW217637   9.176   4.876   8.160 -1.7213 -2.1257 -0.0480
 4264SOL     OW17638   2.926   4.980   6.012  0.5135 -0.3460 -0.3388
 4264SOL    HW117639   2.881   4.906   5.970 -0.9082  1.3366 -1.9952
 4264SOL    HW217640   2.951   5.036   5.939  2.9772  0.0911  0.7716
 4265SOL     OW17641   9.000   6.824   8.530  0.3287  0.0049 -0.1636
 4265SOL    HW117642   9.034   6.873   8.455  1.1504 -0.6603 -0.2406
 4265SOL    HW217643   8.962   6.891   8.586  1.8103  0.8112 -0.0656
 4266SOL     OW17644   3.198   5.311   1.299  0.1273 -0.7614  0.0840
 4266SOL    HW117645   3.151   5.287   1.379  2.6696 -0.2065  1.8635
 4266SOL    HW217646   3.195   5.406   1.298  1.1624 -0.7217  0.2226
 4267SOL     OW17647   2.202   5.260   8.730 -0.5697 -0.3404  0.7040
 4267SOL    HW117648   2.201   5.286   8.638  1.0606 -1.7642  0.2288
 4267SOL    HW217649   2.162   5.173   8.731  0.3488 -0.7750  1.1479
 4268SOL     OW17650   2.824   2.667   8.547 -0.1403 -0.3481 -0.5414
 4268SOL    HW117651   2.734   2.696   8.535 -0.0013 -0.1051 -0.9838
 4268SOL    HW217652   2.816   2.574   8.568 -0.3865 -0.8900 -2.7965
 4269SOL     OW17653   9.531   6.488   7.374  0.2959  0.9181  0.9512
 4269SOL    HW117654   9.576   6.404   7.375 -1.5983 -0.1742 -0.3065
 4269SOL    HW217655   9.554   6.527   7.289 -0.5666  0.6593  0.5922
 4270SOL     OW17656   9.287   7.949   7.068  0.1533 -0.0266 -0.8275
 4270SOL    HW117657   9.360   7.902   7.108  0.4986  1.5035  0.4353
 4270SOL    HW217658   9.288   7.921   6.977  1.6493 -0.8471 -0.5953
 4271SOL     OW17659   6.040   8.569   7.375  0.0564 -0.4736  0.0226
 4271SOL    HW117660   6.026   8.520   7.455  0.5101  0.1575  0.5010
 4271SOL    HW217661   6.016   8.659   7.398  1.8243  0.0497 -0.0283
 4272SOL     OW17662   0.697   5.947   9.736  0.3957  0.4586 -0.4764
 4272SOL    HW117663   0.624   5.962   9.797 -0.8276 -1.8866 -1.2129
 4272SOL    HW217664   0.714   6.032   9.696 -1.7888  1.1376 -0.0694
 4273SOL     OW17665   9.494   6.638   9.120 -0.4957  0.3434 -0.2421
 4273SOL    HW117666   9.584   6.647   9.091 -0.6113 -1.4893 -1.3208
 4273SOL    HW217667   9.483   6.707   9.186  2.1387 -0.3308  1.0351
 4274SOL     OW17668   9.741   5.734   9.197 -0.1763 -0.0336  0.4098
 4274SOL    HW117669   9.700   5.678   9.263 -0.7640  0.1054  0.1730
 4274SOL    HW217670   9.687   5.722   9.119  1.2858 -1.2429 -0.4825
 4275SOL     OW17671   8.734   5.068   9.632 -0.2326  0.2706  0.2456
 4275SOL    HW117672   8.705   4.980   9.660  0.0323  0.2165  0.3515
 4275SOL    HW217673   8.827   5.058   9.615 -0.3934  0.3048 -0.6763
 4276SOL     OW17674   1.299   6.342   6.694  0.1645  0.1281 -0.3088
 4276SOL    HW117675   1.233   6.274   6.709 -0.1372  0.6459  0.8872
 4276SOL    HW217676   1.269   6.389   6.618 -1.6824  1.2782  1.0603
 4277SOL     OW17677   2.353   4.897   0.253 -0.5339  0.5738 -0.7977
 4277SOL    HW117678   2.321   4.807   0.252  0.3746  0.2399 -1.2223
 4277SOL    HW217679   2.297   4.942   0.317 -0.6019 -0.4378 -0.1189
 4278SOL     OW17680   9.427   7.130   7.943 -0.3117 -0.0464 -0.2151
 4278SOL    HW117681   9.448   7.046   7.983 -0.1113 -0.6113 -1.4867
 4278SOL    HW217682   9.336   7.147   7.968 -0.6925 -1.1430 -0.8217
 4279SOL     OW17683   0.646   6.521   9.561  0.7088  0.1156  0.1983
 4279SOL    HW117684   0.643   6.586   9.632  0.1461 -2.7621  3.0317
 4279SOL    HW217685   0.560   6.528   9.520  0.2864  0.4908  1.1110
 4280SOL     OW17686   3.023   8.189   5.562 -0.0599  0.2535 -0.3613
 4280SOL    HW117687   3.000   8.107   5.604  0.7266 -0.4932 -1.3307
 4280SOL    HW217688   2.944   8.243   5.569 -0.9515 -0.9753 -0.6337
 4281SOL     OW17689   0.395   7.741   7.933 -0.6996 -0.2243  0.4587
 4281SOL    HW117690   0.352   7.769   8.014  0.8796 -0.1946  1.3257
 4281SOL    HW217691   0.385   7.646   7.932 -0.0179 -0.3086  1.1205
 4282SOL     OW17692   2.122   6.144   0.261  0.3244  0.6983 -0.4192
 4282SOL    HW117693   2.055   6.082   0.290  0.8180  1.1094  1.8009
 4282SOL    HW217694   2.199   6.122   0.314  0.5338  3.1259  0.3880
 4283SOL     OW17695   2.054   7.883   9.782  0.4359 -0.0693  0.0375
 4283SOL    HW117696   2.119   7.953   9.781  2.5684 -1.9277  0.6686
 4283SOL    HW217697   2.080   7.826   9.710 -1.9084  0.2466 -1.1673
 4284SOL     OW17698   9.832   6.819   6.685  0.6243 -0.2520 -0.3783
 4284SOL    HW117699   9.777   6.813   6.763  0.8375  1.9154  0.0109
 4284SOL    HW217700   9.771   6.814   6.611  0.3004 -1.1339 -0.0674
 4285SOL     OW17701   0.282   5.183   9.458  0.1221  0.7014 -0.1281
 4285SOL    HW117702   0.259   5.113   9.397 -0.8341  1.3021 -0.4745
 4285SOL    HW217703   0.357   5.226   9.419  0.6356 -0.0371  0.0206
 4286SOL     OW17704   1.384   6.629   9.258  0.3962  0.0314  0.3215
 4286SOL    HW117705   1.414   6.660   9.173 -1.7752 -1.9537 -1.2999
 4286SOL    HW217706   1.455   6.572   9.290  0.4249 -0.7868 -1.1347
 4287SOL     OW17707   2.843   5.001   6.775  0.0535  0.2821  0.3957
 4287SOL    HW117708   2.819   4.950   6.852 -0.4932 -2.2475 -1.3132
 4287SOL    HW217709   2.838   4.938   6.703 -0.3754  2.7358 -1.8522
 4288SOL     OW17710   8.992   7.937   8.792  0.4162  0.4366 -0.0214
 4288SOL    HW117711   8.896   7.929   8.786  0.4353  0.9762 -1.7799
 4288SOL    HW217712   9.011   7.926   8.885 -1.3857  0.6022  0.4178
 4289SOL     OW17713   7.729   7.368   9.560  0.7766 -0.4597 -0.0777
 4289SOL    HW117714   7.774   7.409   9.486  0.7044 -0.5430 -0.1685
 4289SOL    HW217715   7.658   7.429   9.581  0.2203 -0.8816 -0.6821
 4290SOL     OW17716   1.428   0.054   0.793 -0.6311 -0.0141 -0.1694
 4290SOL    HW117717   1.498   0.047   0.729 -1.4163 -0.4547 -1.0067
 4290SOL    HW217718   1.470   0.041   0.878 -0.0182 -2.2927 -0.7795
 4291SOL     OW17719   9.194   7.173   7.716  0.4731  0.4733  0.1556
 4291SOL    HW117720   9.153   7.241   7.769 -2.0078  1.4741 -2.7504
 4291SOL    HW217721   9.227   7.219   7.639  3.8477 -0.9193  0.5883
 4292SOL     OW17722   1.690   6.591   9.372 -0.0222  0.7805 -0.2503
 4292SOL    HW117723   1.770   6.642   9.372 -0.1882  1.0728 -1.5445
 4292SOL    HW217724   1.698   6.533   9.297  0.3141 -1.3927  1.3534
 4293SOL     OW17725   2.148   7.020   1.216  0.6607 -0.0724  0.5603
 4293SOL    HW117726   2.181   7.105   1.185  2.0095  0.4068  3.0099
 4293SOL    HW217727   2.063   7.011   1.175  0.5590  2.4044  0.0611
 4294SOL     OW17728   0.049   6.033   7.158 -0.0928 -0.0363  0.5117
 4294SOL    HW117729   0.098   6.019   7.239  0.8890 -0.2916 -0.1065
 4294SOL    HW217730  -0.043   6.028   7.184  0.2111 -0.4012  1.5590
 4295SOL     OW17731   1.360   4.887   8.315 -0.7133 -0.2296  0.6183
 4295SOL    HW117732   1.361   4.843   8.400 -0.6265  1.1297  1.3473
 4295SOL    HW217733   1.272   4.924   8.308 -0.7051 -0.2935  0.1327
 4296SOL     OW17734   1.804   4.006   8.870  0.5346  0.3894  0.2692
 4296SOL    HW117735   1.871   4.071   8.890  1.2602 -0.2866  0.0852
 4296SOL    HW217736   1.838   3.959   8.794  0.7442 -1.2027  1.2969
 4297SOL     OW17737   1.269   5.587   8.135  0.4871  0.2291 -0.1782
 4297SOL    HW117738   1.231   5.513   8.181 -0.4631  1.2872  0.8181
 4297SOL    HW217739   1.363   5.575   8.142  0.3686  0.2608  1.9440
 4298SOL     OW17740   3.020   7.635   8.104  0.2242  0.1551  0.1599
 4298SOL    HW117741   3.012   7.712   8.161  1.8323  1.3665 -1.1616
 4298SOL    HW217742   3.054   7.669   8.022 -0.4987 -1.7852 -1.0185
 4299SOL     OW17743   1.292   8.973   6.118  0.2366 -0.1811  0.3802
 4299SOL    HW117744   1.331   8.899   6.165  1.6859  1.0700  1.2604
 4299SOL    HW217745   1.207   8.985   6.158  0.0728 -1.2160  0.3759
 4300SOL     OW17746   9.419   5.065   7.560  0.1986 -0.3073 -0.0707
 4300SOL    HW117747   9.363   5.021   7.623  0.6662  1.7084  1.8963
 4300SOL    HW217748   9.434   5.152   7.598  0.9562  0.8235 -2.7278
 4301SOL     OW17749   8.171   6.231   9.220 -0.1815 -0.1393 -0.1898
 4301SOL    HW117750   8.199   6.267   9.304  1.7059 -0.1027 -0.7881
 4301SOL    HW217751   8.241   6.255   9.159 -2.6356  2.0697 -2.3898
 4302SOL     OW17752   0.323   5.642   0.665 -0.4151 -0.2267  0.4135
 4302SOL    HW117753   0.359   5.727   0.641 -0.3620 -0.4759 -0.4109
 4302SOL    HW217754   0.308   5.648   0.759  0.3733  0.3983  0.5043
 4303SOL     OW17755   9.769   6.173   8.482 -0.3835 -0.3134  0.2542
 4303SOL    HW117756   9.849   6.169   8.535  0.3025  0.6771 -0.6804
 4303SOL    HW217757   9.763   6.264   8.454 -3.7179  0.5696  3.1024
 4304SOL     OW17758   9.518   6.809   9.387 -0.4523  0.2097  0.3324
 4304SOL    HW117759   9.608   6.780   9.374 -0.8788 -0.2132 -2.0231
 4304SOL    HW217760   9.491   6.767   9.469  1.4567  0.3585  1.0896
 4305SOL     OW17761   2.440   7.068   5.966 -0.0754  0.5132  0.0544
 4305SOL    HW117762   2.436   7.088   6.059 -1.1879 -1.1680  0.3970
 4305SOL    HW217763   2.521   7.110   5.936  1.3939 -0.6394  2.2056
 4306SOL     OW17764   0.083   5.074   7.392 -0.5014  0.2190 -1.0695
 4306SOL    HW117765  -0.006   5.079   7.429 -0.7138  0.7940 -1.6384
 4306SOL    HW217766   0.134   5.029   7.460 -1.2783 -0.3614 -0.8398
 4307SOL     OW17767   1.980   6.360   0.097 -0.0738 -0.0330 -0.2947
 4307SOL    HW117768   2.016   6.316   0.174 -1.1507 -2.1863 -0.9421
 4307SOL    HW217769   1.888   6.377   0.119 -0.9624 -2.4941 -1.7366
 4308SOL     OW17770   1.940   5.735   0.573 -0.3188 -0.2033 -0.0987
 4308SOL    HW117771   2.023   5.688   0.577 -0.3907 -0.4807 -1.4711
 4308SOL    HW217772   1.874   5.666   0.573 -0.5422  0.0028  0.5905
 4309SOL     OW17773   0.919   5.929   8.055 -0.0492 -0.0266 -0.2870
 4309SOL    HW117774   0.863   5.914   7.979  0.4181 -0.5244 -0.5417
 4309SOL    HW217775   0.860   5.931   8.129 -0.4629 -0.0045 -0.6132
 4310SOL     OW17776   1.238   8.482   0.402 -0.1835  0.3285  0.0705
 4310SOL    HW117777   1.317   8.493   0.348  0.0916 -0.1904  0.3582
 4310SOL    HW217778   1.189   8.413   0.357 -1.8934  2.5517 -1.7249
 4311SOL     OW17779   2.553   7.196   7.166  0.3921 -0.6217 -0.2122
 4311SOL    HW117780   2.629   7.212   7.222  1.8564  0.7142 -2.4472
 4311SOL    HW217781   2.483   7.247   7.206  0.9635 -0.9469  1.2574
 4312SOL     OW17782   0.381   7.224   0.186  0.5174  0.2459 -0.1626
 4312SOL    HW117783   0.393   7.274   0.106 -2.9315  0.3511 -0.7768
 4312SOL    HW217784   0.369   7.133   0.157 -1.0746  0.3301  0.1209
 4313SOL     OW17785   2.072   6.509   0.363  0.4486 -0.5192 -0.0741
 4313SOL    HW117786   2.049   6.597   0.332 -1.9327 -0.5474  1.3781
 4313SOL    HW217787   2.128   6.474   0.294  1.4931  2.1259 -0.6967
 4314SOL     OW17788   3.451   5.170   6.582 -0.3813 -0.2501 -0.1468
 4314SOL    HW117789   3.401   5.155   6.663  1.5099  2.2204  1.6439
 4314SOL    HW217790   3.405   5.241   6.538 -1.4275 -1.6166 -1.3384
 4315SOL     OW17791   9.842   5.240   9.220  0.2059 -0.2152 -0.6837
 4315SOL    HW117792   9.897   5.317   9.214  2.0717 -1.1099  2.4593
 4315SOL    HW217793   9.900   5.171   9.251 -2.3014 -1.6585  1.2794
 4316SOL     OW17794   0.438   5.567   0.078 -0.3584  0.4616 -0.6421
 4316SOL    HW117795   0.525   5.589   0.111 -0.2633  0.2943 -0.7795
 4316SOL    HW217796   0.397   5.652   0.061 -0.0443  0.5419 -1.0319
 4317SOL     OW17797   1.299   6.344   0.848  0.1594 -0.2138 -0.2187
 4317SOL    HW117798   1.233   6.307   0.907  1.0892 -0.4195  0.7203
 4317SOL    HW217799   1.281   6.303   0.764  0.4726 -1.9921  0.5425
 4318SOL     OW17800   1.132   5.367   5.828  0.1877  0.2975 -0.2121
 4318SOL    HW117801   1.186   5.299   5.789  0.7254  1.0151 -0.7274
 4318SOL    HW217802   1.047   5.358   5.785 -0.1569 -0.8751  0.6502
 4319SOL     OW17803   0.968   7.592   9.071  0.2126  0.0415 -0.1062
 4319SOL    HW117804   0.880   7.608   9.105  0.0557  1.6512 -1.1708
 4319SOL    HW217805   0.962   7.613   8.978  2.2867  2.6266  0.2233
 4320SOL     OW17806   1.289   5.254   6.875 -0.5111  0.7068 -0.2993
 4320SOL    HW117807   1.287   5.168   6.918 -3.9653 -0.1977 -1.9136
 4320SOL    HW217808   1.281   5.317   6.946  1.3680 -0.2457  0.8657
 4321SOL     OW17809   9.450   5.632   7.960 -0.0385 -0.2202 -0.1492
 4321SOL    HW117810   9.528   5.586   7.930  0.1561 -0.9304  1.3298
 4321SOL    HW217811   9.383   5.563   7.966  0.5171 -0.6239  3.0372
 4322SOL     OW17812   3.653   5.539   8.227 -0.0336  0.9088 -0.4337
 4322SOL    HW117813   3.637   5.484   8.151  0.1155  1.4918 -0.8895
 4322SOL    HW217814   3.637   5.482   8.302 -1.5603  0.7085 -0.8793
 4323SOL     OW17815   9.103   6.658   7.843  0.5231  0.1313  0.2737
 4323SOL    HW117816   9.069   6.722   7.781  0.9071  1.4349  1.3675
 4323SOL    HW217817   9.116   6.579   7.791 -1.2279  0.5186 -0.8310
 4324SOL     OW17818   1.288   8.281   9.819  0.1460  0.8461 -0.0237
 4324SOL    HW117819   1.216   8.268   9.880  0.7665 -1.4632  0.3049
 4324SOL    HW217820   1.348   8.341   9.864 -0.8460  1.6043  0.3084
 4325SOL     OW17821   8.974   6.553   7.322  0.1998  0.2003  0.4475
 4325SOL    HW117822   8.925   6.629   7.292 -0.1888 -0.7515 -1.5064
 4325SOL    HW217823   9.062   6.565   7.287  0.1680 -0.1776  0.2287
 4326SOL     OW17824   0.660   6.503   7.421  0.3053 -0.6047  0.4993
 4326SOL    HW117825   0.604   6.580   7.410  1.2410  0.0201 -0.0434
 4326SOL    HW217826   0.749   6.536   7.409  0.7954 -1.5943  1.2616
 4327SOL     OW17827   2.414   6.575   7.969  0.2681  0.5150 -0.2141
 4327SOL    HW117828   2.491   6.599   7.917  0.4779 -0.7879 -0.5250
 4327SOL    HW217829   2.345   6.564   7.904  0.3672 -0.4601 -0.1679
 4328SOL     OW17830   9.450   5.749   7.694  0.1648  0.2834 -0.1290
 4328SOL    HW117831   9.492   5.798   7.623  1.4287 -0.5214  0.0309
 4328SOL    HW217832   9.489   5.786   7.773 -0.2355  0.2591  0.0790
 4329SOL     OW17833   0.935   5.847   7.215 -0.2002 -0.5663 -0.3090
 4329SOL    HW117834   0.959   5.929   7.260  0.5944 -1.5973  1.2240
 4329SOL    HW217835   0.885   5.876   7.139  0.2128  1.3637  0.0870
 4330SOL     OW17836   1.136   5.972   7.621 -0.0099 -0.1370  0.3091
 4330SOL    HW117837   1.136   6.026   7.700  0.5439  0.5107 -0.1204
 4330SOL    HW217838   1.221   5.928   7.622 -0.0393 -0.1997  0.1248
 4331SOL     OW17839   1.101   4.503   7.598 -0.0366  0.3477  0.1721
 4331SOL    HW117840   1.118   4.414   7.567  1.3469 -0.2037  2.2765
 4331SOL    HW217841   1.010   4.520   7.573 -0.7381 -2.1286  0.7171
 4332SOL     OW17842   0.109   7.923   7.709 -0.0501  0.2113 -0.5142
 4332SOL    HW117843   0.082   7.860   7.775 -3.0384  1.8899  0.0533
 4332SOL    HW217844   0.194   7.956   7.740  0.0245 -1.1931  0.8518
 4333SOL     OW17845   3.268   6.413   1.164 -0.2421 -0.3968  0.3682
 4333SOL    HW117846   3.208   6.485   1.187 -1.2181 -1.5244  1.5073
 4333SOL    HW217847   3.313   6.392   1.245  1.9171  0.5281 -0.5007
 4334SOL     OW17848   1.132   3.150   7.577  0.3752 -0.1944  0.6615
 4334SOL    HW117849   1.067   3.205   7.622 -0.1487  0.0537 -0.3510
 4334SOL    HW217850   1.081   3.076   7.543  0.8242 -0.5682  0.8027
 4335SOL     OW17851   8.748   7.877   7.396  0.0352 -0.1516 -0.6671
 4335SOL    HW117852   8.827   7.930   7.404  1.1903 -1.8957  0.3323
 4335SOL    HW217853   8.677   7.940   7.382  1.2675  1.6493  0.7158
 4336SOL     OW17854   0.908   7.467   7.222 -0.1285  0.8618  0.6672
 4336SOL    HW117855   0.897   7.449   7.129 -2.1039 -0.9981  1.1808
 4336SOL    HW217856   0.830   7.515   7.247 -0.3881 -0.0316  1.6469
 4337SOL     OW17857   0.556   6.573   0.264 -0.2838 -0.4814  0.1726
 4337SOL    HW117858   0.590   6.600   0.349 -0.2426  0.1311 -0.0342
 4337SOL    HW217859   0.626   6.520   0.226  0.8227  1.3795 -0.5673
 4338SOL     OW17860   1.745   7.010   0.271  0.5534 -0.1011 -0.0687
 4338SOL    HW117861   1.756   6.984   0.179  0.5254  2.1311 -0.7679
 4338SOL    HW217862   1.661   7.055   0.273  0.1358 -0.8911  1.2861
 4339SOL     OW17863   1.440   7.622   1.356 -0.2947 -0.4503  0.6941
 4339SOL    HW117864   1.520   7.651   1.312 -2.1197  0.2640 -2.3866
 4339SOL    HW217865   1.434   7.679   1.433  0.7963  1.3587 -0.4665
 4340SOL     OW17866   0.317   7.886   9.283 -0.4506  0.3752 -0.5319
 4340SOL    HW117867   0.353   7.970   9.256 -1.0866 -0.2557 -3.6546
 4340SOL    HW217868   0.223   7.899   9.281 -0.5456 -0.3294 -0.7757
 4341SOL     OW17869   0.436   7.019   7.007  0.2137 -0.0337  0.1255
 4341SOL    HW117870   0.427   6.955   6.937  0.3571 -0.5159  0.5456
 4341SOL    HW217871   0.420   7.103   6.965  2.1861 -0.1274 -0.9043
 4342SOL     OW17872   3.766   6.381   0.902 -0.3544  0.1182 -0.5106
 4342SOL    HW117873   3.676   6.355   0.921 -0.2668  0.1240 -0.0845
 4342SOL    HW217874   3.818   6.346   0.975 -0.1181  0.7634 -0.3592
 4343SOL     OW17875   1.245   5.024   9.416  0.4248 -0.0547 -0.4676
 4343SOL    HW117876   1.168   5.062   9.458  0.3471 -0.2489 -0.4344
 4343SOL    HW217877   1.214   4.943   9.376  0.0594  1.0566 -2.5601
 4344SOL     OW17878   1.404   5.996   9.533  0.4262 -0.7057 -0.1739
 4344SOL    HW117879   1.370   6.084   9.549 -1.0827 -1.5987  2.1933
 4344SOL    HW217880   1.396   5.984   9.439 -0.6451  1.1908 -0.3827
 4345SOL     OW17881   2.599   3.951   9.534 -0.0810  0.1771 -0.1200
 4345SOL    HW117882   2.642   3.870   9.562 -0.2819  0.4423  0.9980
 4345SOL    HW217883   2.636   4.019   9.592 -0.1740  0.8315 -0.8087
 4346SOL     OW17884   2.456   7.922   8.029 -0.1895 -0.2648  0.1919
 4346SOL    HW117885   2.446   7.935   8.123 -0.3015  0.3985  0.0907
 4346SOL    HW217886   2.551   7.920   8.016 -0.0261 -3.8979  0.7781
 4347SOL     OW17887   9.187   8.122   8.737  0.1657  0.2563  0.6805
 4347SOL    HW117888   9.254   8.068   8.779 -0.8501 -0.5458  1.3392
 4347SOL    HW217889   9.119   8.060   8.712 -0.6404  1.1312  0.6563
 4348SOL     OW17890   0.965   2.703   7.109 -0.3468 -0.2356  0.0950
 4348SOL    HW117891   0.902   2.686   7.179 -1.9342 -1.0671 -1.4450
 4348SOL    HW217892   0.966   2.798   7.100 -1.2079 -0.1899  0.3429
 4349SOL     OW17893   2.310   8.924   9.590 -0.8367 -0.3659  0.8870
 4349SOL    HW117894   2.330   8.856   9.654  2.5569 -0.8581 -0.4388
 4349SOL    HW217895   2.353   8.893   9.510 -1.4017  2.1288 -0.4672
 4350SOL     OW17896   0.654   6.735   9.804  0.5666 -0.0736  0.1497
 4350SOL    HW117897   0.576   6.685   9.829  0.1355  1.0806  1.2635
 4350SOL    HW217898   0.647   6.816   9.855  1.5444  0.8613 -1.1329
 4351SOL     OW17899   1.259   7.003   2.145  0.1751 -0.2639 -0.5125
 4351SOL    HW117900   1.315   6.972   2.074  0.1238 -0.6300 -0.3935
 4351SOL    HW217901   1.173   6.967   2.126  0.0058  0.1978 -0.6287
 4352SOL     OW17902   1.052   7.613   0.735  0.3695  0.5039 -0.2376
 4352SOL    HW117903   0.992   7.643   0.667  0.8878 -0.6470 -1.2415
 4352SOL    HW217904   1.007   7.539   0.776  0.0743  1.1695  0.6697
 4353SOL     OW17905   0.434   6.582   9.304  0.4934  0.2179 -0.3033
 4353SOL    HW117906   0.429   6.653   9.368  1.2086  1.0024 -1.1035
 4353SOL    HW217907   0.342   6.563   9.282  0.2518  0.0855  0.7795
 4354SOL     OW17908   1.303   6.691   9.703 -0.3344 -0.3157  0.2437
 4354SOL    HW117909   1.365   6.711   9.633 -0.5217 -2.0509 -0.4647
 4354SOL    HW217910   1.355   6.692   9.783  0.4736 -1.0109 -0.2550
 4355SOL     OW17911   0.317   6.660   8.228 -0.1031  0.3896  0.4287
 4355SOL    HW117912   0.372   6.629   8.155  0.0567  1.1786  0.2111
 4355SOL    HW217913   0.370   6.728   8.270 -0.7871  0.9394  0.4080
 4356SOL     OW17914   2.714   7.711   8.574 -0.4297 -0.2055  0.0703
 4356SOL    HW117915   2.751   7.789   8.616 -1.0181 -0.2172  0.6348
 4356SOL    HW217916   2.772   7.693   8.500  0.5048 -0.0330  0.7315
 4357SOL     OW17917   2.314   4.719   7.575  0.0236 -0.1050 -0.0758
 4357SOL    HW117918   2.220   4.734   7.584 -0.0906 -0.5920 -0.4212
 4357SOL    HW217919   2.344   4.787   7.516  0.0132  0.4680  0.5632
 4358SOL     OW17920   1.334   4.792   9.624 -0.0758 -0.9232  0.5171
 4358SOL    HW117921   1.241   4.769   9.628 -0.5106  0.2904 -1.5053
 4358SOL    HW217922   1.337   4.884   9.650  0.2081 -0.2839 -1.5929
 4359SOL     OW17923   0.507   8.695   8.500  0.0528 -0.0511  0.0496
 4359SOL    HW117924   0.594   8.682   8.462 -0.2534 -1.3537 -0.2538
 4359SOL    HW217925   0.446   8.679   8.428 -0.4580  0.5247  0.3422
 4360SOL     OW17926   2.277   6.674   6.646 -0.5151 -0.6381  1.0265
 4360SOL    HW117927   2.310   6.764   6.644 -1.7953 -0.1359 -1.5105
 4360SOL    HW217928   2.354   6.621   6.667  0.7260  0.8786  0.4863
 4361SOL     OW17929   2.568   5.327   0.683  0.3819  0.0535  0.4669
 4361SOL    HW117930   2.562   5.344   0.589  1.3801  1.0822  0.5695
 4361SOL    HW217931   2.624   5.249   0.690  2.1958  1.2745  0.2597
 4362SOL     OW17932   0.351   5.320   7.026 -0.4672  0.0896  0.5066
 4362SOL    HW117933   0.388   5.284   7.106  2.0492 -1.3408 -1.1651
 4362SOL    HW217934   0.412   5.389   6.999 -0.6390 -0.2123 -0.7432
 4363SOL     OW17935   0.320   4.532   0.813  0.1551  0.6343 -0.3426
 4363SOL    HW117936   0.255   4.470   0.781 -1.5311  2.1037  0.0733
 4363SOL    HW217937   0.347   4.582   0.736  0.7944  0.0523 -0.5075
 4364SOL     OW17938   0.641   5.739   0.524  0.4885 -0.0225 -0.1158
 4364SOL    HW117939   0.649   5.834   0.516 -1.0362 -0.0202 -2.2557
 4364SOL    HW217940   0.570   5.715   0.465  2.0975 -2.7226 -1.1462
 4365SOL     OW17941   8.707   4.932   0.055 -0.0684  0.3445 -0.6824
 4365SOL    HW117942   8.657   4.994   0.108  0.3529  0.2851 -0.2084
 4365SOL    HW217943   8.792   4.975   0.043 -0.6588  1.0625 -2.6194
 4366SOL     OW17944   8.954   4.503   9.754  0.2414  0.1458 -0.2521
 4366SOL    HW117945   9.038   4.543   9.775  0.7097 -0.7280 -0.3928
 4366SOL    HW217946   8.972   4.409   9.752 -1.0619 -0.1860  1.1999
 4367SOL     OW17947   1.270   7.672   9.736 -0.0463  0.0432  0.0336
 4367SOL    HW117948   1.216   7.635   9.806 -1.2691  1.0855 -0.3226
 4367SOL    HW217949   1.210   7.727   9.686  1.1472  0.4953 -0.9547
 4368SOL     OW17950   0.288   6.790   9.375  0.1091  0.2811  0.2770
 4368SOL    HW117951   0.253   6.774   9.288  3.2600  0.4003 -1.1692
 4368SOL    HW217952   0.271   6.883   9.392 -2.4380 -0.2220  0.8377
 4369SOL     OW17953   3.266   5.105   0.085 -0.5909 -0.2386 -0.3012
 4369SOL    HW117954   3.181   5.113   0.128 -1.2640 -0.1999 -1.5970
 4369SOL    HW217955   3.247   5.117  -0.008  1.1638  2.3741 -0.4289
 4370SOL     OW17956   1.253   6.135   9.153  0.0297  0.0508 -0.6356
 4370SOL    HW117957   1.285   6.187   9.080 -0.3183 -1.1823 -1.6909
 4370SOL    HW217958   1.332   6.096   9.191  0.2874  1.2888  0.1403
 4371SOL     OW17959   2.102   5.075   0.254  0.2727  0.7640 -0.3591
 4371SOL    HW117960   2.127   5.155   0.301 -1.5582  0.6460  0.8963
 4371SOL    HW217961   2.045   5.106   0.183 -0.9131  0.5759  0.4772
 4372SOL     OW17962   9.495   7.504   9.386 -0.3439 -0.7745  0.2318
 4372SOL    HW117963   9.516   7.487   9.477  1.8755 -1.2471 -0.3225
 4372SOL    HW217964   9.526   7.426   9.339  2.5664  1.2184 -1.3976
 4373SOL     OW17965   1.469   6.007   9.224  0.1826 -0.0336 -0.6006
 4373SOL    HW117966   1.469   5.917   9.254 -0.5187 -0.5427 -2.0196
 4373SOL    HW217967   1.554   6.042   9.251 -0.0781 -0.6780  1.1699
 4374SOL     OW17968   0.662   6.003   1.246  0.2671 -0.2572 -0.3362
 4374SOL    HW117969   0.618   5.927   1.208 -2.3124  0.9371  0.0030
 4374SOL    HW217970   0.668   5.983   1.340 -1.0012  0.1526 -0.1418
 4375SOL     OW17971   0.489   9.440   7.648  0.0585 -0.0308  0.0437
 4375SOL    HW117972   0.436   9.410   7.575 -1.8110 -1.2280  1.7834
 4375SOL    HW217973   0.428   9.487   7.705  0.9317 -1.0140  1.8816
 4376SOL     OW17974   1.445   6.280   9.475 -0.0809  0.0179  0.2447
 4376SOL    HW117975   1.472   6.295   9.385 -0.3126 -1.3174 -0.0621
 4376SOL    HW217976   1.350   6.296   9.475 -0.3535 -1.5032 -0.1148
 4377SOL     OW17977   9.029   5.600   9.241  0.4724 -0.0339  0.1691
 4377SOL    HW117978   9.091   5.669   9.265  0.5571 -0.2565  0.6006
 4377SOL    HW217979   9.000   5.563   9.324  0.4673 -0.5538 -0.0563
 4378SOL     OW17980   1.472   5.329   9.618 -0.1988 -0.1423  0.2800
 4378SOL    HW117981   1.567   5.334   9.614 -0.0567 -1.4388  1.3502
 4378SOL    HW217982   1.450   5.250   9.568 -0.5743 -0.6489  1.2145
 4379SOL     OW17983   0.081   6.929   1.812 -0.3863  0.6178  0.4270
 4379SOL    HW117984   0.074   6.845   1.767  0.6072  0.0286  1.3334
 4379SOL    HW217985   0.152   6.975   1.766 -0.3402  0.6025  0.4827
 4380SOL     OW17986   1.087   5.192   8.486 -0.0838 -0.1406 -0.0503
 4380SOL    HW117987   1.167   5.227   8.447  0.4043 -1.4416 -0.2382
 4380SOL    HW217988   1.052   5.133   8.420 -1.2338  0.4275  0.0189
 4381SOL     OW17989   1.842   6.656   0.174  1.1749 -0.2592 -0.1050
 4381SOL    HW117990   1.764   6.651   0.229  1.4957 -1.6509  0.2805
 4381SOL    HW217991   1.854   6.749   0.156 -0.8400 -0.0442 -0.5829
 4382SOL     OW17992   1.105   7.374   9.358  0.4613 -0.1139  0.2153
 4382SOL    HW117993   1.060   7.366   9.442  1.2611 -2.1651  0.5070
 4382SOL    HW217994   1.071   7.303   9.305  1.4388 -0.0835 -0.4836
 4383SOL     OW17995   2.266   7.766   1.687 -0.1419  0.5239 -0.4684
 4383SOL    HW117996   2.269   7.734   1.597 -0.7646  0.0706 -0.3361
 4383SOL    HW217997   2.255   7.861   1.678 -1.9002  0.3154 -0.9014
 4384SOL     OW17998   0.476   6.311   9.173  0.2119 -0.3944  0.2553
 4384SOL    HW117999   0.463   6.383   9.235  0.0136 -0.5298  0.3716
 4384SOL    HW218000   0.398   6.314   9.116  0.2706 -0.4297  0.1727
 4385SOL     OW18001   1.074   5.804   1.666 -0.2913 -0.2124 -0.3942
 4385SOL    HW118002   0.997   5.854   1.693  0.1201  0.8193 -1.0510
 4385SOL    HW218003   1.147   5.851   1.705  0.1358 -0.0687 -1.3494
 4386SOL     OW18004   2.403   6.376   1.421  0.2128 -0.1189  0.5428
 4386SOL    HW118005   2.461   6.345   1.352 -2.2024 -1.9671 -0.8112
 4386SOL    HW218006   2.335   6.426   1.375  0.8343  2.3841  2.1218
 4387SOL     OW18007   2.740   6.633   0.500 -0.5717 -0.3060 -0.0516
 4387SOL    HW118008   2.710   6.723   0.492 -3.2441 -1.1386 -0.1629
 4387SOL    HW218009   2.708   6.604   0.585  1.4255 -0.7953  0.5910
 4388SOL     OW18010   2.990   4.894   0.084 -0.5870 -0.2063  0.4437
 4388SOL    HW118011   3.032   4.870   0.002  1.3273  0.6202  1.1208
 4388SOL    HW218012   2.995   4.814   0.137 -5.2774 -2.0863 -1.3477
 4389SOL     OW18013   3.570   6.680   7.697  0.1323 -0.0534 -0.2517
 4389SOL    HW118014   3.622   6.758   7.716  0.1571  0.1232 -1.0254
 4389SOL    HW218015   3.525   6.660   7.779  0.4291  0.5455  0.0560
 4390SOL     OW18016   2.550   5.032   8.253  0.7345  0.2966 -0.2082
 4390SOL    HW118017   2.553   4.998   8.163 -0.6615 -1.0623  0.2112
 4390SOL    HW218018   2.541   4.953   8.307 -3.9719  1.2088  0.7739
 4391SOL     OW18019   2.855   6.951   7.191  0.1839  0.9251 -0.2245
 4391SOL    HW118020   2.787   6.917   7.133  1.1158  0.4105 -1.0494
 4391SOL    HW218021   2.937   6.933   7.145  0.8173  2.8575  0.0522
 4392SOL     OW18022   9.543   6.202   0.437 -0.2698 -0.0048 -0.4129
 4392SOL    HW118023   9.545   6.291   0.471  0.6626 -0.3876  0.5709
 4392SOL    HW218024   9.574   6.147   0.509 -0.4434 -1.0850 -1.1325
 4393SOL     OW18025   8.167   6.863   7.941  0.6171 -0.6805 -0.0642
 4393SOL    HW118026   8.222   6.905   7.876 -1.1041  1.0637 -0.4772
 4393SOL    HW218027   8.229   6.815   7.997  2.7325  2.2555  0.3500
 4394SOL     OW18028   1.075   4.791   7.142  0.6983 -0.5990 -0.5461
 4394SOL    HW118029   1.116   4.789   7.229  2.6673 -1.7940 -1.4169
 4394SOL    HW218030   1.003   4.729   7.147 -2.1885  2.5659  1.4479
 4395SOL     OW18031   2.177   6.752   0.249  0.4556  0.0208 -0.3739
 4395SOL    HW118032   2.249   6.783   0.304 -0.3235 -2.2545  2.1223
 4395SOL    HW218033   2.103   6.808   0.273  0.3983 -0.2620  0.1331
 4396SOL     OW18034   2.472   8.350   8.196 -0.3406 -0.4649  0.5651
 4396SOL    HW118035   2.474   8.438   8.235 -2.8409 -0.4827  0.9195
 4396SOL    HW218036   2.514   8.362   8.111 -0.5009  1.0570  0.6590
 4397SOL     OW18037   7.867   9.809   8.912  0.1416 -0.1199  0.8930
 4397SOL    HW118038   7.786   9.842   8.874  1.3941  1.3968 -0.6209
 4397SOL    HW218039   7.915   9.772   8.838  1.8598  1.1936  1.2980
 4398SOL     OW18040   9.634   7.646   2.261 -0.2931 -0.2962 -0.0664
 4398SOL    HW118041   9.631   7.723   2.317 -2.4187  0.4548 -1.0786
 4398SOL    HW218042   9.700   7.666   2.195 -0.8067  0.6738 -0.3058
 4399SOL     OW18043   8.956   6.243   9.808  0.0494  0.5046 -0.1403
 4399SOL    HW118044   9.042   6.285   9.815  0.4797 -0.5827  2.0498
 4399SOL    HW218045   8.905   6.281   9.880 -0.8190  0.0478 -0.4963
 4400SOL     OW18046   4.384   5.145   9.600 -0.0500  0.0416  0.4051
 4400SOL    HW118047   4.453   5.207   9.622  0.6992 -0.4570 -0.4445
 4400SOL    HW218048   4.304   5.197   9.599  0.6117  1.0966 -0.6303
 4401SOL     OW18049   2.924   6.646   7.214  0.3371 -0.2586  0.0455
 4401SOL    HW118050   2.992   6.587   7.245  0.3481  0.8024  2.2292
 4401SOL    HW218051   2.959   6.683   7.133  1.2950 -1.5060 -0.1323
 4402SOL     OW18052   2.241   5.268   7.368  0.0892  0.3385  0.1536
 4402SOL    HW118053   2.332   5.246   7.389  0.4501  0.7697 -0.8896
 4402SOL    HW218054   2.190   5.225   7.437  0.9830 -1.1284 -0.0387
 4403SOL     OW18055   9.388   7.973   1.373 -0.0304 -0.5373  0.1965
 4403SOL    HW118056   9.406   8.027   1.296 -0.9111 -0.2886  0.1475
 4403SOL    HW218057   9.298   7.994   1.396 -0.6310 -2.4248 -0.1932
 4404SOL     OW18058   0.396   9.165   2.759 -0.2239  0.2851 -0.1624
 4404SOL    HW118059   0.326   9.108   2.728  0.4680  0.1806 -1.6375
 4404SOL    HW218060   0.360   9.253   2.753 -0.3357  0.2095 -0.6501
 4405SOL     OW18061   3.197   7.279   0.063  0.2447  0.8501 -0.2382
 4405SOL    HW118062   3.263   7.331   0.109  0.9013 -1.2093  1.2844
 4405SOL    HW218063   3.247   7.229  -0.001  0.0413  0.0381  0.2237
 4406SOL     OW18064   9.353   8.214   9.706 -1.0879  0.1064 -0.3679
 4406SOL    HW118065   9.401   8.244   9.783  3.3199  0.1342 -2.8030
 4406SOL    HW218066   9.346   8.119   9.717  0.0007  0.0422 -0.1106
 4407SOL     OW18067   1.971   8.855   0.381  0.3690 -0.0236 -0.5874
 4407SOL    HW118068   2.022   8.775   0.394 -0.1369  0.0419  2.3712
 4407SOL    HW218069   1.963   8.893   0.468 -2.1425  1.5897 -1.4275
 4408SOL     OW18070   1.376   7.363   9.406 -0.0380 -0.9811 -0.3737
 4408SOL    HW118071   1.291   7.390   9.370  0.7318  1.8824 -0.2954
 4408SOL    HW218072   1.404   7.437   9.459  2.3805 -1.9760 -0.1284
 4409SOL     OW18073   9.366   4.761   0.269  0.0912  0.1941  0.4334
 4409SOL    HW118074   9.440   4.734   0.215 -0.1013  0.5177  0.0077
 4409SOL    HW218075   9.369   4.702   0.344  0.5970  0.0046  0.2680
 4410SOL     OW18076   9.335   9.165   0.822  0.3826  0.9024  0.0717
 4410SOL    HW118077   9.372   9.153   0.909 -1.3762 -1.0342  0.6535
 4410SOL    HW218078   9.384   9.104   0.766 -2.4153 -2.6219  1.0940
 4411SOL     OW18079   0.308   7.196   1.241  0.0144  0.3534 -0.1638
 4411SOL    HW118080   0.391   7.244   1.247 -1.1519  2.4391  0.1434
 4411SOL    HW218081   0.268   7.206   1.327 -0.4141 -0.9894 -0.1767
 4412SOL     OW18082   0.500   0.035   1.462 -0.4593  0.4407 -0.4702
 4412SOL    HW118083   0.432   0.100   1.447 -0.1548  1.1288  0.9807
 4412SOL    HW218084   0.466  -0.045   1.421 -0.7834  1.4978 -2.3745
 4413SOL     OW18085   1.902   8.105   2.246  0.4311  0.0066  0.3977
 4413SOL    HW118086   1.977   8.047   2.232 -0.5728 -1.0060 -1.1360
 4413SOL    HW218087   1.826   8.048   2.239 -0.5983  1.4335 -0.9868
 4414SOL     OW18088   1.531   7.289   2.924 -0.3713 -0.1091 -0.0330
 4414SOL    HW118089   1.480   7.252   2.852 -0.0877  1.9984 -1.3899
 4414SOL    HW218090   1.476   7.277   3.001 -2.0118  0.1993 -1.1090
 4415SOL     OW18091   0.732   6.561   0.765  0.1319  0.2140  0.3122
 4415SOL    HW118092   0.666   6.548   0.697  1.1129  0.4798 -0.7080
 4415SOL    HW218093   0.749   6.474   0.800 -0.4952  0.1005  0.3498
 4416SOL     OW18094   9.790   7.764   2.041  0.2343  0.3117  0.4659
 4416SOL    HW118095   9.836   7.768   1.957  0.4596 -1.4007  0.4709
 4416SOL    HW218096   9.702   7.796   2.022 -0.0802 -1.1480 -0.7097
 4417SOL     OW18097   1.196   0.130   0.661  0.0173 -0.0852 -0.3899
 4417SOL    HW118098   1.122   0.101   0.714  0.0887  0.8715  0.2534
 4417SOL    HW218099   1.274   0.103   0.710  0.0897 -0.2074 -0.5716
 4418SOL     OW18100   9.404   8.380   9.424 -0.3180 -0.3912  0.0232
 4418SOL    HW118101   9.498   8.395   9.418 -0.2970 -0.9880 -1.5133
 4418SOL    HW218102   9.395   8.309   9.488  0.3461 -0.8642 -0.3976
 4419SOL     OW18103   1.221   7.618   0.511 -0.0975 -0.1078 -0.1377
 4419SOL    HW118104   1.292   7.628   0.574  0.0515  0.4106 -0.3812
 4419SOL    HW218105   1.145   7.592   0.564  0.6170 -2.2106 -0.0562
 4420SOL     OW18106   0.686   9.000   0.249 -0.4095 -0.6426  0.2403
 4420SOL    HW118107   0.769   9.019   0.292 -0.3074 -0.6005  0.0256
 4420SOL    HW218108   0.703   8.923   0.196 -0.4936 -0.6068  0.1602
 4421SOL     OW18109   2.124   5.317   3.041  0.0126  0.1319 -0.2816
 4421SOL    HW118110   2.052   5.262   3.069  0.9610 -0.9444  0.1129
 4421SOL    HW218111   2.177   5.261   2.984  0.3487  1.0156 -0.8737
 4422SOL     OW18112   9.745   7.623   2.896 -0.0160  0.2909  0.0988
 4422SOL    HW118113   9.749   7.544   2.949 -2.1472  0.4139  0.5365
 4422SOL    HW218114   9.763   7.694   2.957 -0.7162  0.3078  0.2951
 4423SOL     OW18115   1.743   1.930   0.794  0.3084 -0.1194  0.5253
 4423SOL    HW118116   1.724   1.941   0.701  0.4331 -0.8332  0.4119
 4423SOL    HW218117   1.679   1.865   0.824  0.0261  0.3785  1.0269
 4424SOL     OW18118   2.345   1.892   0.854  0.0261 -0.5829  0.6503
 4424SOL    HW118119   2.269   1.853   0.812  0.3539  0.7782 -1.3350
 4424SOL    HW218120   2.411   1.896   0.785  0.8771  1.0310  1.4916
 4425SOL     OW18121   2.443   8.198   8.859  0.0117  0.1645  0.2140
 4425SOL    HW118122   2.479   8.111   8.879 -2.5298 -0.9369  0.4153
 4425SOL    HW218123   2.441   8.243   8.943 -0.8774 -0.5132  0.5733
 4426SOL     OW18124   1.839   9.573   1.083 -0.0466  0.0202  0.1540
 4426SOL    HW118125   1.770   9.531   1.136 -0.7320 -1.6248 -1.9278
 4426SOL    HW218126   1.793   9.607   1.007  1.3298 -0.5710 -0.9840
 4427SOL     OW18127   1.674   6.116   0.416 -0.1049 -0.2041 -0.4929
 4427SOL    HW118128   1.725   6.197   0.421 -0.0800 -0.2939  1.8065
 4427SOL    HW218129   1.684   6.086   0.326  1.5025  1.3078 -0.8597
 4428SOL     OW18130   7.950   6.578   1.604  0.4735 -0.0938 -0.0243
 4428SOL    HW118131   7.949   6.602   1.697  1.0447  1.9426 -0.4920
 4428SOL    HW218132   8.002   6.498   1.600  1.2610  0.3181  1.3063
 4429SOL     OW18133   2.762   0.169   1.473 -0.0761 -0.5364  0.3065
 4429SOL    HW118134   2.765   0.261   1.499 -0.5812 -0.4604  0.1183
 4429SOL    HW218135   2.677   0.138   1.505 -0.8723 -0.3564 -1.4609
 4430SOL     OW18136   9.659   6.137   0.690  0.1346  0.0912  0.1525
 4430SOL    HW118137   9.595   6.204   0.714  0.3516  0.1858  0.4665
 4430SOL    HW218138   9.739   6.185   0.672  0.1427 -0.0347 -0.1569
 4431SOL     OW18139   3.511   8.591   2.215  1.1378  0.2911  0.1936
 4431SOL    HW118140   3.472   8.646   2.283 -1.0619  0.2939 -0.9857
 4431SOL    HW218141   3.483   8.502   2.238  1.0239  0.1974 -0.3008
 4432SOL     OW18142   1.875   2.735   0.380  0.7211  0.2110  0.2724
 4432SOL    HW118143   1.842   2.646   0.385  0.5465  0.1684 -1.1709
 4432SOL    HW218144   1.954   2.728   0.326  0.8454  0.8925  0.3552
 4433SOL     OW18145   1.759   9.754   9.727  0.1939  0.4459 -0.0028
 4433SOL    HW118146   1.794   9.757   9.638  0.8700 -0.8186  0.1964
 4433SOL    HW218147   1.830   9.716   9.779 -0.9147 -0.7389  0.6997
 4434SOL     OW18148   1.616   1.360   1.521  0.6444 -0.3064 -0.1766
 4434SOL    HW118149   1.544   1.306   1.489  1.3037 -0.1729 -1.9596
 4434SOL    HW218150   1.614   1.438   1.466  1.2951  0.3347  0.6864
 4435SOL     OW18151   3.307   7.692   9.831 -0.8345  0.3953  0.0290
 4435SOL    HW118152   3.249   7.709   9.905  0.2791 -0.1603  1.0689
 4435SOL    HW218153   3.345   7.606   9.850  0.4216  0.7994 -0.5515
 4436SOL     OW18154   0.832   6.916   1.025  0.1958  0.0040  0.2269
 4436SOL    HW118155   0.878   6.995   1.054  2.4662 -0.9923 -0.4704
 4436SOL    HW218156   0.881   6.844   1.064 -0.5259 -1.1370 -0.9019
 4437SOL     OW18157   1.373   7.168   0.719  0.2680 -0.3173  0.4286
 4437SOL    HW118158   1.468   7.163   0.704  0.2636  1.4247 -0.3467
 4437SOL    HW218159   1.365   7.209   0.806  0.2478  0.9432 -0.1456
 4438SOL     OW18160   0.921   8.729   1.722 -0.0167 -0.1385  0.0500
 4438SOL    HW118161   0.843   8.719   1.668 -0.3596  1.2949  0.2410
 4438SOL    HW218162   0.899   8.686   1.804  0.0710 -1.3002 -0.5240
 4439SOL     OW18163   9.802   7.125   9.419  0.2494  0.0318  0.2036
 4439SOL    HW118164   9.791   7.191   9.488 -1.0146 -0.7386  0.7726
 4439SOL    HW218165   9.729   7.141   9.359  0.5596 -0.1747 -0.2334
 4440SOL     OW18166   1.422   7.256   0.979  0.1967 -0.2222 -0.5788
 4440SOL    HW118167   1.512   7.224   0.973  0.6550  0.6077  1.2303
 4440SOL    HW218168   1.430   7.343   1.018 -1.3754 -0.0223 -0.6344
 4441SOL     OW18169   3.278   6.785   1.005 -0.3223 -0.7335  0.4046
 4441SOL    HW118170   3.327   6.707   0.982 -0.6670 -1.1803  1.1431
 4441SOL    HW218171   3.340   6.840   1.054  0.8685  0.8805 -2.6411
 4442SOL     OW18172   1.037   7.836   7.876  0.6184  0.7856 -0.1076
 4442SOL    HW118173   1.092   7.886   7.936  1.3579  0.5643 -0.5922
 4442SOL    HW218174   1.089   7.829   7.796  0.0816  0.1586 -0.4100
 4443SOL     OW18175   9.254   9.161   0.546  0.3243 -0.1630 -0.6821
 4443SOL    HW118176   9.265   9.067   0.557 -0.2552 -0.2588 -0.8560
 4443SOL    HW218177   9.191   9.186   0.614  1.0937  0.2508 -0.0960
 4444SOL     OW18178   8.214   8.852   2.073 -0.4652  0.2999  0.0051
 4444SOL    HW118179   8.170   8.931   2.042 -0.6916 -0.0428 -0.5544
 4444SOL    HW218180   8.170   8.780   2.028 -1.4627 -0.3015  1.8407
 4445SOL     OW18181   0.466   6.242   0.928  0.4157  0.0732 -0.2503
 4445SOL    HW118182   0.425   6.220   0.844  2.6614 -1.4146 -1.0632
 4445SOL    HW218183   0.555   6.268   0.904  1.2404 -0.7707  1.7159
 4446SOL     OW18184   2.801   6.937   1.314  0.1461  0.9600 -0.5435
 4446SOL    HW118185   2.800   7.008   1.250 -1.2294 -0.2395 -1.9323
 4446SOL    HW218186   2.855   6.970   1.386  2.0151  2.2297 -2.4299
 4447SOL     OW18187   0.617   8.000   1.572  0.4286 -0.4274  0.4303
 4447SOL    HW118188   0.692   8.010   1.513 -1.1737  1.3542 -1.4897
 4447SOL    HW218189   0.542   8.027   1.519 -1.3338 -0.2624  2.8562
 4448SOL     OW18190   2.047   9.660   8.983  0.1492 -0.0939  0.3079
 4448SOL    HW118191   2.036   9.719   9.058 -0.1025  0.4064 -0.1187
 4448SOL    HW218192   2.104   9.590   9.016  1.3142  0.9239  0.5287
 4449SOL     OW18193   1.367   1.240   3.128  0.2132 -0.9345 -0.2633
 4449SOL    HW118194   1.366   1.333   3.107 -1.1333 -1.1403 -1.2235
 4449SOL    HW218195   1.367   1.238   3.224 -1.6210  0.0911 -0.1969
 4450SOL     OW18196   1.042   9.376   1.668 -0.4713  0.4545 -0.0338
 4450SOL    HW118197   0.974   9.348   1.607 -0.3095 -1.3870  0.5656
 4450SOL    HW218198   0.994   9.408   1.744 -0.7206 -0.8129  0.3766
 4451SOL     OW18199   1.577   0.827   1.307  0.2194 -0.1066  0.0184
 4451SOL    HW118200   1.663   0.785   1.304 -0.4038 -1.4270 -0.0915
 4451SOL    HW218201   1.515   0.755   1.305 -0.9539  0.8849 -1.9415
 4452SOL     OW18202   1.769   0.410   0.833 -0.5885  0.1714 -0.0717
 4452SOL    HW118203   1.723   0.490   0.806  3.0887  1.7583 -2.5112
 4452SOL    HW218204   1.817   0.383   0.755 -0.3386 -3.5367  1.1808
 4453SOL     OW18205   7.251   6.857   9.578 -0.1837 -0.6761  0.5063
 4453SOL    HW118206   7.182   6.798   9.607  1.3281 -3.3063 -0.7943
 4453SOL    HW218207   7.327   6.799   9.566  1.2595  1.4579 -1.4285
 4454SOL     OW18208   2.947   7.139   0.229  0.4183 -0.0115 -0.4336
 4454SOL    HW118209   2.971   7.231   0.217  0.5699 -0.0208 -0.2031
 4454SOL    HW218210   3.017   7.090   0.185  1.4861 -0.0748  1.2402
 4455SOL     OW18211   3.185   0.622   0.131 -0.2354 -0.2771 -0.3089
 4455SOL    HW118212   3.136   0.539   0.134 -0.7370  0.0389  1.1011
 4455SOL    HW218213   3.253   0.611   0.197 -0.2959  0.4289 -0.1305
 4456SOL     OW18214   0.692   9.642   3.030 -0.3969 -0.4906 -0.3307
 4456SOL    HW118215   0.754   9.588   3.079  1.0953  1.2626 -0.2029
 4456SOL    HW218216   0.607   9.599   3.043  0.8703 -3.5406 -1.3417
 4457SOL     OW18217   0.987   6.764   0.173 -0.1330  0.5465 -1.0705
 4457SOL    HW118218   0.909   6.781   0.226  0.5661 -0.9325  0.5220
 4457SOL    HW218219   0.972   6.678   0.135  0.6373  0.3333 -0.9081
 4458SOL     OW18220   8.994   2.568   1.058  0.4713 -0.4471 -0.1929
 4458SOL    HW118221   9.038   2.651   1.073 -0.2720 -0.1320  0.3391
 4458SOL    HW218222   8.901   2.587   1.074  0.1039 -1.0149 -1.5500
 4459SOL     OW18223   3.163   8.769   0.873 -0.2657 -0.4138  0.5319
 4459SOL    HW118224   3.163   8.828   0.949 -2.8197 -0.7036  0.8270
 4459SOL    HW218225   3.166   8.828   0.798  1.2705 -0.0955  0.7966
 4460SOL     OW18226   2.289   8.537   3.647 -0.1400  0.1803  0.1081
 4460SOL    HW118227   2.248   8.607   3.596  0.2144  0.5482  0.3130
 4460SOL    HW218228   2.381   8.538   3.618 -0.4592 -1.3093 -1.0939
 4461SOL     OW18229   1.892   8.096   2.701 -0.4184  0.6279  0.7094
 4461SOL    HW118230   1.822   8.142   2.748 -0.2232  1.2195  0.4179
 4461SOL    HW218231   1.969   8.105   2.758 -0.2128  1.2383  0.3375
 4462SOL     OW18232   1.761   8.714   9.421  0.3703  0.1247 -0.8759
 4462SOL    HW118233   1.849   8.749   9.409  0.5035 -0.5030 -1.8444
 4462SOL    HW218234   1.757   8.691   9.513  1.6370 -0.9205 -1.0591
 4463SOL     OW18235   1.793   5.544   8.971  0.1095  0.1009  0.2972
 4463SOL    HW118236   1.784   5.543   8.876 -0.7299  0.3832  0.3627
 4463SOL    HW218237   1.840   5.625   8.990  3.2098 -1.4616 -0.0669
 4464SOL     OW18238   1.579   7.916   2.681  0.2584 -0.2019 -0.2966
 4464SOL    HW118239   1.608   7.942   2.593 -1.1519  0.8095 -0.4938
 4464SOL    HW218240   1.648   7.858   2.712  0.9209 -0.3749 -1.9709
 4465SOL     OW18241   2.345   8.017   0.886 -0.0588 -0.7704  0.5705
 4465SOL    HW118242   2.284   7.972   0.944  1.0681 -0.6301  1.9063
 4465SOL    HW218243   2.289   8.053   0.817 -1.4504 -0.8586  1.5977
 4466SOL     OW18244   2.402   9.021   2.366 -0.5504  0.0815  0.1006
 4466SOL    HW118245   2.437   8.936   2.338 -0.7511 -0.3345  1.0756
 4466SOL    HW218246   2.334   8.999   2.429 -0.8135  0.9667  0.1292
 4467SOL     OW18247   8.116   8.435   0.215 -0.1195 -0.7760 -0.2512
 4467SOL    HW118248   8.121   8.493   0.291 -1.2671 -0.7217 -0.1861
 4467SOL    HW218249   8.071   8.487   0.148  2.5714 -0.1256 -1.6879
 4468SOL     OW18250   1.387   5.671   1.299  0.0056 -0.3554  0.4742
 4468SOL    HW118251   1.333   5.648   1.375 -2.5152 -1.0626 -1.3889
 4468SOL    HW218252   1.331   5.728   1.246  0.4532 -2.2316 -2.2297
 4469SOL     OW18253   1.473   7.428   0.632  0.0640 -0.2280 -0.0812
 4469SOL    HW118254   1.441   7.495   0.691 -0.4258  0.3179 -0.9480
 4469SOL    HW218255   1.408   7.358   0.637  0.9157 -0.9589  1.3303
 4470SOL     OW18256   2.929   9.287   8.963 -0.2718 -0.1433 -0.0783
 4470SOL    HW118257   2.926   9.300   9.057 -0.4858 -0.3512 -0.0543
 4470SOL    HW218258   3.016   9.316   8.937 -0.3772  0.3591  0.1170
 4471SOL     OW18259   0.827   4.724   0.087 -0.6332 -0.1495 -0.3739
 4471SOL    HW118260   0.756   4.772   0.130 -1.3456 -0.2160 -1.4158
 4471SOL    HW218261   0.803   4.632   0.099  0.2687 -0.2450  0.8630
 4472SOL     OW18262   1.843   7.453   8.931 -0.7093 -0.1408 -0.6434
 4472SOL    HW118263   1.785   7.398   8.985 -0.7707 -0.4836 -1.0548
 4472SOL    HW218264   1.783   7.510   8.882 -0.6101  1.1825  0.6988
 4473SOL     OW18265   1.189   8.816   1.673 -0.0503  0.1027  0.2629
 4473SOL    HW118266   1.102   8.781   1.695  0.1229 -1.6729 -1.5428
 4473SOL    HW218267   1.250   8.747   1.698  0.7052  0.7297  0.1866
 4474SOL     OW18268   0.700   8.841   2.891  0.0154 -0.6068 -0.1670
 4474SOL    HW118269   0.693   8.776   2.821 -0.1766  0.2853 -1.0047
 4474SOL    HW218270   0.775   8.812   2.943  0.3161 -1.1618 -0.8850
 4475SOL     OW18271   9.385   6.980   9.231 -0.2778  0.2001  0.7801
 4475SOL    HW118272   9.415   6.914   9.294  0.4596 -0.2785 -0.0575
 4475SOL    HW218273   9.439   6.966   9.154 -1.6566  0.3254 -0.2356
 4476SOL     OW18274   2.058   7.238   0.959 -0.1182  0.2720  0.1860
 4476SOL    HW118275   1.998   7.265   0.889 -0.9783 -0.9864  0.4141
 4476SOL    HW218276   2.022   7.155   0.991  1.6259 -0.4088  0.4779
 4477SOL     OW18277   0.839   0.160   1.846  0.1313  0.1559 -0.0430
 4477SOL    HW118278   0.851   0.067   1.827  2.2232  0.6105 -1.2402
 4477SOL    HW218279   0.752   0.180   1.810  0.4550 -0.9304 -1.5618
 4478SOL     OW18280   0.343   8.340   1.844 -0.7148  0.2113 -0.2874
 4478SOL    HW118281   0.266   8.352   1.788  0.2767  0.4899 -1.6386
 4478SOL    HW218282   0.352   8.424   1.890 -0.8855  0.3785 -0.5556
 4479SOL     OW18283   1.571   9.279   1.372 -0.5912 -0.4723  0.4043
 4479SOL    HW118284   1.526   9.197   1.355 -0.8924  0.0389 -1.4412
 4479SOL    HW218285   1.629   9.259   1.446 -2.8465 -1.4799  2.0124
 4480SOL     OW18286   0.552   8.198   8.649 -0.1331  0.0384 -0.0478
 4480SOL    HW118287   0.610   8.269   8.622  0.0297  0.4055  1.2030
 4480SOL    HW218288   0.477   8.242   8.687  0.1071 -0.4526  1.0282
 4481SOL     OW18289   1.122   0.731   9.726  0.2133  0.5314 -0.1166
 4481SOL    HW118290   1.128   0.821   9.693  0.9866  0.4153 -0.3244
 4481SOL    HW218291   1.048   0.693   9.679 -1.2612  1.5712  1.2563
 4482SOL     OW18292   0.592   0.827   0.186 -0.2977 -0.6521 -0.4556
 4482SOL    HW118293   0.538   0.879   0.127  1.3085  0.4417 -1.0403
 4482SOL    HW218294   0.654   0.782   0.128 -0.0396 -1.2100  0.2354
 4483SOL     OW18295   0.635   8.143   1.925 -0.2239 -0.1656  0.6505
 4483SOL    HW118296   0.675   8.067   1.884 -3.2854 -0.8754 -1.3174
 4483SOL    HW218297   0.577   8.107   1.992 -1.7955  0.3481 -0.3780
 4484SOL     OW18298   1.831   8.099   1.105  0.0034  0.0124 -0.0426
 4484SOL    HW118299   1.769   8.026   1.098  0.9643 -0.7032 -1.8609
 4484SOL    HW218300   1.809   8.156   1.031  0.6732  0.4019  0.0520
 4485SOL     OW18301   1.830   8.166   1.672 -0.2496  0.5360 -0.1607
 4485SOL    HW118302   1.804   8.236   1.731 -0.1513 -0.1520  0.7148
 4485SOL    HW218303   1.904   8.202   1.622 -2.2827  2.2531 -2.1594
 4486SOL     OW18304   2.219   6.796   1.779  0.0587  0.1618  0.0024
 4486SOL    HW118305   2.137   6.797   1.828 -0.7342 -1.2867 -1.2227
 4486SOL    HW218306   2.240   6.888   1.765 -1.1009  0.5578  0.7473
 4487SOL     OW18307   3.643   6.740   2.083 -0.1819 -0.0087 -0.5791
 4487SOL    HW118308   3.559   6.730   2.037 -2.5306 -1.6657  3.5148
 4487SOL    HW218309   3.650   6.834   2.101 -1.3466  0.1026 -0.6490
 4488SOL     OW18310   1.851   6.910   0.029 -0.0104  0.3458 -0.7844
 4488SOL    HW118311   1.936   6.896  -0.013 -0.2496 -2.7335 -0.5012
 4488SOL    HW218312   1.789   6.913  -0.043  0.2503  1.9998 -0.9603
 4489SOL     OW18313   1.090   6.987   0.865 -0.4931  0.0232 -0.1445
 4489SOL    HW118314   1.072   7.049   0.935 -0.1677  0.0350 -0.0706
 4489SOL    HW218315   1.088   6.901   0.908  1.1165  0.1156  0.1767
 4490SOL     OW18316   8.079   9.058   0.227  0.7717  0.4166  0.1659
 4490SOL    HW118317   7.996   9.035   0.269 -0.1350  1.8700 -0.7807
 4490SOL    HW218318   8.093   8.989   0.162  0.6713 -0.2128  0.8009
 4491SOL     OW18319   9.670   7.715   0.237  0.2839  0.4044 -0.3463
 4491SOL    HW118320   9.742   7.707   0.300  1.0682 -0.9924 -1.3657
 4491SOL    HW218321   9.611   7.643   0.260 -0.2995  0.9398 -0.1455
 4492SOL     OW18322   2.481   8.558   1.083 -0.3840  0.3847  0.1303
 4492SOL    HW118323   2.413   8.498   1.055 -0.6499  0.5531  0.4096
 4492SOL    HW218324   2.513   8.522   1.165 -0.7223  0.7582  0.4313
 4493SOL     OW18325   9.596   8.102   0.891  0.2968  0.4421 -0.6244
 4493SOL    HW118326   9.586   8.060   0.977 -2.7091  0.7007 -0.7261
 4493SOL    HW218327   9.687   8.086   0.866  0.7723 -1.1441  1.8268
 4494SOL     OW18328   1.566   8.184   0.809 -0.3826 -0.7717 -0.2183
 4494SOL    HW118329   1.603   8.096   0.810 -0.2517 -0.7753 -1.9901
 4494SOL    HW218330   1.642   8.242   0.803 -0.5038 -0.5752  0.1075
 4495SOL     OW18331   3.353   7.970   1.392 -0.3730  0.4900 -0.2612
 4495SOL    HW118332   3.269   8.004   1.423 -1.9817 -1.6622 -1.9192
 4495SOL    HW218333   3.344   7.968   1.297  1.8654  0.8248 -0.5373
 4496SOL     OW18334   8.983   0.949   1.027 -0.0223 -0.1380  0.2803
 4496SOL    HW118335   8.909   0.906   1.069  1.2912 -1.2564  1.5404
 4496SOL    HW218336   8.998   1.028   1.080  0.3111 -0.4499  0.6600
 4497SOL     OW18337   0.400   6.172   8.903 -0.4292 -0.1271 -0.5697
 4497SOL    HW118338   0.407   6.242   8.839  1.0580  0.1934 -0.1046
 4497SOL    HW218339   0.311   6.180   8.938 -0.4898  1.1394 -0.9672
 4498SOL     OW18340   2.275   5.794   1.855  0.1922  0.2275  0.4689
 4498SOL    HW118341   2.216   5.852   1.806  0.3830 -1.2670 -1.6482
 4498SOL    HW218342   2.225   5.713   1.866  0.9601 -0.2128  0.8159
 4499SOL     OW18343   0.681   0.463   1.655 -0.0340  0.3068 -0.1146
 4499SOL    HW118344   0.588   0.443   1.649 -0.3729  0.8197  2.3026
 4499SOL    HW218345   0.719   0.425   1.576 -2.4100  0.9685 -1.6734
 4500SOL     OW18346   0.506   7.373   1.263  0.2089 -0.6608  0.0629
 4500SOL    HW118347   0.563   7.420   1.323  0.7071 -2.9235  1.4486
 4500SOL    HW218348   0.556   7.368   1.181 -0.7615  3.0663 -0.9636
 4501SOL     OW18349   9.802   8.625   0.054  0.6164 -0.1974  0.2316
 4501SOL    HW118350   9.734   8.689   0.031  0.5506 -0.7125 -1.1369
 4501SOL    HW218351   9.760   8.566   0.116 -0.6648 -1.2724 -1.5597
 4502SOL     OW18352   1.040   7.178   2.700 -0.1802 -0.0302  0.3311
 4502SOL    HW118353   1.043   7.211   2.790  0.4100  2.0720 -0.4059
 4502SOL    HW218354   0.949   7.154   2.686 -0.5129  0.7090  1.1266
 4503SOL     OW18355   2.260   6.224   9.825  0.3977 -0.0307  0.0846
 4503SOL    HW118356   2.297   6.312   9.834  0.0629  0.0596  0.6692
 4503SOL    HW218357   2.178   6.238   9.776  0.8092 -0.1456 -0.6461
 4504SOL     OW18358   9.784   7.172   0.787 -0.1080  0.5733  0.2815
 4504SOL    HW118359   9.789   7.264   0.761  0.2096  0.2735 -0.7436
 4504SOL    HW218360   9.786   7.123   0.705 -0.1740 -0.3574  0.8201
 4505SOL     OW18361   0.537   8.006   0.440  0.2631 -0.3823 -0.2871
 4505SOL    HW118362   0.442   7.996   0.444 -0.0104  0.7426 -2.3741
 4505SOL    HW218363   0.560   7.974   0.352  1.8539 -0.8399  0.2689
 4506SOL     OW18364   0.319   8.618   1.483  0.0262 -0.3842  0.1186
 4506SOL    HW118365   0.396   8.562   1.472 -0.5463 -1.6883  2.2239
 4506SOL    HW218366   0.355   8.701   1.516  0.4904 -1.6535  3.1128
 4507SOL     OW18367   4.032   0.138   2.637  0.0921  0.4978 -0.4587
 4507SOL    HW118368   4.123   0.167   2.626  0.9051 -2.0225 -1.2115
 4507SOL    HW218369   4.031   0.097   2.724 -0.1206 -0.0966 -0.7367
 4508SOL     OW18370   8.534   5.528   8.291 -0.0532 -0.0486 -0.5728
 4508SOL    HW118371   8.525   5.570   8.377 -2.3539 -1.0252 -0.2529
 4508SOL    HW218372   8.592   5.453   8.307  0.8016  0.6632 -0.2530
 4509SOL     OW18373   0.435   6.802   2.579 -0.5346 -0.1293 -0.3898
 4509SOL    HW118374   0.446   6.891   2.547 -0.4558  0.4916  1.2496
 4509SOL    HW218375   0.348   6.776   2.551 -0.5987  0.5088 -0.7841
 4510SOL     OW18376   8.685   7.574   3.008 -0.3918  0.4128  0.2694
 4510SOL    HW118377   8.671   7.577   3.103 -3.3378 -0.0500 -0.0747
 4510SOL    HW218378   8.635   7.648   2.974  0.0793  0.1737 -0.9967
 4511SOL     OW18379   8.617   9.665   2.170  0.3455 -0.6123 -0.2580
 4511SOL    HW118380   8.628   9.573   2.195  1.0495 -0.3074  0.6231
 4511SOL    HW218381   8.680   9.712   2.224 -1.6289  0.6856  1.0246
 4512SOL     OW18382   0.428   8.818   2.941  0.2943 -0.1273 -0.2268
 4512SOL    HW118383   0.459   8.907   2.963 -1.1510 -0.0213  1.6382
 4512SOL    HW218384   0.508   8.770   2.920  1.2933  1.2009  0.3562
 4513SOL     OW18385   9.267   6.411   0.436 -0.0110 -0.1300  0.6981
 4513SOL    HW118386   9.348   6.411   0.486  1.0696  1.0728 -0.9191
 4513SOL    HW218387   9.258   6.502   0.405 -1.3930 -0.4843 -0.0380
 4514SOL     OW18388   0.036   9.166   9.847 -0.0541 -0.7987  0.2444
 4514SOL    HW118389   0.131   9.173   9.844 -0.0936 -0.1940  0.2736
 4514SOL    HW218390   0.018   9.077   9.818  0.4853 -0.6954 -0.4464
 4515SOL     OW18391   9.708   6.764   0.771  0.2260 -0.1242 -0.0827
 4515SOL    HW118392   9.652   6.687   0.781 -1.1419  0.5092 -2.1699
 4515SOL    HW218393   9.766   6.742   0.699 -0.3198  0.8422 -0.8345
 4516SOL     OW18394   8.631   0.402   2.599  1.0197  0.4695 -0.0760
 4516SOL    HW118395   8.638   0.351   2.680 -0.6693 -1.0497 -0.8178
 4516SOL    HW218396   8.539   0.394   2.574  1.0995  2.4570 -1.1989
 4517SOL     OW18397   8.448   6.995   1.155  0.3589  0.3576  0.0721
 4517SOL    HW118398   8.511   6.975   1.086  3.1489  2.2347  1.8857
 4517SOL    HW218399   8.453   7.090   1.166 -0.7060  0.2372  2.2041
 4518SOL     OW18400   0.968   5.605   3.864 -0.2619  0.2219  0.6088
 4518SOL    HW118401   1.038   5.657   3.823 -1.1286  0.5944 -0.4443
 4518SOL    HW218402   0.967   5.523   3.815 -0.6114  0.2538  0.5589
 4519SOL     OW18403   1.889   7.752   0.120  0.3045 -0.0804  0.7171
 4519SOL    HW118404   1.928   7.781   0.202 -0.4328 -0.1104  1.0887
 4519SOL    HW218405   1.939   7.797   0.052  0.4110  0.5622  1.2124
 4520SOL     OW18406   0.081   8.567   0.596  0.4997  0.0610 -0.1053
 4520SOL    HW118407   0.062   8.622   0.673  1.2463 -0.4105  0.4322
 4520SOL    HW218408   0.162   8.603   0.561  0.2293  0.1895 -0.6036
 4521SOL     OW18409   0.465   8.283   1.467 -0.0763 -0.2790 -0.3060
 4521SOL    HW118410   0.494   8.337   1.394  4.4278 -0.9844  0.6831
 4521SOL    HW218411   0.439   8.200   1.427  0.7928 -0.1124 -1.2408
 4522SOL     OW18412   9.712   7.812   0.864 -0.0246 -0.2460  0.7097
 4522SOL    HW118413   9.746   7.723   0.867 -1.9135 -0.9882  0.9210
 4522SOL    HW218414   9.662   7.816   0.782 -0.8421  0.2712  1.2244
 4523SOL     OW18415   7.261   6.986   1.001  0.5940  0.5052 -0.1033
 4523SOL    HW118416   7.186   7.024   1.048  1.1633  0.3680  0.9491
 4523SOL    HW218417   7.281   7.050   0.933  0.7814  1.5378  0.8868
 4524SOL     OW18418   1.403   7.793   8.309  0.2640 -0.2443  0.1036
 4524SOL    HW118419   1.444   7.874   8.340  0.9707 -1.4814  2.6790
 4524SOL    HW218420   1.315   7.795   8.347 -0.4406  0.1974 -1.4818
 4525SOL     OW18421   2.436   9.138   0.303 -0.3337  0.3930 -0.2757
 4525SOL    HW118422   2.378   9.092   0.364 -1.3937  2.1882  0.1493
 4525SOL    HW218423   2.524   9.112   0.328 -0.8670 -2.5273 -1.0112
 4526SOL     OW18424   2.871   7.637   0.015 -0.0854 -0.1057  0.4385
 4526SOL    HW118425   2.930   7.646  -0.060  0.0696 -1.7099  0.3255
 4526SOL    HW218426   2.799   7.696  -0.004  0.7062  0.6748 -0.2123
 4527SOL     OW18427   0.402   9.094   3.015  0.0065 -0.1988 -0.2643
 4527SOL    HW118428   0.437   9.148   2.944  2.4600  0.5521  1.4002
 4527SOL    HW218429   0.351   9.155   3.068 -0.6930 -0.4576 -0.6341
 4528SOL     OW18430   0.927   9.254   1.435  0.9364 -0.2865  0.3091
 4528SOL    HW118431   0.888   9.203   1.506  1.0258 -1.6807 -0.5943
 4528SOL    HW218432   0.875   9.231   1.358  1.7813 -0.0063 -0.3619
 4529SOL     OW18433   2.784   6.622   9.313  0.3326 -0.3216 -0.4803
 4529SOL    HW118434   2.853   6.632   9.248  0.7153 -0.6453 -0.1235
 4529SOL    HW218435   2.733   6.547   9.282  1.3204 -1.3363  0.3100
 4530SOL     OW18436   8.743   8.897   0.810 -0.5014  0.4602 -0.6665
 4530SOL    HW118437   8.807   8.940   0.753 -1.0211  0.2738 -1.3999
 4530SOL    HW218438   8.713   8.966   0.869  0.7957  0.4183  0.0858
 4531SOL     OW18439   1.496   8.249   1.123 -0.6322  0.1136  0.2263
 4531SOL    HW118440   1.438   8.316   1.159 -2.9492 -2.0982  0.9445
 4531SOL    HW218441   1.494   8.263   1.029 -1.7783  0.5310  0.3031
 4532SOL     OW18442   1.015   9.744   9.111  0.0410  0.1393  0.4012
 4532SOL    HW118443   1.010   9.724   9.205 -0.7934  0.5181  0.4444
 4532SOL    HW218444   0.994   9.662   9.068 -1.4207  0.3915  0.5708
 4533SOL     OW18445   2.461   8.730   4.379  0.2886 -0.1994 -0.4925
 4533SOL    HW118446   2.412   8.783   4.442  0.5586  0.9091 -1.1841
 4533SOL    HW218447   2.442   8.640   4.404 -2.3436  0.1524 -0.8943
 4534SOL     OW18448   1.513   0.287   1.209  0.4216  0.6914 -0.5137
 4534SOL    HW118449   1.456   0.303   1.285  0.0709 -3.4702  0.3049
 4534SOL    HW218450   1.460   0.316   1.134 -1.2695  0.3768  0.4916
 4535SOL     OW18451   0.640   8.382   8.431  0.6977 -0.2221  0.5915
 4535SOL    HW118452   0.683   8.466   8.419  0.5216  0.0419  1.7660
 4535SOL    HW218453   0.562   8.387   8.375  1.0778  0.0882  0.0764
 4536SOL     OW18454   1.048   8.792   1.224  0.4335 -0.7452  0.0252
 4536SOL    HW118455   1.048   8.729   1.297  3.3530 -0.1356  0.6597
 4536SOL    HW218456   1.106   8.753   1.159 -1.7910 -1.0671 -1.9032
 4537SOL     OW18457   1.340   9.681   9.120  0.1734  0.0342  0.4814
 4537SOL    HW118458   1.253   9.694   9.158  0.5075 -0.6679  1.5098
 4537SOL    HW218459   1.400   9.714   9.186  0.6634  2.6489 -1.1340
 4538SOL     OW18460   0.209   6.925   3.231  0.1642 -0.0427  0.1743
 4538SOL    HW118461   0.161   6.849   3.198  2.0617 -1.3448  0.1994
 4538SOL    HW218462   0.236   6.973   3.153  1.0312 -0.7804 -0.0023
 4539SOL     OW18463   2.246   9.504   0.730  0.1800  0.1372  0.0185
 4539SOL    HW118464   2.253   9.589   0.772  0.4626 -0.1229  0.5019
 4539SOL    HW218465   2.226   9.524   0.638 -1.6878  0.6986  0.4960
 4540SOL     OW18466   2.382   8.309   0.150  0.0633 -0.3809  0.3770
 4540SOL    HW118467   2.345   8.250   0.216 -0.4496  1.8895  2.2377
 4540SOL    HW218468   2.343   8.394   0.169  2.9488  1.2307 -0.3284
 4541SOL     OW18469   0.598   7.032   9.449  0.0876 -0.2457 -0.9079
 4541SOL    HW118470   0.670   7.082   9.487  0.7578 -1.1342 -0.9607
 4541SOL    HW218471   0.519   7.072   9.485  0.6714 -1.4068  1.9407
 4542SOL     OW18472   1.998   9.292   2.651 -0.3196 -0.3476 -0.0300
 4542SOL    HW118473   2.024   9.334   2.733 -1.5069  1.3505 -0.4776
 4542SOL    HW218474   1.961   9.208   2.679  0.7156 -0.4898  1.0167
 4543SOL     OW18475   7.707   8.905   1.170 -0.5415 -0.0295 -0.5043
 4543SOL    HW118476   7.737   8.866   1.252 -0.1776  1.5224  0.1463
 4543SOL    HW218477   7.654   8.980   1.197  0.3196  1.0532 -1.6693
 4544SOL     OW18478   4.559   8.266   0.986 -0.0242 -0.0421  0.1238
 4544SOL    HW118479   4.532   8.358   0.990 -1.7501 -0.4978 -0.3139
 4544SOL    HW218480   4.647   8.269   0.948  0.5408  1.4989  1.4285
 4545SOL     OW18481   5.276   8.199   2.101 -0.0481  0.0788 -0.1565
 4545SOL    HW118482   5.203   8.225   2.044 -0.3221 -0.4277 -0.0369
 4545SOL    HW218483   5.235   8.145   2.169  0.1377  1.2889  0.9779
 4546SOL     OW18484   0.497   7.738   1.603 -0.0972 -0.7324  0.7548
 4546SOL    HW118485   0.401   7.743   1.608 -0.0771 -1.1142  4.0145
 4546SOL    HW218486   0.526   7.830   1.605 -0.3985 -0.6454  1.4370
 4547SOL     OW18487   2.057   8.744   0.999  0.0501 -0.3241 -0.0584
 4547SOL    HW118488   2.039   8.708   1.085 -1.3791  0.9929  0.2302
 4547SOL    HW218489   2.038   8.838   1.007  0.9317  0.0221 -1.5232
 4548SOL     OW18490   1.046   7.663   1.076  0.2159 -0.1814  0.2266
 4548SOL    HW118491   1.046   7.595   1.009 -0.0147 -0.3577  0.4042
 4548SOL    HW218492   1.113   7.634   1.139  1.5760  0.7776 -0.7169
 4549SOL     OW18493   2.840   8.471   2.577 -0.4776 -0.0476 -0.6370
 4549SOL    HW118494   2.808   8.548   2.531 -0.5428  1.3709  1.6169
 4549SOL    HW218495   2.761   8.426   2.608 -0.4168  0.0884 -0.2741
 4550SOL     OW18496   7.612   8.749   9.009 -0.9644  0.1137  0.0164
 4550SOL    HW118497   7.651   8.662   8.998  1.9007  0.9469  2.2518
 4550SOL    HW218498   7.523   8.732   9.039 -1.9613 -1.9272 -3.4397
 4551SOL     OW18499   0.572   6.470   1.066 -0.0715  0.3806 -0.0773
 4551SOL    HW118500   0.501   6.517   1.110 -0.0888  1.7243 -1.4386
 4551SOL    HW218501   0.547   6.469   0.974  1.4250  0.4344 -0.5167
 4552SOL     OW18502   0.834   7.825   0.673 -0.4126  0.1923  0.1841
 4552SOL    HW118503   0.906   7.886   0.657  0.7990 -0.7562  1.6910
 4552SOL    HW218504   0.832   7.770   0.595  0.4028  0.3267  0.0555
 4553SOL     OW18505   9.325   5.927   1.589  0.4563 -0.0317  0.0181
 4553SOL    HW118506   9.418   5.911   1.574  0.9541  1.1717  1.5827
 4553SOL    HW218507   9.297   5.855   1.646  0.5180 -0.1891 -0.1505
 4554SOL     OW18508   8.886   9.580   1.116  0.3568 -0.5896 -0.0965
 4554SOL    HW118509   8.821   9.643   1.084 -1.3479 -1.8395  0.6904
 4554SOL    HW218510   8.951   9.633   1.161  0.3780  0.7946 -1.7014
 4555SOL     OW18511   0.597   7.105   1.384  0.1324  0.1155 -0.4866
 4555SOL    HW118512   0.611   7.020   1.424 -1.5694 -0.1199 -0.2892
 4555SOL    HW218513   0.539   7.151   1.445  0.5142  1.1823 -0.8949
 4556SOL     OW18514   0.166   8.405   1.593 -0.2904  0.5269  0.5879
 4556SOL    HW118515   0.192   8.493   1.566 -0.8257  0.6020  0.3029
 4556SOL    HW218516   0.113   8.373   1.520 -0.8306  0.3016  1.0715
 4557SOL     OW18517   2.937   7.909   3.170 -0.2978 -0.0229  0.2563
 4557SOL    HW118518   3.008   7.861   3.213  0.1762  0.3369 -0.1236
 4557SOL    HW218519   2.871   7.842   3.152  0.6126 -0.6766 -0.8181
 4558SOL     OW18520   8.231   7.942   8.181  0.1098  0.2687  0.1774
 4558SOL    HW118521   8.205   7.863   8.134  0.2539  0.3029  0.0403
 4558SOL    HW218522   8.247   7.912   8.271 -0.8454  0.3310  0.3787
 4559SOL     OW18523   0.995   9.726   1.445 -0.1989  1.0315 -0.0995
 4559SOL    HW118524   1.032   9.775   1.518 -0.3176  0.6252  0.2379
 4559SOL    HW218525   0.993   9.789   1.373 -0.7770  1.6684  0.4498
 4560SOL     OW18526   1.293   5.644   0.165 -0.1850  0.5738 -0.2419
 4560SOL    HW118527   1.326   5.730   0.192  1.4366 -0.1181  0.0560
 4560SOL    HW218528   1.215   5.630   0.220  0.4530  1.1631  0.8426
 4561SOL     OW18529   3.456   2.156   0.817 -0.8023  0.1281 -0.0352
 4561SOL    HW118530   3.388   2.093   0.841 -1.1163 -0.9628 -3.3351
 4561SOL    HW218531   3.538   2.112   0.836 -1.0308 -0.8201 -1.1829
 4562SOL     OW18532   0.984   6.698   1.762  0.1329 -0.2159  0.2302
 4562SOL    HW118533   1.013   6.766   1.822 -0.2942  0.8252 -0.7051
 4562SOL    HW218534   0.893   6.679   1.788 -0.2823  0.7186 -0.4788
 4563SOL     OW18535   0.782   6.596   1.205  0.1781 -0.1393  0.1904
 4563SOL    HW118536   0.731   6.565   1.130  0.6377  2.7705 -1.4566
 4563SOL    HW218537   0.722   6.655   1.252  0.2347 -1.1428  1.5973
 4564SOL     OW18538   0.168   0.612   1.029  0.0181  0.4729  0.4236
 4564SOL    HW118539   0.106   0.682   1.009  0.1817  0.1745 -1.2573
 4564SOL    HW218540   0.224   0.648   1.098  0.0756  1.9783 -0.3753
 4565SOL     OW18541   2.733   7.544   1.873 -0.1936 -0.3226  0.3919
 4565SOL    HW118542   2.680   7.513   1.800 -0.6873  0.7025  0.2987
 4565SOL    HW218543   2.789   7.612   1.836 -0.8515  0.6134  1.0641
 4566SOL     OW18544   9.843   5.481   1.762  0.3906 -0.0075  0.2505
 4566SOL    HW118545   9.927   5.475   1.807  0.2068 -0.2628  0.5646
 4566SOL    HW218546   9.789   5.414   1.803 -0.2069  0.6619  0.5694
 4567SOL     OW18547   1.554   6.481   3.205  0.7058  0.0848 -0.0991
 4567SOL    HW118548   1.588   6.405   3.158  1.0378  0.5767 -0.6666
 4567SOL    HW218549   1.568   6.461   3.298 -0.8980 -1.3583 -0.1121
 4568SOL     OW18550   2.495   7.618   3.209 -0.3296 -0.1248 -0.2088
 4568SOL    HW118551   2.424   7.588   3.265 -0.8555  0.3871 -0.5829
 4568SOL    HW218552   2.552   7.542   3.199 -1.6038 -1.0199 -1.1124
 4569SOL     OW18553   0.083   8.155   9.325 -0.4940  0.0408 -0.5418
 4569SOL    HW118554   0.061   8.062   9.325  0.6500 -0.2437 -1.5231
 4569SOL    HW218555   0.174   8.159   9.294 -1.5135  1.7086 -3.6772
 4570SOL     OW18556   1.010   7.074   7.700  0.0899 -0.2176  0.0307
 4570SOL    HW118557   1.056   7.012   7.644  0.5047  1.2721 -1.3581
 4570SOL    HW218558   1.077   7.137   7.725 -0.5369  0.2503  0.5561
 4571SOL     OW18559   1.632   8.944   9.789  0.2601  0.0269  0.4582
 4571SOL    HW118560   1.551   8.980   9.825 -0.7466  1.5316 -2.8484
 4571SOL    HW218561   1.700   8.975   9.848 -1.4136 -0.4465  2.7948
 4572SOL     OW18562   3.345   8.201   1.708 -0.1692  0.3122  0.6465
 4572SOL    HW118563   3.360   8.216   1.801 -1.7283  5.6301  0.4109
 4572SOL    HW218564   3.250   8.207   1.698 -0.0465 -0.3922 -1.2486
 4573SOL     OW18565   0.172   8.745   8.455 -0.0410 -0.1001  0.6354
 4573SOL    HW118566   0.244   8.726   8.395  0.8901  1.7083  1.0793
 4573SOL    HW218567   0.208   8.728   8.542 -0.8976 -1.3001  0.7729
 4574SOL     OW18568   4.820   0.321   9.342 -0.1415 -0.6656 -0.2700
 4574SOL    HW118569   4.884   0.362   9.401 -1.0044  1.5541 -0.7933
 4574SOL    HW218570   4.851   0.344   9.254 -1.5705  0.3932 -0.5346
 4575SOL     OW18571   0.891   7.284   2.472 -0.2068 -0.2330 -0.2784
 4575SOL    HW118572   0.831   7.291   2.398  0.4745 -0.9684 -0.9230
 4575SOL    HW218573   0.853   7.340   2.540 -0.5559  0.8778 -1.3659
 4576SOL     OW18574   7.701   7.216   9.842  0.4619 -0.1152  0.0189
 4576SOL    HW118575   7.757   7.200   9.918 -0.5096  1.4373  1.1219
 4576SOL    HW218576   7.622   7.164   9.860  0.8963 -1.0926 -0.7928
 4577SOL     OW18577   8.518   7.520   1.331  0.1274  0.1839  0.3301
 4577SOL    HW118578   8.537   7.439   1.283 -0.8425  0.7748 -1.1173
 4577SOL    HW218579   8.474   7.576   1.267  0.5860  1.7917  1.3566
 4578SOL     OW18580   1.953   9.651   9.334 -0.0958 -0.2178 -0.5267
 4578SOL    HW118581   1.927   9.723   9.392 -0.0883 -1.2950  0.8627
 4578SOL    HW218582   1.904   9.667   9.254  2.4718  3.3031 -1.6996
 4579SOL     OW18583   9.531   7.344   1.960  0.0246 -0.1630  0.4621
 4579SOL    HW118584   9.608   7.310   1.915  0.1672  0.4125  0.2527
 4579SOL    HW218585   9.564   7.380   2.042 -0.2333 -1.1965  1.0392
 4580SOL     OW18586   2.713   8.753   8.211  0.0284 -0.2634 -0.5980
 4580SOL    HW118587   2.661   8.772   8.289 -3.5396 -2.4304 -2.1596
 4580SOL    HW218588   2.767   8.678   8.236  0.5888  0.4392  0.3556
 4581SOL     OW18589   1.651   7.549   2.806 -0.2309  0.3063  0.1407
 4581SOL    HW118590   1.589   7.476   2.809 -0.9199  0.9050  1.1942
 4581SOL    HW218591   1.732   7.511   2.772 -1.2819 -0.4165 -1.6711
 4582SOL     OW18592   1.845   6.317   9.485 -0.1619 -0.3671 -0.8907
 4582SOL    HW118593   1.784   6.390   9.493  1.7653  1.3861 -1.0848
 4582SOL    HW218594   1.866   6.313   9.392  2.8199  1.6872 -0.4706
 4583SOL     OW18595   1.185   7.582   1.308  0.3693  0.1882 -0.3165
 4583SOL    HW118596   1.163   7.532   1.387  0.9604 -1.3039 -1.0439
 4583SOL    HW218597   1.279   7.600   1.317  0.1083  1.4565  0.0655
 4584SOL     OW18598   1.712   5.690   9.223 -0.1380  0.3603 -0.5752
 4584SOL    HW118599   1.789   5.739   9.251  2.5145 -3.0476 -1.3123
 4584SOL    HW218600   1.720   5.684   9.128  0.2678 -2.2669 -0.4398
 4585SOL     OW18601   1.935   8.645   2.085 -0.0701  0.1442 -0.1405
 4585SOL    HW118602   1.955   8.551   2.086 -3.2818 -0.7679 -2.8153
 4585SOL    HW218603   1.993   8.681   2.019  0.0037 -0.3317 -0.3430
 4586SOL     OW18604   1.304   4.970   1.225 -0.0833  0.1076  0.1599
 4586SOL    HW118605   1.304   5.016   1.308 -0.0406 -0.5805  0.5467
 4586SOL    HW218606   1.397   4.952   1.208  0.0322  1.3716 -0.6802
 4587SOL     OW18607   9.760   0.239   8.662 -0.0215  0.0524 -0.4069
 4587SOL    HW118608   9.737   0.321   8.706 -0.7437 -0.7001  0.6707
 4587SOL    HW218609   9.825   0.198   8.719 -1.1774 -1.0703  0.1621
 4588SOL     OW18610   8.159   7.189   8.274  0.3579  0.0492  0.0169
 4588SOL    HW118611   8.115   7.131   8.211 -0.9746 -0.9179  1.7545
 4588SOL    HW218612   8.230   7.136   8.310  0.2464  0.1136  0.3324
 4589SOL     OW18613   9.079   5.944   2.930  0.1872  0.0539 -0.1272
 4589SOL    HW118614   9.168   5.951   2.894  1.0571 -2.3112  1.3048
 4589SOL    HW218615   9.043   5.866   2.887 -0.6956  0.2347  0.2836
 4590SOL     OW18616   0.775   9.566   1.506  0.0452 -0.2416 -0.4032
 4590SOL    HW118617   0.704   9.584   1.444 -0.9302  2.6758  1.3465
 4590SOL    HW218618   0.844   9.628   1.482 -0.1176  0.5185  0.9911
 4591SOL     OW18619   2.252   9.112   3.650 -0.6512 -0.0443 -0.2687
 4591SOL    HW118620   2.216   9.133   3.736  0.4251  1.4789 -0.1338
 4591SOL    HW218621   2.218   9.181   3.593 -0.2272 -0.2266 -0.7510
 4592SOL     OW18622   1.926   9.635   4.155 -0.2451  0.4648  0.0335
 4592SOL    HW118623   1.940   9.682   4.073 -0.1828  0.8618  0.2676
 4592SOL    HW218624   1.908   9.704   4.220  1.0795  0.2818  0.6389
 4593SOL     OW18625   9.099   8.526   2.289 -0.6308 -0.4867 -0.0682
 4593SOL    HW118626   9.054   8.594   2.339 -0.1913 -0.4149  0.2328
 4593SOL    HW218627   9.035   8.498   2.224 -0.2410  1.3998 -1.3179
 4594SOL     OW18628   2.039   7.086   2.229 -0.5232  0.1686 -0.2830
 4594SOL    HW118629   2.100   7.126   2.290 -1.3033  0.5664  0.2502
 4594SOL    HW218630   1.968   7.150   2.219 -1.3259 -0.6675 -0.1465
 4595SOL     OW18631   0.551   8.920   2.563 -0.2108  0.1275  0.5239
 4595SOL    HW118632   0.565   9.011   2.589  1.4121 -0.1219  0.6009
 4595SOL    HW218633   0.580   8.916   2.472  0.6426 -0.4990  0.8072
 4596SOL     OW18634   1.295   9.747   3.658  0.4671  0.2755 -0.9206
 4596SOL    HW118635   1.356   9.742   3.732  0.1179 -0.3663 -0.6705
 4596SOL    HW218636   1.342   9.708   3.585  0.7753  0.8164 -1.0147
 4597SOL     OW18637   1.083   8.731   4.688  0.4120  0.1069  0.5204
 4597SOL    HW118638   1.147   8.671   4.728  0.2121 -0.4561  0.0086
 4597SOL    HW218639   1.012   8.674   4.659  0.2292  0.5965  0.0080
 4598SOL     OW18640   2.764   5.860   3.412 -0.0142 -0.2342  0.7798
 4598SOL    HW118641   2.729   5.806   3.341  0.8513 -0.6439  0.6461
 4598SOL    HW218642   2.814   5.798   3.466  0.9970  0.4157  0.6184
 4599SOL     OW18643   1.685   8.568   4.445  0.0922 -0.7066 -0.0806
 4599SOL    HW118644   1.772   8.538   4.471  0.9185  2.2780  0.9516
 4599SOL    HW218645   1.630   8.554   4.522 -0.3635 -2.4198 -0.6721
 4600SOL     OW18646   1.112   7.349   1.473 -0.2158  0.3162 -0.0064
 4600SOL    HW118647   1.096   7.359   1.567  0.0335  1.6096 -0.0795
 4600SOL    HW218648   1.036   7.302   1.440  0.2521 -1.2353  1.0334
 4601SOL     OW18649   2.054   8.932   2.972 -0.1410 -0.3240  0.0829
 4601SOL    HW118650   2.070   8.908   2.881  0.2097 -0.3962  0.1618
 4601SOL    HW218651   1.981   8.877   2.999  0.5502 -1.1888  0.2118
 4602SOL     OW18652   1.879   0.610   2.099  0.0705  0.6661 -0.2354
 4602SOL    HW118653   1.912   0.692   2.136  0.2797  0.7923 -0.6811
 4602SOL    HW218654   1.791   0.630   2.069  0.1234  0.7319 -0.3485
 4603SOL     OW18655   2.151   9.111   4.325  0.5999  0.5243 -0.1972
 4603SOL    HW118656   2.176   9.199   4.353  1.1767  0.3139 -0.0261
 4603SOL    HW218657   2.064   9.121   4.286 -0.2238  0.8490  1.6203
 4604SOL     OW18658   0.602   6.804   2.837  0.6704  0.1133 -0.1220
 4604SOL    HW118659   0.696   6.788   2.823  0.5067 -0.6500 -0.3863
 4604SOL    HW218660   0.566   6.812   2.749  0.8289  2.6083 -0.0146
 4605SOL     OW18661   9.141   8.439   3.779 -0.1966 -0.4516  0.2166
 4605SOL    HW118662   9.074   8.382   3.741  1.2663 -0.5501 -2.4313
 4605SOL    HW218663   9.210   8.380   3.808  0.0024 -0.1867  0.2911
 4606SOL     OW18664   1.268   8.155   4.311  0.0971 -0.0820  0.5875
 4606SOL    HW118665   1.258   8.250   4.310 -0.0992 -0.1059 -0.4357
 4606SOL    HW218666   1.210   8.124   4.242  3.7024 -0.5631 -2.5196
 4607SOL     OW18667   0.981   8.434   3.276 -0.6301  0.6465  0.3260
 4607SOL    HW118668   0.923   8.366   3.241 -0.0471 -1.0064  2.3768
 4607SOL    HW218669   0.983   8.418   3.370  1.4011  2.0638  0.5869
 4608SOL     OW18670   0.896   7.992   2.618 -0.3885 -0.0408 -0.2149
 4608SOL    HW118671   0.824   7.991   2.556 -1.9544  1.2462  1.4679
 4608SOL    HW218672   0.922   7.900   2.627 -1.2444 -0.4305 -1.4701
 4609SOL     OW18673   0.595   9.632   1.290 -0.3365  0.1349 -0.3750
 4609SOL    HW118674   0.505   9.646   1.321 -0.4905  0.0581 -0.7889
 4609SOL    HW218675   0.589   9.554   1.235 -0.0421  0.2251 -0.5318
 4610SOL     OW18676   0.527   7.285   3.121 -0.0622 -0.1114 -0.2812
 4610SOL    HW118677   0.510   7.319   3.033 -2.2564 -0.9717 -0.2613
 4610SOL    HW218678   0.480   7.345   3.178  0.0147 -0.4730  0.1636
 4611SOL     OW18679   8.916   8.510   2.895 -0.5359 -0.4239 -0.5368
 4611SOL    HW118680   8.995   8.524   2.843  0.4962 -1.4661  0.6861
 4611SOL    HW218681   8.932   8.557   2.976 -2.3978  1.7182 -1.2904
 4612SOL     OW18682   1.970   9.027   0.967  0.6936 -0.0735 -1.1030
 4612SOL    HW118683   1.943   9.103   0.916  0.4798  0.1839 -0.6040
 4612SOL    HW218684   2.037   9.061   1.026 -0.6699  0.1251  0.3820
 4613SOL     OW18685   9.265   8.745   3.238  0.4444  0.4027 -0.1882
 4613SOL    HW118686   9.272   8.652   3.216 -2.1492  0.4733 -1.7345
 4613SOL    HW218687   9.199   8.749   3.307 -1.7775  1.2110 -2.2098
 4614SOL     OW18688   7.629   0.191   1.121  0.1936 -0.2948  0.2437
 4614SOL    HW118689   7.607   0.136   1.197  0.5232 -0.7055  0.0463
 4614SOL    HW218690   7.684   0.135   1.066 -1.7204 -0.7518 -1.3195
 4615SOL     OW18691   1.226   1.054   5.219 -0.6806 -0.1382  0.8499
 4615SOL    HW118692   1.197   1.133   5.264  1.3942  0.1368  1.8079
 4615SOL    HW218693   1.180   1.056   5.135  1.7676  3.9761 -0.7135
 4616SOL     OW18694   0.542   8.409   4.355 -0.4252 -0.0854  0.9129
 4616SOL    HW118695   0.476   8.413   4.286 -0.9523 -2.1194  1.2174
 4616SOL    HW218696   0.600   8.483   4.338 -0.8370 -0.2243 -1.4135
 4617SOL     OW18697   0.331   8.515   5.799 -0.2189  0.0606 -0.0949
 4617SOL    HW118698   0.269   8.516   5.726  0.0612 -0.2211 -0.3427
 4617SOL    HW218699   0.276   8.520   5.877 -0.4610  1.7645 -0.3373
 4618SOL     OW18700   2.882   8.626   4.712  0.5964  0.1548 -0.5149
 4618SOL    HW118701   2.930   8.551   4.747  0.7844  1.3413  1.9835
 4618SOL    HW218702   2.856   8.598   4.625  0.8632 -2.7253  0.2044
 4619SOL     OW18703   0.943   2.207   3.672 -0.1518  0.2618 -0.2117
 4619SOL    HW118704   0.849   2.222   3.673  0.0243  1.6350  1.6234
 4619SOL    HW218705   0.957   2.131   3.727 -0.2111 -0.2996 -0.9559
 4620SOL     OW18706   1.622   9.393   2.368 -0.1426  0.9703  0.0478
 4620SOL    HW118707   1.583   9.318   2.322 -0.2181  0.7454  0.4696
 4620SOL    HW218708   1.550   9.428   2.419 -0.4167  2.0607 -1.0446
 4621SOL     OW18709   2.434   7.622   1.901  0.5924 -0.3710 -0.2314
 4621SOL    HW118710   2.412   7.695   1.843  1.4497 -0.3910 -0.6009
 4621SOL    HW218711   2.398   7.545   1.858 -1.3588 -0.0704  0.7367
 4622SOL     OW18712   1.864   6.344   1.527 -0.3709 -0.3375  0.4016
 4622SOL    HW118713   1.896   6.322   1.615 -2.8478 -0.1261  1.4622
 4622SOL    HW218714   1.774   6.312   1.526 -0.6208  0.2759 -1.8465
 4623SOL     OW18715   7.752   8.909   2.150  0.3798 -0.1604 -0.0883
 4623SOL    HW118716   7.776   8.893   2.242  1.2023 -1.2428 -0.4630
 4623SOL    HW218717   7.784   8.997   2.132 -0.7903  0.5061  0.9688
 4624SOL     OW18718   0.102   7.654   4.781  0.3646  0.3460  0.0061
 4624SOL    HW118719   0.056   7.652   4.866 -0.8310  1.9481 -0.5558
 4624SOL    HW218720   0.105   7.562   4.754 -0.5974 -0.0339  1.0910
 4625SOL     OW18721   1.634   6.737   2.667 -0.3880 -0.0096  0.0769
 4625SOL    HW118722   1.650   6.778   2.582 -0.5120 -1.3191 -0.5893
 4625SOL    HW218723   1.680   6.654   2.663 -0.5004 -0.1437  1.2516
 4626SOL     OW18724   3.454   9.767   5.670  0.0187 -0.1742  0.4403
 4626SOL    HW118725   3.410   9.682   5.671 -1.4410  0.5019 -1.0418
 4626SOL    HW218726   3.540   9.750   5.709 -1.1345 -1.7819  2.5051
 4627SOL     OW18727   1.479   8.776   4.485 -0.2374  0.5305  0.6968
 4627SOL    HW118728   1.487   8.691   4.529  0.6446  0.6661  0.8221
 4627SOL    HW218729   1.568   8.812   4.488  0.7150 -0.7393 -3.7386
 4628SOL     OW18730   9.207   7.143   3.412  0.1438  0.3463 -0.1259
 4628SOL    HW118731   9.127   7.120   3.460  0.9535  0.4189  1.3311
 4628SOL    HW218732   9.275   7.146   3.480  1.6337 -0.9171 -1.4779
 4629SOL     OW18733   2.450   7.448   1.310  0.4032 -0.6388 -0.5749
 4629SOL    HW118734   2.545   7.446   1.321  0.8432  1.4410 -3.1350
 4629SOL    HW218735   2.436   7.494   1.228 -2.8045 -2.6537 -1.3339
 4630SOL     OW18736   1.513   6.046   2.661  0.4991 -0.7534  0.2698
 4630SOL    HW118737   1.595   6.022   2.705  0.4135 -1.4463  0.0642
 4630SOL    HW218738   1.445   6.007   2.715  0.4275 -2.3072 -0.8711
 4631SOL     OW18739   1.060   9.739   1.925  0.0527 -0.0592 -0.7499
 4631SOL    HW118740   1.013   9.664   1.960 -0.1506  0.3162 -0.2104
 4631SOL    HW218741   1.005   9.771   1.853 -0.3131  0.1200 -0.3951
 4632SOL     OW18742   1.576   6.791   3.520 -0.1496  0.4221 -0.4045
 4632SOL    HW118743   1.481   6.785   3.521 -0.1960  1.0782  0.4716
 4632SOL    HW218744   1.597   6.822   3.432 -0.7212 -0.0227 -0.7040
 4633SOL     OW18745   0.612   6.084   3.103 -0.1867 -0.1962 -0.1092
 4633SOL    HW118746   0.583   6.121   3.020 -0.3215  1.9845  0.8522
 4633SOL    HW218747   0.631   5.992   3.083  0.6074  0.4681 -2.7201
 4634SOL     OW18748   1.888   7.748   2.223 -0.3186  0.1702 -0.3989
 4634SOL    HW118749   1.901   7.777   2.132  0.4569 -1.1145 -0.7237
 4634SOL    HW218750   1.971   7.767   2.266 -0.8532  1.2288  0.1845
 4635SOL     OW18751   1.337   9.732   1.254 -0.1511  0.2171 -0.0038
 4635SOL    HW118752   1.255   9.738   1.205 -1.0807  1.4235  1.5716
 4635SOL    HW218753   1.311   9.696   1.339  0.7783  1.3687  0.8009
 4636SOL     OW18754   1.272   9.113   2.918 -0.2530  0.1370  0.2760
 4636SOL    HW118755   1.314   9.183   2.968 -0.2482  0.1052  0.3159
 4636SOL    HW218756   1.180   9.140   2.913  0.0503  1.0295 -1.1900
 4637SOL     OW18757   2.800   8.219   1.828  0.1371  0.4012 -0.1139
 4637SOL    HW118758   2.725   8.167   1.858  1.0464 -1.1518 -0.4435
 4637SOL    HW218759   2.761   8.284   1.770 -1.0835  0.3382  0.5875
 4638SOL     OW18760   9.704   8.000   3.750 -0.1043 -0.1678 -0.1007
 4638SOL    HW118761   9.624   7.992   3.803  0.1995 -0.5733  0.3070
 4638SOL    HW218762   9.737   8.088   3.770  0.6302 -0.7257  1.2992
 4639SOL     OW18763   0.934   8.669   3.977 -0.0157 -0.6859  0.1718
 4639SOL    HW118764   0.922   8.625   3.893  0.8550 -0.1523 -0.2401
 4639SOL    HW218765   0.862   8.732   3.982 -0.9033 -1.6913  0.4842
 4640SOL     OW18766   9.780   8.963   2.839 -0.3682 -0.2372 -0.4815
 4640SOL    HW118767   9.791   9.008   2.923  0.0922 -0.8259 -0.2101
 4640SOL    HW218768   9.794   8.870   2.861 -0.9469 -0.4674 -1.0820
 4641SOL     OW18769   7.937   0.915   2.542  0.6131 -0.4351 -0.7128
 4641SOL    HW118770   7.972   0.848   2.601  3.2733 -0.2859 -2.0031
 4641SOL    HW218771   7.997   0.989   2.551 -0.9760  0.9578 -1.0146
 4642SOL     OW18772   2.312   7.264   1.146 -0.1700  0.0191 -0.4552
 4642SOL    HW118773   2.383   7.315   1.184 -1.0754  1.1068 -0.1612
 4642SOL    HW218774   2.328   7.267   1.052 -0.4677  1.2781 -0.4817
 4643SOL     OW18775   8.481   0.183   2.454  0.0707 -0.2425 -0.0902
 4643SOL    HW118776   8.444   0.117   2.395 -0.3520  0.2815 -0.4161
 4643SOL    HW218777   8.552   0.223   2.404 -0.4173  0.3418 -0.3295
 4644SOL     OW18778   1.898   9.127   4.210  0.2073  0.5960 -0.1077
 4644SOL    HW118779   1.842   9.073   4.155  0.2632  2.2573 -1.9369
 4644SOL    HW218780   1.860   9.215   4.203  0.6374  1.0055  2.0104
 4645SOL     OW18781   9.690   7.985   1.794 -0.7182  0.3878 -1.0178
 4645SOL    HW118782   9.774   7.940   1.789 -0.9729 -0.0467 -1.5246
 4645SOL    HW218783   9.661   7.991   1.703 -0.3772  2.1996 -1.0407
 4646SOL     OW18784   9.789   8.862   3.344 -0.7675  0.1635 -0.3342
 4646SOL    HW118785   9.717   8.855   3.407  0.0942  0.2538  0.6976
 4646SOL    HW218786   9.856   8.912   3.391  0.6647 -1.3960 -0.6199
 4647SOL     OW18787   1.742   5.471   5.129 -0.2501 -0.1289 -0.0895
 4647SOL    HW118788   1.684   5.490   5.203  0.7037  0.1288  0.6191
 4647SOL    HW218789   1.754   5.555   5.085 -0.2149 -0.1262 -0.0752
 4648SOL     OW18790   2.221   9.016   2.585  0.1256 -0.0112  0.1927
 4648SOL    HW118791   2.180   8.931   2.600 -0.5595  0.5654  1.8788
 4648SOL    HW218792   2.147   9.076   2.574  0.5977  0.4354 -0.6070
 4649SOL     OW18793   2.574   8.429   2.633 -0.1724 -0.2688 -0.1236
 4649SOL    HW118794   2.513   8.369   2.675 -0.2846 -1.0079 -1.2818
 4649SOL    HW218795   2.528   8.513   2.630  0.2418  0.0820  2.1046
 4650SOL     OW18796   0.171   0.336   3.710 -0.0535  0.3492 -0.2662
 4650SOL    HW118797   0.208   0.273   3.772  0.1002  2.1075  1.5085
 4650SOL    HW218798   0.155   0.284   3.630  2.3460 -1.3850  0.2649
 4651SOL     OW18799   1.076   8.413   3.559 -0.6697  0.6668  0.1785
 4651SOL    HW118800   1.046   8.344   3.618 -0.3793  0.0047 -0.4247
 4651SOL    HW218801   1.169   8.394   3.547 -0.3836  1.6741  0.6705
 4652SOL     OW18802   2.768   7.947   3.461  0.1214 -0.1379 -0.0221
 4652SOL    HW118803   2.810   7.868   3.496 -0.1170 -0.2123  0.1016
 4652SOL    HW218804   2.674   7.932   3.474  0.0925  0.3353  0.3735
 4653SOL     OW18805   9.432   9.009   4.298  0.1120  0.5809  0.3187
 4653SOL    HW118806   9.362   9.067   4.270 -0.6847 -0.2035  0.6551
 4653SOL    HW218807   9.421   8.930   4.245 -0.3610 -0.2399  1.5890
 4654SOL     OW18808   2.239   9.124   8.606 -0.1438  0.3768 -0.5660
 4654SOL    HW118809   2.166   9.177   8.640  1.4090  1.1571  1.7520
 4654SOL    HW218810   2.206   9.034   8.609 -0.8677  0.6648  0.8904
 4655SOL     OW18811   8.215   9.435   5.224  0.4247  0.4893  0.6728
 4655SOL    HW118812   8.302   9.434   5.265  0.0944 -1.8446  1.4239
 4655SOL    HW218813   8.219   9.368   5.156 -0.1113  1.9726 -0.8939
 4656SOL     OW18814   0.377   9.184   2.328  0.1796  0.2551 -0.5041
 4656SOL    HW118815   0.340   9.096   2.333  0.0414  0.2969 -0.7292
 4656SOL    HW218816   0.315   9.232   2.272 -0.2699  0.7580  0.3992
 4657SOL     OW18817   0.550   7.798   1.061  0.0611 -0.4175 -0.0622
 4657SOL    HW118818   0.504   7.727   1.015  0.0576 -0.7157  0.3941
 4657SOL    HW218819   0.643   7.779   1.046  0.0785 -0.8673  0.5582
 4658SOL     OW18820   2.992   8.602   1.919 -0.2839 -0.1988 -0.1447
 4658SOL    HW118821   2.987   8.620   1.825  0.8900  0.0021 -0.1881
 4658SOL    HW218822   2.938   8.670   1.959  1.2644  1.3448 -0.5416
 4659SOL     OW18823   2.618   9.502   2.530  0.0429  0.5409 -0.0479
 4659SOL    HW118824   2.596   9.577   2.474 -0.6430  1.2541  1.1299
 4659SOL    HW218825   2.639   9.541   2.615  0.5313 -0.5526  0.3483
 4660SOL     OW18826   4.158   7.125   1.748 -0.3192 -0.3235  0.4677
 4660SOL    HW118827   4.094   7.073   1.796 -1.3614  0.4987  0.0026
 4660SOL    HW218828   4.135   7.216   1.768 -1.4435  0.1061 -2.3440
 4661SOL     OW18829   9.631   8.126   4.874 -0.1489  0.1943 -0.0954
 4661SOL    HW118830   9.648   8.033   4.859  0.4902 -0.0583  1.8917
 4661SOL    HW218831   9.716   8.169   4.859 -0.2827  0.3818 -0.3378
 4662SOL     OW18832   9.042   7.777   2.605  0.3746  0.2741 -0.0570
 4662SOL    HW118833   8.972   7.784   2.670  1.8379 -0.0317  1.6207
 4662SOL    HW218834   8.998   7.750   2.525 -1.4264  0.0661  0.9584
 4663SOL     OW18835   1.123   9.796   3.161 -0.5317  0.0905 -0.5002
 4663SOL    HW118836   1.040   9.749   3.153 -0.0700 -0.6106 -1.4531
 4663SOL    HW218837   1.171   9.750   3.230 -1.5773  1.5508  1.2900
 4664SOL     OW18838   9.615   9.514   1.776  0.1530  0.2071 -0.1090
 4664SOL    HW118839   9.565   9.594   1.758  0.5629  0.5727  0.3289
 4664SOL    HW218840   9.697   9.546   1.814  0.3962 -0.4182 -0.1083
 4665SOL     OW18841   3.565   7.548   3.872  0.7229 -0.0209 -0.0241
 4665SOL    HW118842   3.498   7.511   3.815 -0.0624  3.5441 -1.7125
 4665SOL    HW218843   3.648   7.511   3.840  0.0405 -0.1257 -1.7315
 4666SOL     OW18844   0.446   7.195   2.269  0.3698  0.2761 -0.4559
 4666SOL    HW118845   0.414   7.228   2.185  0.4111 -0.0556 -0.6038
 4666SOL    HW218846   0.534   7.162   2.250  0.4143  0.2794 -0.2615
 4667SOL     OW18847   3.138   7.276   3.153 -0.2765 -0.2724 -0.1078
 4667SOL    HW118848   3.111   7.211   3.217  0.4450  0.0422  0.5385
 4667SOL    HW218849   3.203   7.231   3.099 -0.1788 -0.2536 -0.0067
 4668SOL     OW18850   2.401   5.908   2.834  0.0887  0.0176 -0.0185
 4668SOL    HW118851   2.357   5.993   2.827 -0.1684 -0.0236  0.9136
 4668SOL    HW218852   2.493   5.927   2.817  0.3675  0.8669  2.0680
 4669SOL     OW18853   1.572   8.216   1.417  0.3497  0.4527 -0.4293
 4669SOL    HW118854   1.649   8.269   1.438  1.1637 -0.7083 -0.4107
 4669SOL    HW218855   1.562   8.223   1.322  0.6656  0.3488 -0.4687
 4670SOL     OW18856   1.456   8.584   2.053 -0.3586  0.1424 -0.3735
 4670SOL    HW118857   1.530   8.577   2.113 -1.1969  0.1270  0.7028
 4670SOL    HW218858   1.379   8.572   2.109 -1.1971  0.7226 -1.3658
 4671SOL     OW18859   2.530   0.705   3.056  0.1270  0.3148 -0.1786
 4671SOL    HW118860   2.459   0.763   3.085  0.8025  0.8642  0.3945
 4671SOL    HW218861   2.498   0.667   2.974 -1.3453 -0.3801  0.6739
 4672SOL     OW18862   0.963   9.392   1.076  0.2979  0.0814  0.3361
 4672SOL    HW118863   0.915   9.311   1.095 -0.5820  0.3176 -0.7918
 4672SOL    HW218864   1.011   9.411   1.157 -1.1297 -0.4256  1.3365
 4673SOL     OW18865   2.081   8.541   3.189 -0.4301  0.0219  0.3388
 4673SOL    HW118866   1.991   8.562   3.162 -0.3213 -0.5060 -0.4479
 4673SOL    HW218867   2.122   8.627   3.200 -0.5199  0.2708 -1.0721
 4674SOL     OW18868   2.007   9.527   2.775  0.0865 -0.6690  0.1537
 4674SOL    HW118869   2.031   9.619   2.764  1.2230 -1.1459 -1.8079
 4674SOL    HW218870   1.932   9.529   2.834  0.8994  1.4000  1.2252
 4675SOL     OW18871   1.855   8.553   2.755 -0.2592 -0.4765 -0.1864
 4675SOL    HW118872   1.787   8.593   2.809 -0.3024  1.0847 -1.3337
 4675SOL    HW218873   1.851   8.460   2.777 -1.2485 -0.0977  1.3957
 4676SOL     OW18874   0.896   8.061   1.428 -0.7037 -0.9790  0.4238
 4676SOL    HW118875   0.942   7.993   1.379 -1.1588 -1.0827  0.1379
 4676SOL    HW218876   0.837   8.101   1.365  0.8945  0.9822  0.0746
 4677SOL     OW18877   0.649   8.798   3.801  0.4914  0.2204 -0.1269
 4677SOL    HW118878   0.625   8.793   3.893  0.9141 -0.3438 -0.0483
 4677SOL    HW218879   0.583   8.745   3.756  0.5232  0.1661 -0.1090
 4678SOL     OW18880   1.294   7.091   2.411 -0.2175 -0.3382  0.2406
 4678SOL    HW118881   1.309   7.065   2.320  0.2215  2.6753 -0.6749
 4678SOL    HW218882   1.366   7.051   2.459 -1.1893 -3.0746 -0.4277
 4679SOL     OW18883   8.743   8.604   2.676 -0.0903  0.3211 -0.0619
 4679SOL    HW118884   8.796   8.569   2.748  1.1955  0.2345 -1.0313
 4679SOL    HW218885   8.806   8.641   2.615 -1.1576  0.2784 -1.2285
 4680SOL     OW18886   1.606   8.267   2.277 -0.4325 -0.4679  0.2448
 4680SOL    HW118887   1.642   8.354   2.256 -1.8978 -0.0542 -0.7021
 4680SOL    HW218888   1.539   8.253   2.211 -0.1765 -2.3826  0.3462
 4681SOL     OW18889   8.888   9.248   1.797  0.6106  0.2745  0.0311
 4681SOL    HW118890   8.933   9.331   1.781  0.2167  0.2952 -1.0618
 4681SOL    HW218891   8.802   9.274   1.830  1.1902  0.2426  1.6605
 4682SOL     OW18892   1.744   9.069   3.119 -0.4964 -0.0184 -0.2425
 4682SOL    HW118893   1.668   9.096   3.171 -0.4155  0.6579 -0.4620
 4682SOL    HW218894   1.819   9.094   3.172 -0.4206 -0.1898 -0.2679
 4683SOL     OW18895   9.176   6.961   4.387 -0.1087  0.3620 -0.1169
 4683SOL    HW118896   9.256   7.010   4.411  0.3787 -0.2482 -0.4630
 4683SOL    HW218897   9.167   6.976   4.293  1.0604 -1.6400 -0.5909
 4684SOL     OW18898   0.777   1.959   2.378  0.5583  0.0097 -0.2299
 4684SOL    HW118899   0.818   1.923   2.457 -1.6177 -1.7596  0.2022
 4684SOL    HW218900   0.833   1.932   2.306  0.7952 -1.3409  0.4344
 4685SOL     OW18901   3.579   8.342   2.828 -0.0199 -0.1561 -0.2058
 4685SOL    HW118902   3.597   8.378   2.741  4.6204 -0.8668  0.1801
 4685SOL    HW218903   3.556   8.418   2.881  2.2485  1.2247 -1.0268
 4686SOL     OW18904   2.638   6.484   0.703  0.1297  0.0946 -0.1879
 4686SOL    HW118905   2.688   6.543   0.759 -1.1685  0.0146  1.1282
 4686SOL    HW218906   2.547   6.494   0.733 -0.7136  0.4147 -2.6273
 4687SOL     OW18907   0.344   9.382   5.426  0.0581  0.1723 -0.2715
 4687SOL    HW118908   0.413   9.449   5.427  0.4783 -0.2494  1.1238
 4687SOL    HW218909   0.386   9.305   5.387  0.1883  0.1124 -0.0165
 4688SOL     OW18910   2.459   8.678   1.469  0.2786 -0.9802  0.2251
 4688SOL    HW118911   2.404   8.627   1.410 -0.7392  2.2508 -1.8845
 4688SOL    HW218912   2.548   8.651   1.448 -0.1889 -1.5095 -1.1875
 4689SOL     OW18913   0.285   8.300   2.640 -0.2999  0.1322  0.2858
 4689SOL    HW118914   0.344   8.225   2.633  1.1461  1.1438  1.0821
 4689SOL    HW218915   0.197   8.263   2.629  0.2642 -1.8554  1.9473
 4690SOL     OW18916   1.946   8.653   1.704 -0.7317 -0.3231 -0.3213
 4690SOL    HW118917   2.012   8.675   1.769 -0.2903  0.5416 -1.0397
 4690SOL    HW218918   1.973   8.700   1.625 -2.7893  0.9490 -0.3418
 4691SOL     OW18919   9.191   6.518   2.740 -0.2962 -0.8825  0.1512
 4691SOL    HW118920   9.134   6.537   2.666 -2.1751  1.1540  1.9541
 4691SOL    HW218921   9.252   6.592   2.743  0.3259 -1.3957  0.1123
 4692SOL     OW18922   1.661   8.046   2.411  0.5439  0.5745  0.1345
 4692SOL    HW118923   1.583   7.994   2.390  0.4329 -0.0744  1.9702
 4692SOL    HW218924   1.646   8.130   2.369 -1.5126  0.7148  1.0367
 4693SOL     OW18925   1.278   8.354   3.858  0.0441  0.4752 -0.3466
 4693SOL    HW118926   1.225   8.364   3.937  0.1504 -3.5177  0.4485
 4693SOL    HW218927   1.248   8.272   3.820  2.4112  0.5069 -2.5277
 4694SOL     OW18928   0.642   7.998   3.447  0.2823 -0.1933  0.8269
 4694SOL    HW118929   0.561   7.995   3.497 -0.3098 -1.7546 -0.1329
 4694SOL    HW218930   0.704   8.044   3.503 -0.4299 -1.5943  2.8594
 4695SOL     OW18931   1.873   7.681   4.822  0.2314 -0.0712  0.4477
 4695SOL    HW118932   1.943   7.700   4.884 -1.3421  1.1940  1.9137
 4695SOL    HW218933   1.851   7.766   4.784  0.6222 -0.7077 -1.3133
 4696SOL     OW18934   1.177   9.575   2.729  0.2498 -0.4622  0.2296
 4696SOL    HW118935   1.259   9.535   2.755 -0.0152 -0.6556  0.7921
 4696SOL    HW218936   1.168   9.650   2.788 -0.6860 -1.2913  1.1926
 4697SOL     OW18937   2.933   9.856   1.320 -0.2819  0.7042 -0.2199
 4697SOL    HW118938   2.872   9.837   1.249  0.2503 -1.4934 -0.1904
 4697SOL    HW218939   2.877   9.878   1.394 -0.8273  3.8825 -1.4421
 4698SOL     OW18940   0.570   8.613   3.086  0.1039  0.1003  0.7588
 4698SOL    HW118941   0.596   8.543   3.146  0.7416  1.8248  2.5769
 4698SOL    HW218942   0.648   8.666   3.075 -0.4248  0.6841 -0.4294
 4699SOL     OW18943   1.383   6.827   2.519  0.2086  0.4388  0.1899
 4699SOL    HW118944   1.443   6.838   2.593  1.0732 -1.7155 -0.1186
 4699SOL    HW218945   1.296   6.843   2.556  0.7432  0.8092  1.3230
 4700SOL     OW18946   8.775   5.688   3.913  0.0380 -0.7928  0.3328
 4700SOL    HW118947   8.804   5.780   3.909 -2.1362 -0.0088  1.1944
 4700SOL    HW218948   8.825   5.651   3.986  1.6744 -0.6383 -0.6440
 4701SOL     OW18949   0.352   8.684   5.374  0.2923 -0.9074 -0.1079
 4701SOL    HW118950   0.421   8.625   5.344  1.3051 -0.2780  0.8935
 4701SOL    HW218951   0.397   8.766   5.392 -1.1432  0.3122 -1.7749
 4702SOL     OW18952   0.601   8.857   5.029 -0.5683 -0.4681 -0.4673
 4702SOL    HW118953   0.531   8.919   5.048  0.9977  0.9729  0.9023
 4702SOL    HW218954   0.664   8.869   5.100  0.2816 -2.9543 -0.6957
 4703SOL     OW18955   0.389   8.053   3.696  0.6168  0.0337  0.7667
 4703SOL    HW118956   0.303   8.065   3.736  0.3359 -1.9150  0.8636
 4703SOL    HW218957   0.401   8.129   3.639 -1.2488  0.2380  0.6075
 4704SOL     OW18958   1.704   5.274   1.371 -0.2730 -0.0899  0.1223
 4704SOL    HW118959   1.706   5.226   1.454  1.3822  0.5486  0.5049
 4704SOL    HW218960   1.624   5.326   1.375 -1.9828 -2.5456 -0.2011
 4705SOL     OW18961   0.866   5.567   1.388  0.1517  0.0513  0.1336
 4705SOL    HW118962   0.821   5.611   1.316  1.0660 -0.1855 -0.6107
 4705SOL    HW218963   0.910   5.638   1.436  0.2037  0.1316 -0.0312
 4706SOL     OW18964   0.932   7.659   2.969  0.2410  0.1263  0.0051
 4706SOL    HW118965   0.854   7.685   2.920 -0.6252 -1.2193  0.6047
 4706SOL    HW218966   1.000   7.648   2.902 -1.0274 -2.0825 -1.0112
 4707SOL     OW18967   0.817   0.059   4.639 -0.6018 -0.2883  0.0236
 4707SOL    HW118968   0.816   0.116   4.562 -1.2562 -1.2443 -0.6946
 4707SOL    HW218969   0.742   0.088   4.691 -0.7316 -0.2746 -0.1722
 4708SOL     OW18970   1.836   8.885   3.985  0.2860 -0.3068  0.4906
 4708SOL    HW118971   1.748   8.887   3.949  0.2539 -0.3961  0.5646
 4708SOL    HW218972   1.888   8.937   3.924 -0.2743  1.7537  1.6509
 4709SOL     OW18973   3.639   5.612   4.327  0.2491  0.1986  0.3692
 4709SOL    HW118974   3.592   5.685   4.369 -0.3110 -0.4926  0.9681
 4709SOL    HW218975   3.617   5.536   4.381 -0.1675 -0.6494 -0.9556
 4710SOL     OW18976   0.572   9.400   3.621  0.7682 -0.2331  0.1191
 4710SOL    HW118977   0.511   9.474   3.623  2.6792  1.4355 -0.5134
 4710SOL    HW218978   0.516   9.323   3.613 -1.2273  1.2612 -1.1063
 4711SOL     OW18979   8.569   9.010   2.084  0.3167 -0.5738 -0.3340
 4711SOL    HW118980   8.522   9.093   2.086  1.1388 -0.0996  0.1987
 4711SOL    HW218981   8.531   8.962   2.011 -0.9119 -0.1747  0.0189
 4712SOL     OW18982   6.899   8.925   2.317  0.3487 -0.2482 -0.0526
 4712SOL    HW118983   6.957   9.000   2.335  0.0063  0.3164 -1.2436
 4712SOL    HW218984   6.811   8.962   2.314  0.1938 -0.6591 -0.8581
 4713SOL     OW18985   0.722   8.398   3.610 -0.3696  0.2970 -0.4773
 4713SOL    HW118986   0.773   8.317   3.618  0.1906  0.6511 -0.4133
 4713SOL    HW218987   0.661   8.396   3.684  0.8499  0.7766  0.5709
 4714SOL     OW18988   0.906   9.858   4.242  0.3958 -0.1217  0.2003
 4714SOL    HW118989   0.902   9.950   4.271 -0.0352 -0.0878  0.0359
 4714SOL    HW218990   0.815   9.835   4.223  0.6702 -0.1158 -1.2151
 4715SOL     OW18991   2.324   5.113   3.199  0.5305  0.2643 -0.0152
 4715SOL    HW118992   2.419   5.108   3.185  0.8675 -1.7731  2.2324
 4715SOL    HW218993   2.286   5.107   3.112  2.4379 -0.3267 -0.8608
 4716SOL     OW18994   0.215   9.859   1.810 -0.7396 -0.1207  0.6064
 4716SOL    HW118995   0.261   9.777   1.791 -1.6396 -0.6648  0.7452
 4716SOL    HW218996   0.178   9.887   1.726 -1.0944 -0.2727  0.7099
 4717SOL     OW18997   1.604   8.860   1.729  0.2727 -0.2529 -0.0356
 4717SOL    HW118998   1.585   8.863   1.635  0.8893  0.6298 -0.1402
 4717SOL    HW218999   1.654   8.940   1.747  2.1910 -1.4948  0.5886
 4718SOL     OW19000   8.962   7.528   1.643 -0.4549  0.0939 -0.4529
 4718SOL    HW119001   8.974   7.548   1.736 -0.5789 -0.0719 -0.3999
 4718SOL    HW219002   8.952   7.432   1.640  1.7873 -0.1698 -0.8906
 4719SOL     OW19003   2.658   8.828   3.088  0.5451  0.2332 -0.6311
 4719SOL    HW119004   2.695   8.822   3.001  0.3688 -0.3808 -0.6678
 4719SOL    HW219005   2.568   8.859   3.074 -0.5339 -2.7561 -0.9546
 4720SOL     OW19006   0.388   9.609   3.638 -0.9322  0.4822  0.0884
 4720SOL    HW119007   0.364   9.602   3.546  2.1797 -1.7163 -0.7330
 4720SOL    HW219008   0.428   9.695   3.647 -2.2747  1.1632 -0.2930
 4721SOL     OW19009   0.482   9.446   2.471 -0.7008  0.3284  0.2152
 4721SOL    HW119010   0.417   9.508   2.439 -0.7304 -0.9517 -2.4982
 4721SOL    HW219011   0.506   9.479   2.558 -2.6761  2.5473  0.0271
 4722SOL     OW19012   0.458   0.707   4.369 -0.0360  0.1081 -0.4313
 4722SOL    HW119013   0.364   0.698   4.355  0.1300 -0.9896 -0.9579
 4722SOL    HW219014   0.494   0.731   4.284  0.2024  0.2247 -0.3002
 4723SOL     OW19015   0.714   0.447   3.073 -0.1104  0.0237  0.1507
 4723SOL    HW119016   0.771   0.515   3.109 -2.0320  0.9867  1.5576
 4723SOL    HW219017   0.633   0.454   3.124 -1.8449 -0.6923 -2.3104
 4724SOL     OW19018   0.148   0.543   3.394  0.0434  0.0662 -0.1855
 4724SOL    HW119019   0.109   0.460   3.421  1.9276 -0.5836  0.7228
 4724SOL    HW219020   0.223   0.518   3.340  0.3013  1.2027 -0.3862
 4725SOL     OW19021   1.008   8.421   0.827 -0.4623 -0.1222 -0.2369
 4725SOL    HW119022   1.059   8.463   0.757 -0.3738  1.0705  0.5273
 4725SOL    HW219023   1.074   8.376   0.880  0.0013  2.0960  1.2302
 4726SOL     OW19024   1.916   9.547   3.243 -0.5364 -0.3111 -0.4387
 4726SOL    HW119025   1.826   9.575   3.259 -0.7094 -0.8461 -0.4565
 4726SOL    HW219026   1.969   9.606   3.297 -0.6956  1.6611 -2.2997
 4727SOL     OW19027   1.137   8.595   0.632  0.2534  0.5737 -0.0986
 4727SOL    HW119028   1.190   8.673   0.644 -0.2500  0.6878  1.7161
 4727SOL    HW219029   1.177   8.549   0.558  1.3808  1.8546 -0.3156
 4728SOL     OW19030   0.403   9.158   1.624  0.6132 -0.5621 -0.1840
 4728SOL    HW119031   0.488   9.173   1.583  0.7622 -1.3155 -0.1472
 4728SOL    HW219032   0.343   9.145   1.551  0.5278 -0.0718 -0.2085
 4729SOL     OW19033   1.017   9.275   3.542 -0.1284 -0.2358 -0.2898
 4729SOL    HW119034   0.929   9.249   3.568  0.2702 -2.3883 -0.9075
 4729SOL    HW219035   1.005   9.314   3.455 -0.4976 -0.3987 -0.3158
 4730SOL     OW19036   0.908   7.554   1.435 -0.2776 -0.3243  0.4169
 4730SOL    HW119037   0.973   7.493   1.470  0.3464  0.5274  0.7951
 4730SOL    HW219038   0.898   7.529   1.343  0.2778 -0.7405  0.4630
 4731SOL     OW19039   1.864   8.432   1.111 -0.3566 -0.0090  0.2646
 4731SOL    HW119040   1.889   8.518   1.146  1.7126 -1.1874  1.8991
 4731SOL    HW219041   1.781   8.448   1.066 -0.7534  2.5709  1.7100
 4732SOL     OW19042   1.694   8.513   2.228  0.2165 -1.1411  0.4855
 4732SOL    HW119043   1.719   8.602   2.252  1.6930 -1.3544 -0.1256
 4732SOL    HW219044   1.771   8.478   2.182  0.0119 -3.0115  1.4610
 4733SOL     OW19045   1.174   0.973   3.648 -0.2782 -0.2520 -0.3126
 4733SOL    HW119046   1.154   0.887   3.685 -0.5941  0.4406  1.1697
 4733SOL    HW219047   1.091   1.021   3.652  0.3275  0.7617  0.6873
 4734SOL     OW19048   3.002   7.651   2.729 -0.4303  0.5723 -0.4314
 4734SOL    HW119049   2.952   7.572   2.750  0.3457  0.1808 -0.0451
 4734SOL    HW219050   3.000   7.656   2.633 -0.2872 -0.0396 -0.4672
 4735SOL     OW19051   2.882   6.099   3.333 -0.3485 -0.1330 -0.5046
 4735SOL    HW119052   2.850   6.091   3.243 -2.1221  0.6666  0.0059
 4735SOL    HW219053   2.864   6.014   3.373 -2.0906  0.3286 -0.1990
 4736SOL     OW19054   3.689   7.621   5.341 -0.0375 -0.1984 -0.4447
 4736SOL    HW119055   3.692   7.694   5.403  1.1161 -2.3427  2.2850
 4736SOL    HW219056   3.596   7.610   5.322 -0.2457  1.8378 -0.8064
 4737SOL     OW19057   2.337   6.874   0.657 -0.6425 -0.3936  0.6050
 4737SOL    HW119058   2.369   6.950   0.705 -1.3045  1.1530 -1.2708
 4737SOL    HW219059   2.395   6.866   0.581 -2.0014 -0.2542 -0.4907
 4738SOL     OW19060   2.144   7.373   1.734 -0.5347  0.0523  0.0243
 4738SOL    HW119061   2.234   7.385   1.704 -0.7098  0.6690 -0.2828
 4738SOL    HW219062   2.127   7.280   1.723 -0.6045  0.2449 -1.9085
 4739SOL     OW19063   0.419   4.512   1.926  0.2198  0.2777  0.7908
 4739SOL    HW119064   0.414   4.608   1.928  0.4471  0.2858  1.1926
 4739SOL    HW219065   0.332   4.483   1.953 -0.6221  0.3454 -1.6341
 4740SOL     OW19066   0.812   0.087   9.038 -0.0769 -0.8495  0.4578
 4740SOL    HW119067   0.796   0.052   8.951 -0.5973  0.6776 -0.0957
 4740SOL    HW219068   0.890   0.040   9.069  0.3249 -1.1639 -0.9680
 4741SOL     OW19069   0.623   9.040   3.516  0.6205  0.0914  0.8114
 4741SOL    HW119070   0.604   9.124   3.473 -0.3556 -0.7043 -0.3644
 4741SOL    HW219071   0.657   8.984   3.447  2.1669 -0.2410  1.7749
 4742SOL     OW19072   2.527   7.133   2.799  0.0560  0.0060  0.2333
 4742SOL    HW119073   2.436   7.160   2.789 -0.1791 -1.5295 -3.0190
 4742SOL    HW219074   2.523   7.060   2.861 -0.8277  0.1987  0.4282
 4743SOL     OW19075   0.699   8.619   1.287 -0.6708 -0.0323 -0.2401
 4743SOL    HW119076   0.785   8.576   1.289 -0.0559  1.1797  0.2890
 4743SOL    HW219077   0.675   8.629   1.379 -1.3576 -0.3041 -0.3857
 4744SOL     OW19078   0.006   8.167   2.239 -0.5983 -0.7471 -0.3754
 4744SOL    HW119079  -0.088   8.171   2.258 -0.6519 -0.5035 -0.6742
 4744SOL    HW219080   0.042   8.111   2.307 -1.1982 -2.1068 -1.1431
 4745SOL     OW19081   2.903   8.120   4.923 -0.2873  0.8773 -0.1977
 4745SOL    HW119082   2.956   8.043   4.944  0.3830  1.5458  0.6029
 4745SOL    HW219083   2.918   8.180   4.995 -1.1648  1.5880 -0.5904
 4746SOL     OW19084   2.538   8.504   4.711  0.4702 -0.5684 -0.0998
 4746SOL    HW119085   2.531   8.526   4.804 -2.4396 -2.1813  0.1892
 4746SOL    HW219086   2.465   8.551   4.671  1.2826 -0.4418 -1.4637
 4747SOL     OW19087   3.444   9.060   1.143  0.5381  0.6595  0.5091
 4747SOL    HW119088   3.395   9.017   1.213  0.4534 -0.8954 -0.4362
 4747SOL    HW219089   3.391   9.134   1.117 -0.8357 -0.3890  0.2108
 4748SOL     OW19090   1.265   8.087   2.106  0.5284  0.2292 -0.3160
 4748SOL    HW119091   1.239   8.028   2.035 -0.3045  0.0683  0.1076
 4748SOL    HW219092   1.182   8.117   2.144  0.9497  1.1881 -0.1251
 4749SOL     OW19093   1.441   7.649   2.268  0.0439  0.1533 -0.0390
 4749SOL    HW119094   1.463   7.711   2.338  0.8612 -0.6930  0.4799
 4749SOL    HW219095   1.504   7.668   2.198  1.0012 -0.7625  0.5420
 4750SOL     OW19096   9.456   7.065   4.226 -0.1858  0.1030 -0.5913
 4750SOL    HW119097   9.517   7.002   4.264  0.3940  0.1060 -1.4907
 4750SOL    HW219098   9.477   7.148   4.269 -0.8940 -0.2838  0.5314
 4751SOL     OW19099   0.413   7.445   0.435  0.4513  0.5888 -0.2979
 4751SOL    HW119100   0.455   7.398   0.363  0.3342  2.4055 -1.6324
 4751SOL    HW219101   0.485   7.489   0.480  0.3179  1.3575 -0.8022
 4752SOL     OW19102   9.579   8.212   4.131 -0.4242 -0.1110  0.3081
 4752SOL    HW119103   9.639   8.278   4.096  0.5243 -0.5764  1.0133
 4752SOL    HW219104   9.545   8.167   4.054 -1.3329  1.3846 -0.2108
 4753SOL     OW19105   2.156   9.236   3.906  0.1267 -0.0061  0.2399
 4753SOL    HW119106   2.167   9.318   3.858  2.7669 -0.2765  0.2145
 4753SOL    HW219107   2.185   9.256   3.995  0.7883 -0.8855  0.2324
 4754SOL     OW19108   0.944   6.949   3.660  0.4444  0.4845 -0.2078
 4754SOL    HW119109   0.984   6.885   3.718  1.4300  0.8439 -0.4750
 4754SOL    HW219110   0.901   6.896   3.592  0.3039  0.0936  0.1797
 4755SOL     OW19111   1.402   7.651   2.722 -0.2699  0.2468 -0.1710
 4755SOL    HW119112   1.433   7.588   2.657 -1.1615 -0.6941  0.2918
 4755SOL    HW219113   1.473   7.715   2.729  0.4347 -0.4124 -1.0317
 4756SOL     OW19114   4.188   9.094   3.574  0.8420  0.2736  0.0254
 4756SOL    HW119115   4.200   9.171   3.518  0.4898  1.3509  1.3598
 4756SOL    HW219116   4.161   9.025   3.514  2.5877  0.7814 -1.4307
 4757SOL     OW19117   0.317   9.513   1.906 -0.2752  0.6683 -0.1959
 4757SOL    HW119118   0.352   9.576   1.968  0.5492 -0.7948  0.8953
 4757SOL    HW219119   0.234   9.484   1.943  0.8939 -1.2900  1.0795
 4758SOL     OW19120   1.241   7.520   2.156  0.4979 -0.2243 -0.7354
 4758SOL    HW119121   1.299   7.553   2.224  1.8883 -0.6324 -1.6895
 4758SOL    HW219122   1.177   7.590   2.142 -0.4606 -0.5129  1.6554
 4759SOL     OW19123   0.721   7.888   1.799  0.4076 -0.1260  0.8545
 4759SOL    HW119124   0.692   7.945   1.728  1.3758 -0.2540  0.3516
 4759SOL    HW219125   0.643   7.837   1.821 -0.2858  0.9057  0.8574
 4760SOL     OW19126   2.565   8.127   1.623 -0.6476 -0.9551 -0.1650
 4760SOL    HW119127   2.512   8.199   1.588 -0.8466 -0.6918  0.6591
 4760SOL    HW219128   2.649   8.134   1.577 -0.4408  0.2049  0.3473
 4761SOL     OW19129   9.759   0.843   3.767 -0.2084  0.2991 -0.6854
 4761SOL    HW119130   9.811   0.792   3.705 -0.2253 -0.1532 -0.3286
 4761SOL    HW219131   9.669   0.814   3.753 -0.3418  0.8888 -1.1128
 4762SOL     OW19132   1.390   7.202   3.140  0.7654 -0.0392 -0.6404
 4762SOL    HW119133   1.459   7.137   3.153  2.0725  1.2157 -1.0242
 4762SOL    HW219134   1.359   7.223   3.228  0.2798 -1.1917 -0.5150
 4763SOL     OW19135   0.491   8.134   2.613 -0.1454 -0.0483  0.6527
 4763SOL    HW119136   0.545   8.207   2.644  0.3580 -0.6646  1.2769
 4763SOL    HW219137   0.544   8.092   2.545 -0.4552  0.1923  0.2590
 4764SOL     OW19138   1.849   8.908   3.399 -0.9007  0.1076 -0.5404
 4764SOL    HW119139   1.787   8.980   3.411 -0.9117  0.3027 -1.6352
 4764SOL    HW219140   1.815   8.860   3.324 -1.8141 -2.0634  1.1550
 4765SOL     OW19141   0.315   7.177   0.960 -0.0087  0.5001  0.3795
 4765SOL    HW119142   0.321   7.085   0.933 -0.1045  0.6972 -0.3231
 4765SOL    HW219143   0.346   7.177   1.051  0.4364 -0.1524  0.2355
 4766SOL     OW19144   0.252   7.372   4.893  0.4367  0.8768 -0.3197
 4766SOL    HW119145   0.241   7.306   4.960  0.4567  0.9246 -0.2693
 4766SOL    HW219146   0.335   7.415   4.914  0.3628  1.0008 -0.2810
 4767SOL     OW19147   1.469   6.633   3.779  0.5204 -0.4303  0.1242
 4767SOL    HW119148   1.395   6.676   3.736  2.3376  0.4169 -2.4159
 4767SOL    HW219149   1.534   6.703   3.790  2.0374 -1.6846 -0.4048
 4768SOL     OW19150   1.606   8.143   3.552 -0.5183 -0.0504  0.5288
 4768SOL    HW119151   1.645   8.162   3.467 -4.4954 -1.9701 -2.0517
 4768SOL    HW219152   1.568   8.226   3.580  1.2388  0.7137  0.7327
 4769SOL     OW19153   1.133   8.081   3.146 -0.4290 -0.2834 -0.0967
 4769SOL    HW119154   1.099   8.134   3.074  0.8138  0.3033 -0.2748
 4769SOL    HW219155   1.089   8.115   3.224  3.1869  3.9103  0.4546
 4770SOL     OW19156   0.422   9.372   3.342 -0.0700 -0.4842 -0.1023
 4770SOL    HW119157   0.382   9.341   3.261  1.1736  1.2067 -1.4532
 4770SOL    HW219158   0.363   9.342   3.412 -2.7402  0.3892 -1.8197
 4771SOL     OW19159   1.243   8.513   4.733 -0.4672 -0.6952  0.6841
 4771SOL    HW119160   1.284   8.535   4.817  0.1517 -1.3720  0.5748
 4771SOL    HW219161   1.317   8.495   4.674 -0.8613  0.8999 -0.3472
 4772SOL     OW19162   3.053   7.973   4.141  0.4124  0.0460 -0.2567
 4772SOL    HW119163   2.972   7.928   4.116  1.6951 -2.8133  0.3889
 4772SOL    HW219164   3.104   7.976   4.060 -0.0353  1.3000 -0.5201
 4773SOL     OW19165   9.238   8.284   4.560 -0.3312  0.4839  0.3639
 4773SOL    HW119166   9.301   8.356   4.556 -0.2501  0.4790  1.3341
 4773SOL    HW219167   9.259   8.229   4.485  2.5182 -0.8790  1.9790
 4774SOL     OW19168   1.354   8.431   2.597 -0.2141 -0.1542  0.3577
 4774SOL    HW119169   1.391   8.353   2.639 -0.3673  0.0025  0.7934
 4774SOL    HW219170   1.358   8.413   2.503  1.0279 -0.1174  0.3823
 4775SOL     OW19171   3.152   8.943   0.270 -0.6609  0.0485  0.1589
 4775SOL    HW119172   3.083   9.009   0.263 -0.5742  0.2024  0.6543
 4775SOL    HW219173   3.108   8.866   0.308 -0.7692 -0.1935 -0.4507
 4776SOL     OW19174   2.664   7.798   9.794 -0.2303 -0.3583 -0.5477
 4776SOL    HW119175   2.644   7.891   9.802 -1.1219 -0.5218 -0.7143
 4776SOL    HW219176   2.612   7.757   9.863 -0.8784 -0.8599 -1.3165
 4777SOL     OW19177   9.348   7.200   3.192 -0.4426 -0.1938  0.3112
 4777SOL    HW119178   9.300   7.168   3.269 -1.9078  1.7863  0.3154
 4777SOL    HW219179   9.438   7.210   3.222 -0.2509 -2.6196  0.7470
 4778SOL     OW19180   1.881   6.476   0.930  0.5783 -0.0982  0.3400
 4778SOL    HW119181   1.843   6.525   1.004  1.1891  0.2770  0.4185
 4778SOL    HW219182   1.806   6.450   0.877  0.2138  0.6861  0.4516
 4779SOL     OW19183   1.321   7.891   3.101 -0.5219 -0.3100  0.5597
 4779SOL    HW119184   1.300   7.808   3.145  1.7873 -0.6981  1.0627
 4779SOL    HW219185   1.243   7.945   3.113 -1.6535 -1.9988  1.2180
 4780SOL     OW19186   0.174   0.021   2.443 -0.0301  0.2822 -0.3085
 4780SOL    HW119187   0.190   0.081   2.515 -1.0225  0.6429 -0.3706
 4780SOL    HW219188   0.259   0.012   2.400  1.1438 -1.6879  2.1715
 4781SOL     OW19189   0.757   7.725   5.388  0.1774 -0.1380  0.7809
 4781SOL    HW119190   0.792   7.656   5.332  2.5416 -0.3078  2.3213
 4781SOL    HW219191   0.711   7.678   5.458 -0.2352 -0.0536  0.5659
 4782SOL     OW19192   2.055   8.834   6.444  0.0085  0.0234 -0.3960
 4782SOL    HW119193   2.058   8.921   6.484 -0.5199  0.5189 -1.3962
 4782SOL    HW219194   1.961   8.813   6.441  0.0928 -0.3103 -0.7178
 4783SOL     OW19195   2.094   9.692   2.003 -0.0253 -0.1527  0.2278
 4783SOL    HW119196   2.114   9.608   1.963 -0.4865  0.7389 -2.0992
 4783SOL    HW219197   2.000   9.688   2.021 -0.5515  0.5640 -1.9833
 4784SOL     OW19198   0.079   7.982   4.833  0.3459 -0.3632  0.2292
 4784SOL    HW119199   0.102   7.943   4.917  2.1646 -0.7621 -0.4075
 4784SOL    HW219200   0.116   8.070   4.837 -1.4544  0.4223  0.6394
 4785SOL     OW19201   2.044   6.399   1.991  0.3039  0.2785  0.2198
 4785SOL    HW119202   1.962   6.442   1.966 -1.1942 -2.1093  0.7396
 4785SOL    HW219203   2.045   6.403   2.087  0.1952 -0.7011  0.2705
 4786SOL     OW19204   0.007   9.330   6.053  0.5872  0.1836  0.2931
 4786SOL    HW119205   0.076   9.265   6.067  1.3348  0.8128 -0.3648
 4786SOL    HW219206  -0.040   9.335   6.136  1.1809 -0.4281  0.6708
 4787SOL     OW19207   1.708   9.617   7.286  0.2728  0.1309 -0.1484
 4787SOL    HW119208   1.731   9.544   7.344  0.7093 -0.5900 -1.2015
 4787SOL    HW219209   1.788   9.633   7.235 -1.0416 -1.5503 -2.9726
 4788SOL     OW19210   0.592   9.189   2.578 -0.2571 -0.1758 -0.9160
 4788SOL    HW119211   0.659   9.229   2.634  0.2670 -0.9225 -0.9799
 4788SOL    HW219212   0.513   9.187   2.632 -0.2358  0.7161 -0.8375
 4789SOL     OW19213   1.694   7.597   5.305 -0.6849 -0.5299  0.0379
 4789SOL    HW119214   1.627   7.530   5.293  0.2558 -1.3089 -1.1865
 4789SOL    HW219215   1.773   7.560   5.264 -0.2035  1.4224 -0.9676
 4790SOL     OW19216   8.162   7.596   5.219  0.0738 -0.0892  0.3147
 4790SOL    HW119217   8.197   7.556   5.139 -1.3727  1.8298 -1.4098
 4790SOL    HW219218   8.239   7.612   5.273  1.2900 -0.2707 -1.2682
 4791SOL     OW19219   7.822   6.499   6.211 -0.5590  0.2650  0.4178
 4791SOL    HW119220   7.735   6.496   6.250 -1.0824  2.1103 -0.4842
 4791SOL    HW219221   7.852   6.589   6.225 -0.2733  0.6947 -2.2792
 4792SOL     OW19222   2.299   9.568   4.613  0.0932 -0.0503  0.0962
 4792SOL    HW119223   2.253   9.499   4.660  0.1743  0.7042  1.3502
 4792SOL    HW219224   2.236   9.640   4.608  0.6098  0.4469  0.4870
 4793SOL     OW19225   1.453   9.466   6.407  0.1243  0.1011 -0.5765
 4793SOL    HW119226   1.360   9.445   6.414  0.2916 -0.8502 -1.0577
 4793SOL    HW219227   1.468   9.531   6.476 -0.9240  0.3799 -0.6008
 4794SOL     OW19228   1.656   0.867   4.672 -0.2769  0.4392 -0.5218
 4794SOL    HW119229   1.581   0.814   4.647 -0.1562 -0.9540  1.8769
 4794SOL    HW219230   1.628   0.914   4.750  0.8332  1.1827 -0.5436
 4795SOL     OW19231   8.544   7.993   5.445 -1.1645 -0.0897 -0.4514
 4795SOL    HW119232   8.458   7.952   5.451 -0.2633 -2.1093 -0.5611
 4795SOL    HW219233   8.570   8.008   5.536 -1.1816 -0.4719 -0.3834
 4796SOL     OW19234   0.220   6.503   5.896 -0.8931  0.4788  0.1800
 4796SOL    HW119235   0.208   6.517   5.990 -2.7056 -0.7032  0.1810
 4796SOL    HW219236   0.290   6.563   5.872  1.4089 -0.9691  2.7203
 4797SOL     OW19237   9.758   7.456   4.047  0.4143  0.0345  0.1813
 4797SOL    HW119238   9.721   7.511   3.978  0.3355  1.7112  1.4844
 4797SOL    HW219239   9.839   7.501   4.073  0.5133 -0.6247  1.0740
 4798SOL     OW19240   1.061   9.511   4.587  0.7687  0.4865 -0.2562
 4798SOL    HW119241   1.153   9.508   4.614  0.7446 -0.3860 -0.2459
 4798SOL    HW219242   1.065   9.533   4.494  0.9682  0.8481 -0.1640
 4799SOL     OW19243   3.869   7.333   4.679 -0.7969  0.2626  0.2763
 4799SOL    HW119244   3.930   7.388   4.729 -1.9243 -0.6436  2.7887
 4799SOL    HW219245   3.829   7.393   4.616 -0.0811  1.7148  1.1475
 4800SOL     OW19246   1.688   9.200   5.749 -0.0711 -0.0746  0.3239
 4800SOL    HW119247   1.668   9.257   5.674  1.8275  1.1111  0.6475
 4800SOL    HW219248   1.692   9.259   5.824  0.0246 -0.9505  1.0263
 4801SOL     OW19249   2.660   7.123   6.557 -0.1319 -0.3134 -0.3587
 4801SOL    HW119250   2.685   7.135   6.648 -0.5530  1.3504 -0.4413
 4801SOL    HW219251   2.717   7.183   6.508 -0.7093 -0.3206 -1.0657
 4802SOL     OW19252   9.212   8.717   4.751  0.0462 -0.0242  0.0080
 4802SOL    HW119253   9.201   8.649   4.685  0.9768 -0.7488  0.5768
 4802SOL    HW219254   9.287   8.768   4.721  0.5667 -0.4476  0.5661
 4803SOL     OW19255   0.508   9.665   3.993  0.0059 -0.0353  0.3857
 4803SOL    HW119256   0.498   9.652   4.087 -1.0020 -0.6454  0.2056
 4803SOL    HW219257   0.459   9.745   3.974 -1.0763 -0.7301  0.1615
 4804SOL     OW19258   2.739   8.430   4.508 -0.4087 -0.3653  0.1559
 4804SOL    HW119259   2.689   8.447   4.587  2.1007  0.0551  1.7892
 4804SOL    HW219260   2.678   8.446   4.436 -2.2378  1.2158  1.9518
 4805SOL     OW19261   3.616   9.388   4.738 -0.3620 -0.5480  0.0071
 4805SOL    HW119262   3.665   9.451   4.684  0.4865 -0.7664  0.4975
 4805SOL    HW219263   3.608   9.430   4.823  0.5215 -1.2253  0.4443
 4806SOL     OW19264   9.508   8.185   6.304  0.4245 -0.9144 -0.2078
 4806SOL    HW119265   9.600   8.210   6.295 -0.0366  0.3605 -2.1323
 4806SOL    HW219266   9.461   8.268   6.311 -0.7012 -1.4661 -0.8845
 4807SOL     OW19267   1.477   6.215   7.761  0.3471  0.2261 -0.0380
 4807SOL    HW119268   1.396   6.245   7.804 -0.7166 -1.9918 -0.3899
 4807SOL    HW219269   1.499   6.133   7.805  1.4371 -0.1051 -1.1394
 4808SOL     OW19270   0.775   9.142   2.952 -0.1159  0.3662 -0.3450
 4808SOL    HW119271   0.731   9.059   2.931  0.2710  0.1884 -0.4549
 4808SOL    HW219272   0.763   9.196   2.874  0.3992  0.0916 -0.6149
 4809SOL     OW19273   1.912   7.611   5.527  0.1161  0.0310  0.0361
 4809SOL    HW119274   1.869   7.696   5.516  0.8982  0.3323 -0.9081
 4809SOL    HW219275   1.988   7.615   5.468  0.9265 -0.8152  0.9850
 4810SOL     OW19276   0.658   8.649   4.321  0.3953  0.8182 -0.5759
 4810SOL    HW119277   0.612   8.732   4.336 -1.7932 -0.2161 -1.2236
 4810SOL    HW219278   0.704   8.632   4.403 -0.3679  1.9126  0.1119
 4811SOL     OW19279   8.024   8.068   4.230  0.2361  1.2371 -0.1792
 4811SOL    HW119280   7.955   8.064   4.164  0.1918  2.0892 -0.1874
 4811SOL    HW219281   7.977   8.083   4.312  0.1738 -1.0698  0.2727
 4812SOL     OW19282   2.751   7.402   4.873  0.4472  0.5890  0.6244
 4812SOL    HW119283   2.838   7.435   4.896 -0.1905  1.4238  2.0170
 4812SOL    HW219284   2.742   7.321   4.923  0.2604  0.7428  0.8422
 4813SOL     OW19285   1.672   7.957   3.813 -1.1625  0.6463 -0.4648
 4813SOL    HW119286   1.702   8.042   3.846 -1.3679  0.6850 -0.3812
 4813SOL    HW219287   1.717   7.947   3.729 -0.1883  0.2966  0.0740
 4814SOL     OW19288   0.401   6.084   3.363 -0.7986 -0.9302 -0.6591
 4814SOL    HW119289   0.378   6.076   3.456  0.3634  0.3259 -0.2330
 4814SOL    HW219290   0.478   6.028   3.353 -0.6624 -0.7183 -0.7760
 4815SOL     OW19291   1.422   8.161   2.673  0.5556  0.2202 -0.1561
 4815SOL    HW119292   1.481   8.209   2.731 -0.5027 -0.3267  1.4653
 4815SOL    HW219293   1.470   8.081   2.651  0.4248 -0.2856  1.2574
 4816SOL     OW19294   0.227   8.993   4.420  0.5888 -0.0897 -0.7508
 4816SOL    HW119295   0.193   9.082   4.406 -0.4559 -0.1013  1.3425
 4816SOL    HW219296   0.293   9.003   4.488  0.2780 -0.9447 -0.3198
 4817SOL     OW19297   9.611   0.072   5.972  0.3906  0.3744 -0.7282
 4817SOL    HW119298   9.666   0.115   5.907  2.5201 -0.3839  0.4482
 4817SOL    HW219299   9.620   0.127   6.050 -1.1148  0.5947 -0.6866
 4818SOL     OW19300   1.554   9.523   3.705 -0.0749 -0.3249  0.2468
 4818SOL    HW119301   1.645   9.548   3.688  0.6222 -3.0821 -0.6273
 4818SOL    HW219302   1.505   9.563   3.633  0.5659  0.4533  0.2215
 4819SOL     OW19303   0.613   6.320   6.066  0.8366 -0.2367  0.1095
 4819SOL    HW119304   0.582   6.396   6.016 -0.6461 -0.6302  0.3906
 4819SOL    HW219305   0.582   6.244   6.017  0.3320 -0.6337  1.0172
 4820SOL     OW19306   0.666   7.269   4.868 -0.5021  0.0805  0.7442
 4820SOL    HW119307   0.654   7.306   4.956  0.1171  0.9431  0.4782
 4820SOL    HW219308   0.626   7.334   4.810 -2.0074 -1.0597  0.4511
 4821SOL     OW19309   2.103   6.829   2.143  0.3302  0.3741  0.7931
 4821SOL    HW119310   2.066   6.821   2.055  0.5915 -0.1656  0.7295
 4821SOL    HW219311   2.081   6.919   2.170  0.7322  0.7306 -0.0393
 4822SOL     OW19312   0.800   8.488   4.744 -0.1919 -0.7525  0.3292
 4822SOL    HW119313   0.706   8.470   4.751 -0.6438  1.1763 -0.3412
 4822SOL    HW219314   0.827   8.506   4.834 -0.7006 -0.2363  0.3832
 4823SOL     OW19315   0.255   7.634   3.140 -0.0545 -0.8404  0.6779
 4823SOL    HW119316   0.176   7.637   3.087 -0.4922 -3.2615  1.0785
 4823SOL    HW219317   0.236   7.689   3.216 -0.1269  1.1009 -0.6712
 4824SOL     OW19318   0.727   0.304   4.854  0.8758  0.0326  0.0251
 4824SOL    HW119319   0.669   0.351   4.914 -0.3082 -0.2811 -0.8276
 4824SOL    HW219320   0.674   0.231   4.822  1.5033  0.1389 -1.3255
 4825SOL     OW19321   9.663   4.471   7.423 -0.2012 -0.2097 -0.3369
 4825SOL    HW119322   9.630   4.555   7.390  0.8631  0.2182 -0.3459
 4825SOL    HW219323   9.696   4.491   7.511  0.6276 -0.4728 -0.5799
 4826SOL     OW19324   2.132   0.260   1.645 -0.1924  0.1457 -0.2845
 4826SOL    HW119325   2.165   0.178   1.680  0.4745  0.5084 -0.0337
 4826SOL    HW219326   2.043   0.267   1.679 -0.1496 -0.3339 -0.0692
 4827SOL     OW19327   9.397   9.833   4.348  0.7570  0.2107  0.1881
 4827SOL    HW119328   9.396   9.756   4.291 -1.8727  1.1885 -1.2589
 4827SOL    HW219329   9.453   9.896   4.302  0.4115  0.2251 -0.2207
 4828SOL     OW19330   9.502   8.439   4.524  0.5702  0.5251  0.2216
 4828SOL    HW119331   9.568   8.442   4.454  0.4555 -1.7901 -0.0549
 4828SOL    HW219332   9.530   8.367   4.580 -0.7295  0.7104  1.1479
 4829SOL     OW19333   9.365   8.637   4.097  0.0553  0.3582  0.3492
 4829SOL    HW119334   9.292   8.641   4.035  0.0064 -0.2864  0.3504
 4829SOL    HW219335   9.433   8.691   4.058 -0.8535  1.9890  0.9520
 4830SOL     OW19336   8.029   8.521   4.419  0.0208  0.3494 -0.4385
 4830SOL    HW119337   8.080   8.442   4.436  0.9073  0.6149 -1.6878
 4830SOL    HW219338   7.940   8.491   4.407  0.0110 -0.2297  0.9486
 4831SOL     OW19339   1.950   4.935   6.637  0.3004  0.0325 -0.2824
 4831SOL    HW119340   1.886   4.966   6.572 -0.1696 -0.2653  0.0365
 4831SOL    HW219341   1.912   4.958   6.721 -0.8109 -2.6971  0.0656
 4832SOL     OW19342   8.944   8.386   2.129  0.6900  0.5195 -0.6514
 4832SOL    HW119343   8.888   8.391   2.051  1.6226 -0.2842 -1.3986
 4832SOL    HW219344   8.937   8.295   2.158  0.5933  0.7381  0.0250
 4833SOL     OW19345   1.759   8.574   6.030 -0.1658 -0.7107  0.3462
 4833SOL    HW119346   1.733   8.565   5.938  0.6047 -0.7161  0.1243
 4833SOL    HW219347   1.820   8.648   6.031 -2.6376  1.4886  1.3813
 4834SOL     OW19348   8.898   7.390   6.756 -0.0145  0.2246 -0.0549
 4834SOL    HW119349   8.974   7.448   6.756  1.2901 -1.1374 -3.9550
 4834SOL    HW219350   8.890   7.361   6.847  3.7603  0.9003  0.6700
 4835SOL     OW19351   7.308   8.527   4.847  0.2803  0.4053 -0.1993
 4835SOL    HW119352   7.272   8.439   4.858  2.3390 -0.2750  1.6495
 4835SOL    HW219353   7.315   8.561   4.936  3.0865  0.9103 -0.5336
 4836SOL     OW19354   2.773   8.880   3.704  0.0213 -0.2974 -0.2571
 4836SOL    HW119355   2.753   8.967   3.741  1.2242  0.5748 -1.5639
 4836SOL    HW219356   2.774   8.822   3.780  0.1688  1.0089  0.7856
 4837SOL     OW19357   3.265   9.489   3.254 -0.1555  0.1590 -0.0281
 4837SOL    HW119358   3.257   9.520   3.344  1.0188 -1.4554  0.6639
 4837SOL    HW219359   3.331   9.546   3.215 -0.6165  0.8136  0.1280
 4838SOL     OW19360   0.178   0.667   2.206 -0.0237  0.5480 -0.1773
 4838SOL    HW119361   0.204   0.730   2.273 -0.4834 -0.1189  0.6410
 4838SOL    HW219362   0.254   0.660   2.148 -0.0326  1.9977 -0.4023
 4839SOL     OW19363   2.734   8.004   2.501  0.2374  0.2302  0.4415
 4839SOL    HW119364   2.739   8.060   2.424  0.5488  1.3913  1.2780
 4839SOL    HW219365   2.780   8.053   2.570  0.7674 -1.1770  1.1377
 4840SOL     OW19366   8.320   8.624   4.978 -0.0223 -0.4074  0.2863
 4840SOL    HW119367   8.408   8.603   4.947  0.4149  2.5546 -0.7259
 4840SOL    HW219368   8.322   8.603   5.072  2.2327  0.9115  0.6000
 4841SOL     OW19369   1.161   7.251   5.584 -0.3874  0.1811  0.1189
 4841SOL    HW119370   1.153   7.336   5.628 -0.0310 -0.0965  0.7352
 4841SOL    HW219371   1.158   7.187   5.655 -1.8993 -0.4080 -0.4241
 4842SOL     OW19372   2.182   9.340   4.468 -0.4602  0.2883  0.6645
 4842SOL    HW119373   2.158   9.340   4.561 -1.0920 -0.3743  0.5088
 4842SOL    HW219374   2.251   9.406   4.461 -1.2742  1.2351  1.3815
 4843SOL     OW19375   0.720   7.469   2.625  0.9921  0.1145 -0.9931
 4843SOL    HW119376   0.667   7.474   2.704  2.6393 -0.7317  0.2258
 4843SOL    HW219377   0.657   7.464   2.554 -0.5848 -1.4680  0.4290
 4844SOL     OW19378   1.932   8.771   3.644 -0.2209  0.0784 -0.3738
 4844SOL    HW119379   1.934   8.815   3.728 -1.0354  0.3354 -0.4846
 4844SOL    HW219380   1.883   8.830   3.587 -0.4032 -0.4785 -0.8007
 4845SOL     OW19381   0.320   7.563   5.762 -0.0207  0.7088 -0.3136
 4845SOL    HW119382   0.357   7.476   5.780  0.8303  0.9683 -0.7573
 4845SOL    HW219383   0.396   7.621   5.758 -0.3594  1.0853 -2.2400
 4846SOL     OW19384   0.450   7.587   5.413 -0.1853 -0.1017  0.5377
 4846SOL    HW119385   0.408   7.508   5.381  2.0587 -0.5036 -1.8214
 4846SOL    HW219386   0.535   7.557   5.447  0.0625  1.1252  1.0764
 4847SOL     OW19387   9.039   7.247   7.092 -0.0554 -0.0498 -0.2391
 4847SOL    HW119388   8.946   7.268   7.090 -0.1014  0.3401  2.0756
 4847SOL    HW219389   9.083   7.332   7.084  0.0149  0.0146  0.7107
 4848SOL     OW19390   0.775   8.259   4.442  0.3910  0.0074 -0.0724
 4848SOL    HW119391   0.757   8.171   4.411  0.1470 -0.7456  2.0254
 4848SOL    HW219392   0.691   8.305   4.431 -0.2850 -0.8292  1.2196
 4849SOL     OW19393   1.702   9.267   4.384  0.1641 -0.0332  0.3995
 4849SOL    HW119394   1.759   9.343   4.372  1.2853 -0.6993  1.3203
 4849SOL    HW219395   1.709   9.247   4.477 -1.2551 -0.4051  0.4478
 4850SOL     OW19396   0.853   8.990   3.952  0.5837  0.3457  0.3635
 4850SOL    HW119397   0.948   9.000   3.952  0.3847  3.8391 -0.5897
 4850SOL    HW219398   0.821   9.059   4.011 -1.3734 -0.2307  0.0752
 4851SOL     OW19399   1.767   8.097   4.400  0.4945 -0.1974  0.4190
 4851SOL    HW119400   1.834   8.031   4.379 -1.0474 -2.1011  1.2578
 4851SOL    HW219401   1.806   8.148   4.471  0.5030 -2.2872  1.9999
 4852SOL     OW19402   0.579   8.662   5.843 -0.6360  0.5237  0.2932
 4852SOL    HW119403   0.522   8.600   5.799  0.9757  0.8888 -2.5118
 4852SOL    HW219404   0.616   8.613   5.917 -2.2881 -0.5805  0.4282
 4853SOL     OW19405   0.429   5.884   3.613 -0.1834 -0.1234  0.0809
 4853SOL    HW119406   0.493   5.833   3.562 -1.1956 -0.8708 -0.4952
 4853SOL    HW219407   0.482   5.933   3.676  1.0188 -0.0680 -0.9218
 4854SOL     OW19408   2.108   8.580   7.271  0.1359 -0.2688  0.1945
 4854SOL    HW119409   2.140   8.571   7.361  0.2352  0.4371  0.2325
 4854SOL    HW219410   2.017   8.609   7.281 -0.0288 -0.7353  0.0698
 4855SOL     OW19411   0.418   9.274   4.516  0.7221  0.1322  0.2908
 4855SOL    HW119412   0.424   9.185   4.551  2.7119  0.9500  2.3167
 4855SOL    HW219413   0.327   9.283   4.488  0.4075 -2.4253  0.2732
 4856SOL     OW19414   1.830   9.121   5.220 -0.0622 -0.0732  0.8738
 4856SOL    HW119415   1.912   9.114   5.172 -0.7956 -0.0973 -0.4212
 4856SOL    HW219416   1.836   9.053   5.287  0.2850 -1.2571 -0.3016
 4857SOL     OW19417   0.298   7.839   3.369  0.4179  0.3431 -0.0012
 4857SOL    HW119418   0.246   7.887   3.434 -1.6745  0.3726 -1.5839
 4857SOL    HW219419   0.328   7.905   3.307 -2.1867 -0.1660 -1.9949
 4858SOL     OW19420   0.871   9.740   3.248 -0.2586  0.4284 -0.1996
 4858SOL    HW119421   0.903   9.809   3.305 -0.9776  1.0557 -0.5402
 4858SOL    HW219422   0.782   9.721   3.280  0.0281 -0.5364  0.0654
 4859SOL     OW19423   0.553   7.476   4.682 -0.7041  0.3554 -0.3395
 4859SOL    HW119424   0.607   7.536   4.630  1.4717 -0.5419  0.7556
 4859SOL    HW219425   0.538   7.401   4.624  0.5335 -0.0362 -0.1902
 4860SOL     OW19426   0.966   9.775   6.279  0.3818  0.0743 -0.8531
 4860SOL    HW119427   0.977   9.739   6.367 -0.6345 -0.3526 -0.8826
 4860SOL    HW219428   0.873   9.796   6.273  0.3748 -0.1942 -1.9338
 4861SOL     OW19429   8.883   8.572   4.659 -0.2934 -0.3190 -0.1774
 4861SOL    HW119430   8.840   8.492   4.689 -0.3417 -1.0744 -2.1497
 4861SOL    HW219431   8.949   8.543   4.597  2.2316  0.9387  1.7576
 4862SOL     OW19432   9.289   9.374   5.443  0.5279  0.0256 -0.2734
 4862SOL    HW119433   9.236   9.312   5.493  1.2001  0.3840  0.9277
 4862SOL    HW219434   9.273   9.351   5.351  0.6779 -1.8353  0.1322
 4863SOL     OW19435   8.674   1.063   5.051  0.3498  0.1038 -0.0960
 4863SOL    HW119436   8.741   1.124   5.020  0.7062  0.3127  1.0416
 4863SOL    HW219437   8.703   1.038   5.139 -2.0403  1.7506  1.2887
 4864SOL     OW19438   2.536   8.074   6.752  0.1033  0.0355  0.7207
 4864SOL    HW119439   2.513   7.983   6.731 -0.5014  0.1562  0.8509
 4864SOL    HW219440   2.597   8.100   6.683  0.7824 -0.6753  1.0278
 4865SOL     OW19441   1.545   7.762   4.070 -0.2326 -0.4106 -0.4529
 4865SOL    HW119442   1.503   7.828   4.014 -0.7366  0.3044  0.7319
 4865SOL    HW219443   1.556   7.806   4.154 -1.8991 -2.2882  0.8445
 4866SOL     OW19444   3.463   9.521   3.067  0.2403 -0.3504  0.1874
 4866SOL    HW119445   3.457   9.553   2.976 -0.9076  1.8640  0.9690
 4866SOL    HW219446   3.451   9.426   3.059 -0.6961 -0.1261 -1.9028
 4867SOL     OW19447   2.405   8.081   3.418  0.5877 -0.2462  0.2279
 4867SOL    HW119448   2.430   8.106   3.506  4.2630 -0.8981 -0.4744
 4867SOL    HW219449   2.427   8.156   3.363 -2.8983  0.6951 -0.1567
 4868SOL     OW19450   2.329   8.642   6.450 -0.1786  0.3820  0.5934
 4868SOL    HW119451   2.380   8.648   6.531 -1.1158 -0.2813  1.2551
 4868SOL    HW219452   2.249   8.690   6.468  0.4330  1.9387 -0.6510
 4869SOL     OW19453   0.463   8.290   4.600 -0.0750  0.8077  0.3861
 4869SOL    HW119454   0.481   8.348   4.674 -0.6987  0.7936  0.5555
 4869SOL    HW219455   0.468   8.347   4.523 -0.1222  0.9711  0.5047
 4870SOL     OW19456   1.081   7.972   5.589 -0.0548 -0.3119  0.0068
 4870SOL    HW119457   0.999   7.998   5.548 -0.2615 -1.5291 -0.3855
 4870SOL    HW219458   1.100   8.042   5.651 -0.0338  1.2866 -1.7329
 4871SOL     OW19459   1.021   7.727   5.161 -0.1302 -0.2650 -0.4406
 4871SOL    HW119460   0.969   7.672   5.219  0.4083  0.6121  0.9260
 4871SOL    HW219461   1.097   7.674   5.139  0.1004 -0.3062  0.4056
 4872SOL     OW19462   0.431   7.643   7.094 -0.0267 -0.1932 -0.3819
 4872SOL    HW119463   0.382   7.601   7.164  0.1123 -1.0754 -0.7938
 4872SOL    HW219464   0.507   7.682   7.137 -0.5000  0.2144  0.1003
 4873SOL     OW19465   1.506   7.669   5.735 -0.0153 -0.2546  0.2704
 4873SOL    HW119466   1.456   7.665   5.653 -0.1113  0.5525  0.2781
 4873SOL    HW219467   1.452   7.623   5.799  0.3780 -1.5063 -0.2656
 4874SOL     OW19468   7.610   8.062   6.257 -0.7103 -0.0407  0.1143
 4874SOL    HW119469   7.572   8.020   6.181 -0.6355  0.6890 -0.3328
 4874SOL    HW219470   7.672   8.126   6.222 -1.2663  0.8789  0.7470
 4875SOL     OW19471   3.049   6.998   6.566  0.0801 -0.3071  0.0944
 4875SOL    HW119472   3.056   7.015   6.472  1.0023 -2.5287 -0.2796
 4875SOL    HW219473   2.972   6.943   6.575  0.3556 -0.6224  0.5642
 4876SOL     OW19474   0.087   7.655   4.120 -0.2086  0.0915 -0.0949
 4876SOL    HW119475   0.115   7.709   4.193  1.6164  0.5218 -1.0664
 4876SOL    HW219476   0.071   7.717   4.049 -1.5452 -0.3598 -0.2281
 4877SOL     OW19477   2.024   4.910   4.117 -0.4806  0.6073  0.2542
 4877SOL    HW119478   2.028   4.958   4.199 -1.6160 -0.1777  0.7948
 4877SOL    HW219479   1.931   4.897   4.101 -0.3278  1.4662 -1.6041
 4878SOL     OW19480   2.512   6.745   3.398  0.1081  0.0871  0.2711
 4878SOL    HW119481   2.493   6.678   3.332 -0.0684  0.4191 -0.0220
 4878SOL    HW219482   2.456   6.721   3.472 -2.1292  1.4689 -0.8536
 4879SOL     OW19483   1.151   0.247   4.595  0.6671 -0.1106  0.0334
 4879SOL    HW119484   1.086   0.282   4.655  2.5474  2.2705  0.8201
 4879SOL    HW219485   1.142   0.299   4.516  0.8522 -0.5548 -0.2870
 4880SOL     OW19486   2.772   5.792   3.976  0.5358 -0.2314 -0.3325
 4880SOL    HW119487   2.778   5.740   3.896  0.0730  1.6508 -1.6634
 4880SOL    HW219488   2.679   5.795   3.996  0.6076 -0.3434  0.0235
 4881SOL     OW19489   9.179   7.479   5.901  0.1148  0.2593  0.0914
 4881SOL    HW119490   9.264   7.477   5.945 -0.3609  1.1064  1.0745
 4881SOL    HW219491   9.140   7.563   5.927 -0.4142  0.5472 -1.5226
 4882SOL     OW19492   2.673   7.576   3.745  0.0296 -0.6172  0.5606
 4882SOL    HW119493   2.685   7.489   3.782 -2.1119 -0.5643  1.5322
 4882SOL    HW219494   2.603   7.615   3.797  0.4199  1.4279 -0.3230
 4883SOL     OW19495   3.085   8.571   3.555  0.2168 -0.2823  0.3239
 4883SOL    HW119496   3.053   8.571   3.645 -1.3177  1.2600 -0.1895
 4883SOL    HW219497   3.021   8.622   3.506  2.0039  0.5258 -1.2954
 4884SOL     OW19498   0.542   0.024   3.072  0.2521 -0.1601 -0.2667
 4884SOL    HW119499   0.468  -0.007   3.020  1.2624 -0.5224 -1.5441
 4884SOL    HW219500   0.610  -0.041   3.057  0.6221 -0.2433  1.4937
 4885SOL     OW19501   0.269   8.204   4.796 -0.3489 -0.4650  0.3069
 4885SOL    HW119502   0.317   8.162   4.868  1.5760 -2.2606 -1.8299
 4885SOL    HW219503   0.338   8.233   4.736 -1.8019  2.7760  0.0247
 4886SOL     OW19504   8.861   7.583   6.462  0.5354  0.3664 -0.4701
 4886SOL    HW119505   8.888   7.662   6.509 -1.7234  1.1177 -0.2835
 4886SOL    HW219506   8.797   7.614   6.398 -0.4568 -1.2947 -0.3492
 4887SOL     OW19507   1.854   0.357   5.596 -0.5640 -0.2351  0.6005
 4887SOL    HW119508   1.790   0.413   5.639 -0.9233 -0.9304  0.9919
 4887SOL    HW219509   1.816   0.270   5.600  1.0098 -0.9282  2.1677
 4888SOL     OW19510   8.382   8.946   3.281  0.2261 -0.4387 -0.2555
 4888SOL    HW119511   8.318   9.015   3.261  1.2051  0.3372 -0.7759
 4888SOL    HW219512   8.351   8.870   3.231 -1.2150 -0.6041  0.8105
 4889SOL     OW19513   1.153   9.069   3.975 -0.1458 -0.1543 -0.4456
 4889SOL    HW119514   1.159   9.136   3.907 -1.4120  1.0011  0.5110
 4889SOL    HW219515   1.189   9.111   4.053  0.2627 -1.0684 -0.1349
 4890SOL     OW19516   1.853   8.620   5.109  0.1195 -0.4803 -0.6776
 4890SOL    HW119517   1.897   8.559   5.168  0.2940  0.0524 -0.2508
 4890SOL    HW219518   1.788   8.663   5.164  1.2495  1.0548 -0.4943
 4891SOL     OW19519   8.752   6.834   4.403  1.2630  0.1454 -0.6930
 4891SOL    HW119520   8.713   6.777   4.470 -0.7365  2.5273  0.3317
 4891SOL    HW219521   8.822   6.880   4.449  1.6034 -0.0639 -0.9924
 4892SOL     OW19522   1.648   8.920   5.865  0.2047 -0.6269 -0.2804
 4892SOL    HW119523   1.624   8.829   5.879 -0.8376 -0.1562  1.2070
 4892SOL    HW219524   1.565   8.967   5.861  0.7123  0.2149 -1.4446
 4893SOL     OW19525   4.471   6.886   5.746 -0.2491  0.1263 -0.1417
 4893SOL    HW119526   4.474   6.790   5.744 -2.2220  0.0290 -0.7848
 4893SOL    HW219527   4.542   6.914   5.689 -0.9328 -1.0281 -1.6442
 4894SOL     OW19528   7.711   7.925   4.996 -0.2758 -0.4198 -0.4077
 4894SOL    HW119529   7.646   7.872   4.951 -2.3677 -0.3416  2.2862
 4894SOL    HW219530   7.664   8.004   5.022  1.3779  0.4305  0.1559
 4895SOL     OW19531   0.860   5.443   4.490 -0.1128  0.7153  1.0094
 4895SOL    HW119532   0.805   5.379   4.444 -1.4199  1.0146  2.1040
 4895SOL    HW219533   0.947   5.405   4.489 -0.5290 -0.2541  0.1088
 4896SOL     OW19534   0.780   2.219   7.311 -0.4623 -0.0800  0.5172
 4896SOL    HW119535   0.722   2.147   7.335 -0.8045 -1.1565 -3.0077
 4896SOL    HW219536   0.738   2.260   7.235  0.5951  2.8169  1.3451
 4897SOL     OW19537   9.356   6.867   5.560 -0.6654 -0.1418  0.0264
 4897SOL    HW119538   9.297   6.818   5.503 -2.7797  0.9072  1.1731
 4897SOL    HW219539   9.394   6.801   5.618 -3.2987 -0.5974  1.4073
 4898SOL     OW19540   0.636   9.813   5.841 -0.7630 -0.2565  0.4910
 4898SOL    HW119541   0.684   9.876   5.787  0.0541 -1.3490 -0.0942
 4898SOL    HW219542   0.547   9.848   5.844  0.1195  2.0635  1.9848
 4899SOL     OW19543   1.482   7.487   3.702 -0.0638  0.1312 -0.0874
 4899SOL    HW119544   1.521   7.507   3.787  1.3828  2.2974 -1.1702
 4899SOL    HW219545   1.446   7.570   3.672  0.8057 -0.1986 -2.2166
 4900SOL     OW19546   0.815   6.333   4.101  0.1182 -0.0866  0.0297
 4900SOL    HW119547   0.850   6.337   4.013  1.5611 -1.8788  0.4651
 4900SOL    HW219548   0.892   6.331   4.158 -0.7753  1.6124  1.4096
 4901SOL     OW19549   1.422   8.064   7.134  0.3462  0.3832  0.1443
 4901SOL    HW119550   1.352   8.038   7.074 -1.0891 -1.0981  2.3441
 4901SOL    HW219551   1.462   8.140   7.092 -1.9153  0.6682 -1.6756
 4902SOL     OW19552   2.829   7.688   9.394  0.2284 -0.3368 -0.1311
 4902SOL    HW119553   2.871   7.771   9.372  0.4884 -0.1812  0.9158
 4902SOL    HW219554   2.861   7.667   9.481  0.2407 -1.5954 -0.4174
 4903SOL     OW19555   1.927   9.462   4.398  0.1462 -0.4280 -0.3475
 4903SOL    HW119556   1.922   9.553   4.425 -2.2980  0.4373 -3.1772
 4903SOL    HW219557   2.019   9.448   4.374  0.4464  1.4368 -0.3703
 4904SOL     OW19558   0.203   7.968   5.611  0.2783  0.0500 -0.2436
 4904SOL    HW119559   0.293   7.996   5.627  0.4459 -1.0426  0.9031
 4904SOL    HW219560   0.211   7.897   5.547  0.1222  0.5959 -0.8862
 4905SOL     OW19561   2.875   8.129   2.706 -0.0243 -0.4968 -0.1623
 4905SOL    HW119562   2.912   8.215   2.689  3.4151 -1.7364  0.3430
 4905SOL    HW219563   2.852   8.130   2.799 -2.8403  0.7035 -0.7421
 4906SOL     OW19564   1.844   9.377   4.125 -0.3632  0.4760 -0.1152
 4906SOL    HW119565   1.837   9.370   4.030 -0.5673 -0.1680 -0.0609
 4906SOL    HW219566   1.879   9.464   4.141  2.5985 -0.4398 -0.9285
 4907SOL     OW19567   9.367   9.381   3.515  0.3036  0.1404  0.1988
 4907SOL    HW119568   9.313   9.338   3.450  0.4841 -0.3552  0.3765
 4907SOL    HW219569   9.305   9.421   3.576  0.1209  1.3652 -0.7584
 4908SOL     OW19570   1.021   8.460   5.603  0.8357  0.6610  0.9071
 4908SOL    HW119571   1.111   8.459   5.637  0.9954 -0.8272  0.5209
 4908SOL    HW219572   0.979   8.533   5.648  2.0029  0.8511  1.7429
 4909SOL     OW19573   0.501   7.554   4.942  0.1923 -0.1199 -0.7087
 4909SOL    HW119574   0.522   7.540   4.850  0.6394 -2.5168 -0.3195
 4909SOL    HW219575   0.559   7.494   4.989 -1.0118  0.0022  1.0425
 4910SOL     OW19576   1.403   8.514   5.257  0.0704 -0.4832 -0.0134
 4910SOL    HW119577   1.319   8.495   5.300 -0.7592  0.6246 -1.0692
 4910SOL    HW219578   1.378   8.556   5.175  1.6062 -2.3537 -1.5198
 4911SOL     OW19579   0.174   8.953   3.030  0.3709  0.5051 -0.7414
 4911SOL    HW119580   0.168   8.993   3.117 -0.3592  1.0874 -1.0487
 4911SOL    HW219581   0.247   8.999   2.989  2.7227 -1.8034  0.5628
 4912SOL     OW19582   0.231   6.254   6.888 -0.8052 -0.8131  0.0624
 4912SOL    HW119583   0.283   6.176   6.873  0.1052 -0.2774  0.3603
 4912SOL    HW219584   0.194   6.242   6.975 -0.5046 -0.8253  0.1886
 4913SOL     OW19585   1.473   0.469   4.254  0.5179  0.3911  0.2539
 4913SOL    HW119586   1.438   0.386   4.220  0.9867  0.2694  0.0549
 4913SOL    HW219587   1.568   0.460   4.246  0.5412  1.7549 -1.7587
 4914SOL     OW19588   1.939   8.262   2.493 -0.2435 -0.0964 -0.2171
 4914SOL    HW119589   1.933   8.197   2.422 -0.7627  0.7609 -0.9831
 4914SOL    HW219590   1.917   8.213   2.572 -0.3314 -0.9231 -0.7384
 4915SOL     OW19591   1.884   6.975   4.207  0.3971  0.6214  0.2820
 4915SOL    HW119592   1.829   6.967   4.129  0.5484  0.2709  0.2070
 4915SOL    HW219593   1.832   7.028   4.268  0.4927  1.3524 -0.2507
 4916SOL     OW19594   0.531   0.754   4.097  0.1100 -0.1280  0.0213
 4916SOL    HW119595   0.524   0.689   4.027  0.6846  0.4677 -0.5911
 4916SOL    HW219596   0.454   0.809   4.086 -0.3396 -0.6457  0.4962
 4917SOL     OW19597   2.638   7.124   3.568  0.5470  0.1281 -0.1276
 4917SOL    HW119598   2.679   7.139   3.653  0.3606  0.4898 -0.0989
 4917SOL    HW219599   2.600   7.208   3.545 -0.7075 -0.3402  0.1275
 4918SOL     OW19600   0.256   8.384   4.409  0.0001  0.2052  0.6988
 4918SOL    HW119601   0.304   8.463   4.385  1.0868 -0.5441  0.2889
 4918SOL    HW219602   0.270   8.324   4.335 -2.2079  0.1933  0.2180
 4919SOL     OW19603   9.071   8.343   5.749  0.2828  0.1407 -0.4925
 4919SOL    HW119604   9.088   8.393   5.829  0.4107 -0.5067 -0.1088
 4919SOL    HW219605   9.016   8.401   5.696  0.3947  0.6710 -0.0413
 4920SOL     OW19606   0.816   6.957   3.998 -0.5968 -0.2585 -0.0431
 4920SOL    HW119607   0.738   6.966   4.054 -1.0846  0.4902 -0.8175
 4920SOL    HW219608   0.822   6.864   3.980 -0.6442 -0.4642  0.9642
 4921SOL     OW19609   1.669   7.171   5.079 -0.5305  0.2564 -0.3326
 4921SOL    HW119610   1.587   7.126   5.097 -0.6694 -0.0133 -1.5924
 4921SOL    HW219611   1.644   7.252   5.034 -0.1694  0.7164  0.2755
 4922SOL     OW19612   9.734   7.402   2.307 -0.0177  0.4625 -0.5270
 4922SOL    HW119613   9.691   7.485   2.285  2.0004  2.1098  1.3122
 4922SOL    HW219614   9.795   7.387   2.235 -1.1806 -0.0743 -1.4324
 4923SOL     OW19615   2.864   1.198   4.129 -0.8893 -0.5311  0.2871
 4923SOL    HW119616   2.893   1.135   4.194 -1.2018 -0.4645  0.4954
 4923SOL    HW219617   2.902   1.168   4.046  0.6426  0.1273  0.7067
 4924SOL     OW19618   9.108   9.220   3.773 -0.2199 -0.2181  0.2009
 4924SOL    HW119619   9.138   9.306   3.745  2.0873 -0.5958  1.2584
 4924SOL    HW219620   9.135   9.161   3.702  0.7682 -0.4364  0.7465
 4925SOL     OW19621   4.275   9.001   6.540  0.4218 -0.2838 -0.7118
 4925SOL    HW119622   4.281   9.017   6.446  3.6522 -0.1418 -0.5769
 4925SOL    HW219623   4.320   8.918   6.553  0.5552 -0.0075  0.7565
 4926SOL     OW19624   1.046   7.829   3.496  0.1855  0.9670  0.1957
 4926SOL    HW119625   0.993   7.881   3.556 -1.1812  0.4811 -0.5314
 4926SOL    HW219626   0.981   7.783   3.441  1.3291 -0.8858  0.3079
 4927SOL     OW19627   1.820   8.371   1.399  0.3584  0.1920 -0.0718
 4927SOL    HW119628   1.837   8.397   1.309  1.1087  1.4699  0.3982
 4927SOL    HW219629   1.896   8.318   1.423  0.1313 -0.1960 -0.2010
 4928SOL     OW19630   0.781   0.207   3.199  0.0658  0.0950  0.1947
 4928SOL    HW119631   0.781   0.142   3.129  1.1084 -0.2241  0.4699
 4928SOL    HW219632   0.778   0.291   3.154  1.4199 -0.0869 -0.2827
 4929SOL     OW19633   1.156   6.552   8.402 -0.0440 -0.3361  0.4888
 4929SOL    HW119634   1.108   6.618   8.452 -0.6164 -0.1367 -0.3148
 4929SOL    HW219635   1.197   6.600   8.330  1.7146 -0.4293  1.3616
 4930SOL     OW19636   1.421   9.119   5.335 -0.3784 -0.4700  0.4195
 4930SOL    HW119637   1.343   9.066   5.318 -0.6727 -0.0895  0.5578
 4930SOL    HW219638   1.419   9.187   5.267 -0.0176 -0.6193  0.2562
 4931SOL     OW19639   2.286   9.736   2.840  0.2909  0.1071  0.4616
 4931SOL    HW119640   2.192   9.750   2.829  0.5011 -0.1133 -2.1395
 4931SOL    HW219641   2.317   9.815   2.884 -0.7952  1.2115 -0.6862
 4932SOL     OW19642   9.519   8.465   6.033  0.4792 -0.0002  0.1261
 4932SOL    HW119643   9.504   8.553   5.999  1.3486  0.3700  0.6709
 4932SOL    HW219644   9.478   8.466   6.120 -0.2514 -0.4091 -0.2059
 4933SOL     OW19645   1.801   8.536   3.525 -0.4763  0.0627 -0.0234
 4933SOL    HW119646   1.852   8.613   3.549 -1.0022  0.3027  0.3509
 4933SOL    HW219647   1.829   8.468   3.586  1.0178 -0.4802 -1.2481
 4934SOL     OW19648   2.374   9.702   5.658 -0.3787 -0.7693 -0.2531
 4934SOL    HW119649   2.357   9.610   5.678  1.7291 -1.4938 -1.4518
 4934SOL    HW219650   2.406   9.702   5.568  0.9232  0.9609  0.1435
 4935SOL     OW19651   1.298   8.015   6.411  0.0412 -0.3501  0.3065
 4935SOL    HW119652   1.239   8.036   6.338  0.2475 -1.4394 -0.1848
 4935SOL    HW219653   1.244   7.962   6.470  0.1816 -0.3441  0.4381
 4936SOL     OW19654   0.541   6.781   5.098 -0.2692 -0.7751  0.3444
 4936SOL    HW119655   0.479   6.768   5.027 -0.0222 -0.8119  0.1311
 4936SOL    HW219656   0.489   6.816   5.170 -0.3782  0.0442 -0.1248
 4937SOL     OW19657   0.418   0.210   4.208  0.0370 -0.0330  0.2937
 4937SOL    HW119658   0.441   0.148   4.139  2.7758  0.7554  0.3567
 4937SOL    HW219659   0.328   0.235   4.190  0.7947  0.5857 -3.4140
 4938SOL     OW19660   9.515   7.296   4.357  0.0516 -0.1584 -0.1152
 4938SOL    HW119661   9.601   7.332   4.336  0.2133 -0.8233 -0.5978
 4938SOL    HW219662   9.457   7.372   4.362  0.3576  0.1558 -1.2758
 4939SOL     OW19663   1.312   6.620   6.148 -0.1457 -0.2194  0.1601
 4939SOL    HW119664   1.363   6.575   6.216 -1.3107 -2.2186 -0.2097
 4939SOL    HW219665   1.315   6.561   6.073 -0.2593  1.1936 -0.9737
 4940SOL     OW19666   5.569   7.466   4.170  0.7003  0.1691 -0.8000
 4940SOL    HW119667   5.557   7.551   4.212 -0.1395 -0.6769  0.7488
 4940SOL    HW219668   5.524   7.475   4.086 -0.4496  0.8740 -0.1337
 4941SOL     OW19669   2.130   8.969   3.367 -0.1256 -0.4587  0.2131
 4941SOL    HW119670   2.153   9.058   3.395  1.7448 -1.1408  0.9685
 4941SOL    HW219671   2.039   8.959   3.394  0.1897  0.5765  1.8498
 4942SOL     OW19672   2.114   8.352   8.291  0.0993 -0.2421 -0.5974
 4942SOL    HW119673   2.170   8.414   8.337  2.8125 -0.4019 -3.3816
 4942SOL    HW219674   2.040   8.404   8.261  1.3990  1.2891 -1.3074
 4943SOL     OW19675   2.127   7.892   4.695 -0.4092 -0.0974 -0.3877
 4943SOL    HW119676   2.082   7.953   4.753 -0.2464  0.0607 -0.4260
 4943SOL    HW219677   2.219   7.896   4.721 -0.7329 -2.3313  1.4304
 4944SOL     OW19678   1.215   7.416   2.534  0.0863 -0.0621 -0.1395
 4944SOL    HW119679   1.183   7.394   2.621 -2.7593 -1.3238 -1.4086
 4944SOL    HW219680   1.223   7.512   2.536  2.5731 -0.1755  2.1951
 4945SOL     OW19681   9.243   0.060   6.186  1.0585 -0.1110 -0.4485
 4945SOL    HW119682   9.291   0.140   6.164  0.1695  0.3806 -0.6183
 4945SOL    HW219683   9.173   0.055   6.121 -0.3727  0.2815  0.9953
 4946SOL     OW19684   2.438   7.106   4.258  0.3731 -0.1709  0.1440
 4946SOL    HW119685   2.446   7.111   4.163  0.1560  1.9636  0.1757
 4946SOL    HW219686   2.439   7.013   4.278  0.9717 -0.6467 -1.8952
 4947SOL     OW19687   8.754   9.247   4.818 -0.1215  0.2357  0.4752
 4947SOL    HW119688   8.801   9.329   4.807 -0.1887  0.4002  1.3964
 4947SOL    HW219689   8.675   9.270   4.867  0.0820 -0.4475  1.1438
 4948SOL     OW19690   1.087   8.405   4.539 -0.1304  0.1697  0.2349
 4948SOL    HW119691   1.157   8.405   4.474 -0.0375  0.4127  0.3349
 4948SOL    HW219692   1.129   8.437   4.619  0.3260 -2.2090  1.0275
 4949SOL     OW19693   1.079   8.456   2.737  0.3869 -0.2300  0.1974
 4949SOL    HW119694   1.042   8.380   2.691  1.4079 -1.5741  1.4930
 4949SOL    HW219695   1.171   8.457   2.710 -0.3846  3.2089 -3.1677
 4950SOL     OW19696   2.908   6.073   8.579 -0.3403 -0.2093  0.0284
 4950SOL    HW119697   2.849   6.011   8.622 -1.4651  0.7465 -0.0923
 4950SOL    HW219698   2.911   6.148   8.638 -0.0474  0.1686 -0.4645
 4951SOL     OW19699   0.298   5.791   6.946  0.3573  0.1897  0.6038
 4951SOL    HW119700   0.375   5.735   6.944  1.5864  1.8012 -1.1672
 4951SOL    HW219701   0.226   5.735   6.917  1.5485 -0.4911 -1.1768
 4952SOL     OW19702   2.354   6.422   4.261 -0.4327 -0.2092  0.7162
 4952SOL    HW119703   2.437   6.424   4.307  0.3218 -2.0019 -0.4408
 4952SOL    HW219704   2.303   6.493   4.300  0.6941 -0.6356  3.1989
 4953SOL     OW19705   0.351   8.886   6.761  0.0798  0.8068 -0.4671
 4953SOL    HW119706   0.377   8.824   6.829  0.0269  0.0735 -1.0966
 4953SOL    HW219707   0.433   8.909   6.718  0.0104  0.5785 -0.7242
 4954SOL     OW19708   0.576   8.238   6.971  0.3576  0.1532  0.3954
 4954SOL    HW119709   0.545   8.269   7.056 -0.0244  0.4765  0.1422
 4954SOL    HW219710   0.669   8.219   6.984 -0.1352 -1.7899  1.4390
 4955SOL     OW19711   9.573   8.884   5.496  0.5712 -0.8815  0.0478
 4955SOL    HW119712   9.480   8.874   5.477  0.9228 -3.0646 -0.8235
 4955SOL    HW219713   9.576   8.931   5.579 -1.1738  2.9485 -1.7903
 4956SOL     OW19714   0.967   9.624   6.039 -0.0111  0.0185 -0.5674
 4956SOL    HW119715   1.049   9.639   5.990 -0.1548  0.7280 -0.6103
 4956SOL    HW219716   0.971   9.687   6.111  0.4850 -1.4452  0.7363
 4957SOL     OW19717   2.889   8.550   6.208 -0.6173 -0.1529  0.4965
 4957SOL    HW119718   2.866   8.525   6.119 -1.2148  0.6637  0.4061
 4957SOL    HW219719   2.859   8.478   6.262 -0.7420 -0.4074  0.0941
 4958SOL     OW19720   1.422   1.119   7.413  0.1283 -0.2441  0.2251
 4958SOL    HW119721   1.395   1.029   7.394 -1.1978 -0.1143  1.2999
 4958SOL    HW219722   1.485   1.111   7.484  0.4449 -0.3537 -0.0663
 4959SOL     OW19723   0.149   8.042   7.154 -0.5562  0.4139  0.6511
 4959SOL    HW119724   0.115   7.990   7.080 -0.1891 -1.2177  1.5767
 4959SOL    HW219725   0.232   8.076   7.122  0.2006 -1.2930  0.6740
 4960SOL     OW19726   9.566   9.697   7.453 -0.6864  0.0700  0.0304
 4960SOL    HW119727   9.489   9.689   7.397  0.4311  2.3531 -2.0490
 4960SOL    HW219728   9.534   9.737   7.533 -1.4186  4.2050 -2.0497
 4961SOL     OW19729   0.141   6.555   2.668 -0.0015 -0.1885 -0.1697
 4961SOL    HW119730   0.193   6.500   2.609 -1.2692  0.6381 -2.1324
 4961SOL    HW219731   0.143   6.642   2.629 -2.3404  0.0017 -0.0379
 4962SOL     OW19732   0.896   8.521   5.001  0.1879  0.0058  0.1741
 4962SOL    HW119733   0.973   8.568   5.033  0.9669 -0.0964 -1.4203
 4962SOL    HW219734   0.840   8.511   5.078  1.8465 -0.0797  1.4498
 4963SOL     OW19735   0.535   9.179   7.731 -0.6493 -0.2615 -0.4945
 4963SOL    HW119736   0.530   9.141   7.818  0.1284 -0.2682 -0.4405
 4963SOL    HW219737   0.514   9.272   7.743  0.7203  0.0221 -0.0717
 4964SOL     OW19738   1.136   0.688   8.583  0.4208  0.0141  0.2924
 4964SOL    HW119739   1.113   0.678   8.491  0.5124 -1.8474  0.4209
 4964SOL    HW219740   1.142   0.598   8.615 -1.4637  0.5909  2.5723
 4965SOL     OW19741   1.690   8.107   5.665 -0.3515 -0.1857  0.0746
 4965SOL    HW119742   1.774   8.127   5.705 -0.2935 -0.8042  0.2843
 4965SOL    HW219743   1.699   8.017   5.633 -0.8251 -0.1478 -0.1811
 4966SOL     OW19744   1.042   0.161   5.367 -0.5161 -0.2728 -0.1174
 4966SOL    HW119745   0.951   0.180   5.342 -1.5563 -1.2840  2.4992
 4966SOL    HW219746   1.065   0.082   5.318 -1.6563 -0.9150  0.3361
 4967SOL     OW19747   0.223   6.750   6.629  0.5030  0.1514 -0.3649
 4967SOL    HW119748   0.271   6.776   6.707  0.2435  1.8687 -0.7431
 4967SOL    HW219749   0.131   6.762   6.652  0.4509  2.6983 -1.5159
 4968SOL     OW19750   0.467   6.551   6.656 -0.0359  0.3552 -0.1831
 4968SOL    HW119751   0.386   6.548   6.707  0.5053 -1.1122  0.6454
 4968SOL    HW219752   0.466   6.638   6.615 -1.9953  0.3862 -0.1778
 4969SOL     OW19753   0.421   6.450   5.071  0.6456 -0.3064  0.2450
 4969SOL    HW119754   0.470   6.441   5.152 -1.3440  1.1656  1.7150
 4969SOL    HW219755   0.466   6.393   5.009  2.3223 -1.3673  2.3182
 4970SOL     OW19756   3.663   7.302   5.403 -0.5796  1.0292 -0.6693
 4970SOL    HW119757   3.631   7.249   5.330  0.9075 -0.2863 -0.4329
 4970SOL    HW219758   3.659   7.392   5.372 -0.3218  0.5271 -2.2615
 4971SOL     OW19759   0.134   9.274   5.239 -0.8253  0.4059  0.5447
 4971SOL    HW119760   0.126   9.190   5.193 -2.9793  1.0362 -0.3480
 4971SOL    HW219761   0.174   9.333   5.175 -2.9122  1.0235 -0.2713
 4972SOL     OW19762   2.333   8.638   4.602  0.1897 -0.3005 -0.3849
 4972SOL    HW119763   2.247   8.622   4.563  0.2617 -0.4398 -0.4865
 4972SOL    HW219764   2.331   8.730   4.627 -0.8111 -0.8037  1.6391
 4973SOL     OW19765   2.489   6.549   4.615 -1.1985  0.4011 -0.2435
 4973SOL    HW119766   2.469   6.466   4.658  1.3262  0.1456  0.6143
 4973SOL    HW219767   2.529   6.602   4.683  1.5710  0.5338 -1.8032
 4974SOL     OW19768   9.431   8.745   6.223 -0.3756 -0.2165  0.2129
 4974SOL    HW119769   9.505   8.793   6.186  0.6721  0.0339  2.4932
 4974SOL    HW219770   9.377   8.812   6.265 -1.4414 -0.5137 -0.6359
 4975SOL     OW19771   0.572   8.690   6.807  0.0394 -0.2320  0.7028
 4975SOL    HW119772   0.567   8.667   6.900 -2.3560  1.8066  1.1812
 4975SOL    HW219773   0.525   8.619   6.763  2.0594 -1.7589  0.8170
 4976SOL     OW19774   2.550   7.266   6.892 -0.1926 -0.1264 -0.5535
 4976SOL    HW119775   2.555   7.299   6.982 -3.1196  0.3291 -0.4681
 4976SOL    HW219776   2.576   7.340   6.838  0.6367 -0.1033 -0.1494
 4977SOL     OW19777   0.272   6.331   4.142  0.2593 -0.2588  0.0563
 4977SOL    HW119778   0.244   6.355   4.230 -1.1588 -3.2644  0.5524
 4977SOL    HW219779   0.197   6.352   4.086  0.0332 -1.0256  0.0636
 4978SOL     OW19780   2.451   0.383   7.082  0.3252  0.4951  0.5208
 4978SOL    HW119781   2.462   0.388   6.987 -0.3404  1.6132  0.4812
 4978SOL    HW219782   2.378   0.442   7.101 -0.6796 -1.0098  1.5504
 4979SOL     OW19783   9.737   9.017   4.901 -0.0842  0.1182  0.4084
 4979SOL    HW119784   9.787   9.099   4.897 -1.4569  0.9996  0.5563
 4979SOL    HW219785   9.736   8.986   4.810 -0.4760  0.8488  0.1528
 4980SOL     OW19786   3.275   9.003   5.931  0.1720 -0.2170 -0.8617
 4980SOL    HW119787   3.262   9.048   5.848 -1.2048  0.2898 -0.3985
 4980SOL    HW219788   3.369   9.005   5.945  0.3131  0.7882 -1.8151
 4981SOL     OW19789   9.064   9.209   8.696 -0.4463 -0.3252  0.2841
 4981SOL    HW119790   9.101   9.286   8.738  0.2649 -0.4744 -0.0536
 4981SOL    HW219791   8.984   9.241   8.654  0.6699  0.6028 -1.2332
 4982SOL     OW19792   0.391   6.610   6.239 -0.2887  0.2667 -0.5368
 4982SOL    HW119793   0.458   6.673   6.264 -1.5037  1.5579 -0.4206
 4982SOL    HW219794   0.309   6.648   6.270 -0.9972 -1.7251  0.1775
 4983SOL     OW19795   3.795   8.487   4.516 -0.1541 -0.1628  0.2308
 4983SOL    HW119796   3.710   8.531   4.516 -0.7327 -1.1830 -1.5067
 4983SOL    HW219797   3.855   8.550   4.556 -1.7125  0.5727  1.4887
 4984SOL     OW19798   9.660   6.604   6.371  0.3706 -0.0157  0.4151
 4984SOL    HW119799   9.671   6.686   6.323  1.5246  0.3177  1.2105
 4984SOL    HW219800   9.614   6.628   6.451 -1.0202 -0.4775 -0.2067
 4985SOL     OW19801   1.280   6.329   6.182  0.1149 -0.3976 -0.1772
 4985SOL    HW119802   1.231   6.255   6.147  2.0015 -2.1106  0.5600
 4985SOL    HW219803   1.222   6.368   6.248 -1.6992  0.0984 -1.9745
 4986SOL     OW19804   0.878   7.505   4.959  0.0075  0.1942  0.3676
 4986SOL    HW119805   0.934   7.469   5.028 -0.4904 -0.6004  0.3681
 4986SOL    HW219806   0.940   7.536   4.892  0.4561 -0.4424  0.4792
 4987SOL     OW19807   8.645   8.268   6.707  0.2663 -0.3624  0.4169
 4987SOL    HW119808   8.646   8.262   6.611 -0.0316 -0.4383  0.4162
 4987SOL    HW219809   8.558   8.302   6.727  0.9001  1.2608  0.5743
 4988SOL     OW19810   3.211   7.949   6.445 -0.1379  0.0505  0.3734
 4988SOL    HW119811   3.246   7.860   6.442 -0.3035 -0.1357  2.6080
 4988SOL    HW219812   3.166   7.959   6.361  0.6958 -1.6066 -0.3276
 4989SOL     OW19813   0.752   5.149   6.723 -0.0448  0.4805 -0.4774
 4989SOL    HW119814   0.761   5.134   6.628 -0.3553 -2.2577 -0.1695
 4989SOL    HW219815   0.741   5.061   6.759 -1.0960  1.5585  2.0030
 4990SOL     OW19816   0.824   9.456   4.684  0.0338 -0.3253 -0.5037
 4990SOL    HW119817   0.744   9.495   4.648  0.9293  1.3522 -0.7775
 4990SOL    HW219818   0.894   9.489   4.628  1.3475  1.3424  1.9448
 4991SOL     OW19819   1.073   5.648   5.817 -0.2826 -0.1013  0.3961
 4991SOL    HW119820   1.007   5.662   5.750 -0.3859  0.8455  0.6773
 4991SOL    HW219821   1.120   5.570   5.789 -0.5246  0.1000 -0.6112
 4992SOL     OW19822   1.203   8.690   3.582  0.0690 -0.3656 -0.4051
 4992SOL    HW119823   1.177   8.650   3.500 -0.9845 -0.6654  0.0508
 4992SOL    HW219824   1.140   8.657   3.646 -0.1152  1.1076  0.2145
 4993SOL     OW19825   3.931   8.268   5.915  0.6245  0.3333  0.0138
 4993SOL    HW119826   3.846   8.242   5.950 -0.4938  1.0693 -1.9747
 4993SOL    HW219827   3.948   8.353   5.956 -1.0438  1.5653 -1.6394
 4994SOL     OW19828   1.940   8.455   3.979 -0.7713  0.3299  0.3716
 4994SOL    HW119829   1.872   8.516   4.008 -0.1569  2.2091 -1.8653
 4994SOL    HW219830   2.023   8.499   4.000 -0.1013 -1.7208  2.6389
 4995SOL     OW19831   0.145   6.297   7.151  0.0928 -0.3908  0.0612
 4995SOL    HW119832   0.058   6.327   7.177 -0.4650 -2.0358  0.2232
 4995SOL    HW219833   0.146   6.203   7.173  1.7440 -0.5101 -0.3591
 4996SOL     OW19834   8.969   0.098   6.402 -0.2539 -0.6014  0.4171
 4996SOL    HW119835   8.976   0.169   6.338  0.2995 -2.2508 -1.4385
 4996SOL    HW219836   9.031   0.122   6.471 -2.0491  2.0333  1.2386
 4997SOL     OW19837   1.708   8.599   7.718  0.3645 -0.0297 -0.7530
 4997SOL    HW119838   1.706   8.672   7.655 -2.0461 -0.4113 -1.1827
 4997SOL    HW219839   1.741   8.639   7.798 -2.9637  2.2044 -0.2991
 4998SOL     OW19840   1.421   8.951   6.487 -0.1264  0.7498  0.2553
 4998SOL    HW119841   1.394   8.946   6.579 -0.1639  0.5420  0.2346
 4998SOL    HW219842   1.476   9.029   6.482  0.5305  0.3275  0.6285
 4999SOL     OW19843   0.109   7.018   5.559 -0.1284  0.1113  0.9864
 4999SOL    HW119844   0.171   7.090   5.547  1.2933 -1.1192  0.6924
 4999SOL    HW219845   0.047   7.029   5.487  1.8356 -0.6517 -0.9663
 5000SOL     OW19846   2.310   7.947   5.072  0.5185  0.1144  0.2073
 5000SOL    HW119847   2.330   8.041   5.069  1.0175 -0.0007 -0.1490
 5000SOL    HW219848   2.247   7.939   5.144  2.7185  0.3217  2.2844
 5001SOL     OW19849   1.235   6.098   3.173  0.1885  0.5486  1.2852
 5001SOL    HW119850   1.201   6.025   3.224 -1.1115  1.1535  1.3081
 5001SOL    HW219851   1.158   6.143   3.139  0.9862  0.5540 -0.6936
 5002SOL     OW19852   1.335   8.779   8.237 -0.2964  0.0585 -0.4482
 5002SOL    HW119853   1.361   8.730   8.315 -1.1346 -1.0326 -0.8234
 5002SOL    HW219854   1.239   8.780   8.241 -0.3112  1.4378 -0.6146
 5003SOL     OW19855   1.015   9.438   4.931 -0.1191  0.1503  0.2690
 5003SOL    HW119856   1.013   9.374   4.860 -3.4762  0.2291  0.1523
 5003SOL    HW219857   1.057   9.515   4.893  0.2692 -0.5861 -0.8423
 5004SOL     OW19858   9.009   0.320   6.224  0.1876  0.0858 -0.1366
 5004SOL    HW119859   8.969   0.316   6.137 -0.3365 -1.5109  0.1573
 5004SOL    HW219860   9.103   0.311   6.208  0.0957 -0.2049 -0.5275
 5005SOL     OW19861   1.104   0.041   7.168  0.0783 -0.1307  0.6664
 5005SOL    HW119862   1.030   0.086   7.209  0.2348 -0.3233  1.1587
 5005SOL    HW219863   1.166   0.111   7.146  0.1866 -0.0704  1.1564
 5006SOL     OW19864   2.524   5.380   5.958 -0.1705 -0.5091  0.0325
 5006SOL    HW119865   2.456   5.369   6.024 -0.8576 -3.0728 -0.9737
 5006SOL    HW219866   2.601   5.336   5.995 -0.2852 -1.1370 -0.4511
 5007SOL     OW19867   9.041   0.011   6.012  0.1643  0.3682 -0.2054
 5007SOL    HW119868   8.991   0.085   5.979 -3.5236 -1.8093 -0.0808
 5007SOL    HW219869   9.067  -0.038   5.934 -1.5937 -0.6150 -0.2204
 5008SOL     OW19870   0.109   8.410   5.605 -0.0921 -0.0703 -0.1036
 5008SOL    HW119871   0.196   8.387   5.573 -0.1888 -0.1181 -0.3306
 5008SOL    HW219872   0.049   8.381   5.536 -0.3367 -0.5874  0.3124
 5009SOL     OW19873   1.545   7.679   6.411  0.6098 -0.2954 -0.4458
 5009SOL    HW119874   1.631   7.658   6.375  1.6562  0.9667  1.1434
 5009SOL    HW219875   1.546   7.775   6.421 -0.6385 -0.3434  0.4065
 5010SOL     OW19876   9.745   7.051   6.389  0.2555  0.0730  0.1744
 5010SOL    HW119877   9.812   6.983   6.390 -0.4353 -0.6152  0.6397
 5010SOL    HW219878   9.676   7.018   6.446 -0.0405  1.2266  0.5188
 5011SOL     OW19879   1.285   7.171   5.291  0.2384 -0.6280  0.5480
 5011SOL    HW119880   1.361   7.187   5.236  0.1584  2.2760  1.1105
 5011SOL    HW219881   1.297   7.082   5.323  3.4216 -0.3114  0.5960
 5012SOL     OW19882   1.579   4.627   5.866 -0.8107  0.0307 -0.1775
 5012SOL    HW119883   1.500   4.680   5.878 -0.4952  0.5337 -0.2926
 5012SOL    HW219884   1.639   4.656   5.935 -0.5357  0.0148 -0.4069
 5013SOL     OW19885   1.239   8.815   5.685  0.7812 -0.3183 -0.1049
 5013SOL    HW119886   1.323   8.774   5.666  0.6340 -0.3698 -0.6521
 5013SOL    HW219887   1.248   8.905   5.652  1.0248  0.0308  0.8859
 5014SOL     OW19888   0.049   8.051   6.759 -0.4514  0.0489  0.0927
 5014SOL    HW119889   0.132   8.040   6.806 -1.0483  0.4042  1.2791
 5014SOL    HW219890  -0.016   8.010   6.817 -1.2939  1.0103 -0.1524
 5015SOL     OW19891   3.434   8.913   7.491  0.0849  0.0976  0.6005
 5015SOL    HW119892   3.469   8.834   7.450 -2.1514  0.1135 -1.6340
 5015SOL    HW219893   3.511   8.963   7.519  1.6521 -1.4641 -0.7149
 5016SOL     OW19894   1.590   8.615   6.434  0.2686  0.7391 -0.4451
 5016SOL    HW119895   1.634   8.569   6.362 -0.0199 -0.0714 -0.1123
 5016SOL    HW219896   1.527   8.672   6.390 -1.5138 -1.3857 -0.8339
 5017SOL     OW19897   9.027   8.064   6.618  0.2202 -0.0360 -0.2491
 5017SOL    HW119898   9.082   7.994   6.653  1.2108  0.7878 -0.0968
 5017SOL    HW219899   8.949   8.064   6.673 -0.0744 -1.3870 -0.6165
 5018SOL     OW19900   2.450   0.215   4.291  0.3129 -0.4911  0.1670
 5018SOL    HW119901   2.362   0.195   4.258  0.9415 -1.0657 -1.2603
 5018SOL    HW219902   2.466   0.148   4.357 -0.1012 -0.7414  0.0213
 5019SOL     OW19903   1.257   6.924   5.378  0.4213  0.1821  0.5726
 5019SOL    HW119904   1.280   6.871   5.454  2.6379  0.3499  0.0940
 5019SOL    HW219905   1.162   6.917   5.371  0.4669 -2.2924  1.5637
 5020SOL     OW19906   0.416   8.272   6.769 -0.0969 -0.0712  0.1415
 5020SOL    HW119907   0.481   8.267   6.839  0.2200  1.3418 -0.0390
 5020SOL    HW219908   0.416   8.184   6.731 -1.7604 -1.5387  3.1745
 5021SOL     OW19909   1.995   7.635   6.679  0.2342  0.1613 -0.2397
 5021SOL    HW119910   1.975   7.577   6.753  1.1769  0.0380 -0.0614
 5021SOL    HW219911   2.046   7.706   6.718 -2.4062  2.1475 -0.1196
 5022SOL     OW19912   3.222   6.636   4.674  0.3897  0.0972 -0.1666
 5022SOL    HW119913   3.161   6.630   4.600  0.7378  0.2853 -0.4714
 5022SOL    HW219914   3.294   6.691   4.642  0.3981  0.4313  0.4137
 5023SOL     OW19915   0.692   9.333   6.564  0.0585 -0.6557 -0.7612
 5023SOL    HW119916   0.670   9.412   6.613 -0.2159 -1.7086  0.9002
 5023SOL    HW219917   0.610   9.284   6.560  0.4282 -1.2687 -0.9853
 5024SOL     OW19918   1.925   9.620   0.016  0.1699 -0.1635  0.2760
 5024SOL    HW119919   1.925   9.530   0.050  2.2685  0.1473  1.2825
 5024SOL    HW219920   2.008   9.627  -0.031  0.2640  1.3804  0.6319
 5025SOL     OW19921   4.087   5.021   4.198 -0.4194  0.5051 -0.0697
 5025SOL    HW119922   4.040   5.090   4.152 -1.3329 -0.4179 -0.5845
 5025SOL    HW219923   4.022   4.951   4.209  0.3855 -0.1543  0.6960
 5026SOL     OW19924   8.846   5.398   7.230  0.1399  0.5393  0.0702
 5026SOL    HW119925   8.836   5.492   7.246 -0.1404  0.5277 -0.0205
 5026SOL    HW219926   8.896   5.392   7.149  1.0967  0.6014  0.6513
 5027SOL     OW19927   4.060   9.379   6.937  0.0861 -0.0584  0.2315
 5027SOL    HW119928   4.146   9.374   6.896 -0.7877 -0.9977 -1.5928
 5027SOL    HW219929   4.067   9.325   7.016  1.2004  0.0788  0.2432
 5028SOL     OW19930   3.814   7.070   6.324  0.0409  0.3661  0.1150
 5028SOL    HW119931   3.787   6.980   6.306 -0.6382  0.4144  0.8268
 5028SOL    HW219932   3.909   7.069   6.314 -0.0561 -0.1876 -0.8596
 5029SOL     OW19933   0.552   4.903   6.445 -0.4436 -0.5212 -0.1465
 5029SOL    HW119934   0.572   4.901   6.538 -0.4697 -0.4018 -0.1382
 5029SOL    HW219935   0.472   4.851   6.435  0.3022 -1.6809 -0.2863
 5030SOL     OW19936   1.485   7.320   5.694 -0.4045  0.2917  0.1680
 5030SOL    HW119937   1.565   7.371   5.681 -0.9739  0.8991 -1.2055
 5030SOL    HW219938   1.419   7.385   5.722 -0.8637  0.1446 -0.5358
 5031SOL     OW19939   3.733   8.988   6.532 -0.9004 -0.1669  0.0941
 5031SOL    HW119940   3.704   9.079   6.539  0.1084  0.2999 -1.3691
 5031SOL    HW219941   3.815   8.993   6.484  0.0072 -1.7275  1.3976
 5032SOL     OW19942   1.843   7.349   4.214  0.7793  0.2520  0.2684
 5032SOL    HW119943   1.858   7.274   4.271 -0.4187 -1.5204 -1.5887
 5032SOL    HW219944   1.814   7.419   4.273  4.3061  0.1398  2.3748
 5033SOL     OW19945   7.405   7.334   5.990 -0.5669  0.1050  0.0013
 5033SOL    HW119946   7.357   7.276   6.049 -1.9696 -2.1871 -3.1048
 5033SOL    HW219947   7.492   7.341   6.030 -1.5004 -0.9517  2.4922
 5034SOL     OW19948   0.672   9.239   5.662 -0.2222  0.3443 -0.1386
 5034SOL    HW119949   0.662   9.330   5.633  2.4931  1.2875  1.4981
 5034SOL    HW219950   0.728   9.199   5.596 -0.5006  0.1917 -0.2815
 5035SOL     OW19951   7.041   8.490   5.109  0.0815 -0.2453 -0.1120
 5035SOL    HW119952   6.968   8.448   5.154  0.3434  2.5244  3.3099
 5035SOL    HW219953   7.117   8.436   5.131  0.0639  0.6089  2.2715
 5036SOL     OW19954   1.230   8.270   8.350  0.0991  0.1476  0.0541
 5036SOL    HW119955   1.321   8.255   8.325 -0.1072  0.0135 -0.6376
 5036SOL    HW219956   1.214   8.208   8.421  0.0487 -1.0599 -0.9793
 5037SOL     OW19957   3.157   8.918   7.305 -0.0570 -0.1383  0.1917
 5037SOL    HW119958   3.075   8.928   7.353 -0.6678 -1.2223 -0.5743
 5037SOL    HW219959   3.214   8.868   7.365 -0.1563  0.1001  0.4899
 5038SOL     OW19960   1.373   8.657   7.636  0.7052  0.2646  0.9067
 5038SOL    HW119961   1.385   8.748   7.610  0.1420  0.4728  1.3642
 5038SOL    HW219962   1.415   8.607   7.566  0.0516  0.8401  0.0896
 5039SOL     OW19963   2.513   0.033   5.816 -0.1218 -0.0856  0.1119
 5039SOL    HW119964   2.453  -0.023   5.766 -0.3165 -0.8949  1.2025
 5039SOL    HW219965   2.575   0.067   5.752 -0.0953 -1.4467 -0.6090
 5040SOL     OW19966   3.133   9.655   6.980  0.3351 -0.4161 -0.5842
 5040SOL    HW119967   3.040   9.635   6.972  0.5115 -2.2793  1.2974
 5040SOL    HW219968   3.136   9.751   6.983 -1.5099 -0.3086 -0.7887
 5041SOL     OW19969   9.152   5.460   8.341 -0.0193 -0.3320  0.2048
 5041SOL    HW119970   9.104   5.489   8.263  0.9038 -1.3897 -0.7863
 5041SOL    HW219971   9.243   5.454   8.313  0.5479  0.4761  1.7342
 5042SOL     OW19972   8.393   7.045   5.282 -0.3569 -0.2102 -0.2322
 5042SOL    HW119973   8.310   7.011   5.251  0.0822 -0.7934 -0.8134
 5042SOL    HW219974   8.378   7.139   5.293 -1.2153 -0.3848  0.1323
 5043SOL     OW19975   7.478   8.384   6.982  0.1238 -0.2082 -0.1164
 5043SOL    HW119976   7.451   8.474   6.964 -1.1720 -0.0001  2.5080
 5043SOL    HW219977   7.410   8.330   6.940  0.3049  0.0380 -0.7465
 5044SOL     OW19978   9.033   6.678   4.603 -0.3116  0.3192  0.2733
 5044SOL    HW119979   8.995   6.766   4.610 -1.0452  0.0282  0.0099
 5044SOL    HW219980   8.997   6.631   4.678  0.5712  0.4118  0.7726
 5045SOL     OW19981   2.172   6.566   5.845  0.5183 -0.1925 -0.1745
 5045SOL    HW119982   2.229   6.640   5.826  0.4157 -0.3116 -0.9663
 5045SOL    HW219983   2.229   6.502   5.888  1.2892 -0.7892 -1.9760
 5046SOL     OW19984   9.307   8.506   7.904  0.0617 -0.3756  0.5768
 5046SOL    HW119985   9.362   8.560   7.960  0.3971  0.8988 -0.8944
 5046SOL    HW219986   9.344   8.518   7.816 -0.4698 -2.2503  0.0512
 5047SOL     OW19987   0.695   8.267   5.638  0.0947 -0.3695  0.7763
 5047SOL    HW119988   0.668   8.343   5.690  0.7627  0.6333 -0.2927
 5047SOL    HW219989   0.718   8.200   5.703 -1.3274  0.0268  1.7378
 5048SOL     OW19990   8.153   8.394   6.304 -0.0660 -0.2339 -0.0777
 5048SOL    HW119991   8.110   8.432   6.380 -0.7439 -1.1742  0.0313
 5048SOL    HW219992   8.153   8.464   6.239  1.6235  0.9844  1.1590
 5049SOL     OW19993   2.046   8.805   5.014  0.0386 -0.1764  0.2940
 5049SOL    HW119994   2.069   8.871   5.080  0.8692 -0.2757  0.1084
 5049SOL    HW219995   1.975   8.756   5.054  0.2890  0.0002  0.9708
 5050SOL     OW19996   1.719   7.650   8.132  0.5088 -0.3019  0.1107
 5050SOL    HW119997   1.653   7.718   8.124 -1.9204 -1.9869  3.4963
 5050SOL    HW219998   1.788   7.688   8.187 -0.6979 -0.3916  1.7481
 5051SOL     OW19999   0.073   8.674   7.950  0.7640 -0.4605  0.3165
 5051SOL    HW120000   0.101   8.735   7.882  2.8479 -1.3317  0.3126
 5051SOL    HW220001   0.105   8.588   7.920 -1.4142 -1.4618  0.6925
 5052SOL     OW20002   2.223   8.868   6.693  0.0749 -0.2986  0.0435
 5052SOL    HW120003   2.146   8.919   6.716  0.5371 -0.7094  2.8769
 5052SOL    HW220004   2.252   8.904   6.610 -0.3035  3.2591  1.2983
 5053SOL     OW20005   7.775   6.523   8.325 -0.2704 -0.1001 -0.0934
 5053SOL    HW120006   7.709   6.495   8.388  0.0961 -0.5548  0.0936
 5053SOL    HW220007   7.809   6.442   8.287  0.1555  0.1287 -0.2127
 5054SOL     OW20008   0.261   7.497   7.948  0.3613 -0.0057 -0.0143
 5054SOL    HW120009   0.183   7.509   8.002  0.3754  1.2912 -0.2544
 5054SOL    HW220010   0.231   7.443   7.874 -0.7825  1.8788 -1.0090
 5055SOL     OW20011   1.671   7.918   5.994 -0.0187 -0.5418 -0.4067
 5055SOL    HW120012   1.754   7.951   6.029 -0.6756  1.7522 -0.8591
 5055SOL    HW220013   1.697   7.856   5.925  1.3577  0.9199 -1.2735
 5056SOL     OW20014   1.639   7.028   6.264  1.0153  0.1977  0.3334
 5056SOL    HW120015   1.665   7.060   6.177  2.2902 -2.4315 -0.3532
 5056SOL    HW220016   1.721   7.011   6.309  0.4188 -1.2543  0.9390
 5057SOL     OW20017   2.237   7.754   5.908  0.4842 -0.4621 -0.1052
 5057SOL    HW120018   2.270   7.745   5.819  4.1258  2.1048  0.7572
 5057SOL    HW220019   2.235   7.848   5.924 -3.5840 -0.5892  1.4978
 5058SOL     OW20020   1.401   6.459   7.619 -0.0983  0.1336  0.3436
 5058SOL    HW120021   1.480   6.475   7.569 -0.0196 -0.2922  0.3288
 5058SOL    HW220022   1.426   6.474   7.710 -0.0780  0.2928  0.3110
 5059SOL     OW20023   8.346   8.239   5.094 -0.2274  0.5707  0.3544
 5059SOL    HW120024   8.404   8.281   5.030 -1.3858  2.4975  0.5010
 5059SOL    HW220025   8.404   8.182   5.144  1.3000  1.3799 -0.4134
 5060SOL     OW20026   0.702   0.395   6.462 -0.6314 -0.0240  0.0839
 5060SOL    HW120027   0.620   0.391   6.511  0.1136  0.8780  1.4718
 5060SOL    HW220028   0.708   0.486   6.433  0.5491  0.3045  1.2657
 5061SOL     OW20029   7.617   4.788   4.428 -0.3312  0.5439  0.5183
 5061SOL    HW120030   7.697   4.798   4.378  0.2499  0.2915  1.3658
 5061SOL    HW220031   7.623   4.700   4.466  0.4918  1.6035  3.0851
 5062SOL     OW20032   1.662   6.715   6.309  0.5375 -0.2173 -0.8460
 5062SOL    HW120033   1.626   6.627   6.318 -1.8383  0.7928  0.6308
 5062SOL    HW220034   1.609   6.756   6.241 -1.6040  1.4113  1.5932
 5063SOL     OW20035   0.682   8.210   7.991  0.6771  0.2719  0.7955
 5063SOL    HW120036   0.646   8.149   8.056  1.4822  0.1160  1.1096
 5063SOL    HW220037   0.713   8.154   7.920 -0.1736  0.4415  0.2729
 5064SOL     OW20038   2.827   9.581   7.610  0.1287  0.1523  0.3300
 5064SOL    HW120039   2.906   9.594   7.664 -0.6461  1.0023  1.3020
 5064SOL    HW220040   2.755   9.588   7.672 -0.6975 -1.5324 -0.3915
 5065SOL     OW20041   0.543   7.277   6.133 -0.0190 -0.2340  0.3338
 5065SOL    HW120042   0.478   7.254   6.067 -0.4859 -2.5234  1.5023
 5065SOL    HW220043   0.498   7.340   6.190 -1.1366 -1.5118  0.9140
 5066SOL     OW20044   3.355   7.841   4.245  0.1008 -0.0398  0.0989
 5066SOL    HW120045   3.425   7.906   4.240 -1.3279  1.5422 -0.4721
 5066SOL    HW220046   3.275   7.893   4.246 -1.1868 -1.8268 -1.9113
 5067SOL     OW20047   1.269   7.970   5.196  0.1213 -0.6263  0.2052
 5067SOL    HW120048   1.342   7.949   5.255  1.4568 -0.2316 -1.2425
 5067SOL    HW220049   1.263   7.894   5.138 -0.8932 -0.8211  0.5521
 5068SOL     OW20050   8.831   9.757   6.867 -0.7627  0.2870  0.1843
 5068SOL    HW120051   8.848   9.843   6.905 -0.5480 -0.0006  0.7618
 5068SOL    HW220052   8.866   9.762   6.778  1.0669  0.1791  0.8517
 5069SOL     OW20053   2.256   9.117   5.935  0.3071 -0.3851  0.0128
 5069SOL    HW120054   2.284   9.026   5.929 -0.4464 -0.6419  0.3080
 5069SOL    HW220055   2.333   9.164   5.967  0.0550 -1.3001  2.1437
 5070SOL     OW20056   1.197   7.991   7.318  0.1255 -0.1568 -0.3543
 5070SOL    HW120057   1.176   7.902   7.289  0.4321 -0.4835  0.4164
 5070SOL    HW220058   1.284   7.984   7.356 -0.9202 -0.1367  2.2753
 5071SOL     OW20059   0.934   6.342   7.485  0.5502 -0.3253  0.2899
 5071SOL    HW120060   0.929   6.397   7.407 -1.9142 -1.2116 -0.2567
 5071SOL    HW220061   1.023   6.306   7.483  1.7293  2.3657 -0.1495
 5072SOL     OW20062   1.410   7.738   5.304 -0.3235  0.1848 -0.6367
 5072SOL    HW120063   1.353   7.688   5.363  1.7153 -2.5959 -0.8095
 5072SOL    HW220064   1.360   7.744   5.223 -0.5449 -2.0010 -0.7347
 5073SOL     OW20065   6.950   6.713   5.104 -0.0177 -0.1568  0.5215
 5073SOL    HW120066   6.979   6.801   5.128  0.7209 -0.8118  2.1996
 5073SOL    HW220067   6.970   6.660   5.181 -0.9558 -1.6904 -0.2538
 5074SOL     OW20068   3.097   7.482   5.419  0.0294  0.0009  0.0729
 5074SOL    HW120069   3.092   7.532   5.337  1.1870 -0.2239 -0.1602
 5074SOL    HW220070   3.008   7.484   5.454 -0.8906 -1.2865 -2.0157
 5075SOL     OW20071   1.687   9.505   4.633 -0.3525  0.1547 -0.2960
 5075SOL    HW120072   1.619   9.512   4.699  1.2497 -0.1523  1.4524
 5075SOL    HW220073   1.710   9.413   4.632  1.7724  0.6177  1.0103
 5076SOL     OW20074   2.801   8.453   6.634 -0.1508  0.2937  0.3026
 5076SOL    HW120075   2.752   8.439   6.554 -0.4706  0.1317  0.5260
 5076SOL    HW220076   2.841   8.539   6.623  0.7995 -0.2260 -0.5438
 5077SOL     OW20077   2.944   7.681   7.267 -1.1654  0.5126  0.2476
 5077SOL    HW120078   2.917   7.601   7.310  0.8957 -0.7443 -0.6284
 5077SOL    HW220079   2.991   7.731   7.334 -2.0349  0.7813  0.6645
 5078SOL     OW20080   1.708   7.424   5.575 -0.4146  0.0474  0.1593
 5078SOL    HW120081   1.633   7.419   5.516 -0.8132 -0.8728  0.7223
 5078SOL    HW220082   1.773   7.477   5.528 -0.6881 -0.7263 -1.1295
 5079SOL     OW20083   0.927   9.612   7.316 -0.5032 -0.2780 -0.3154
 5079SOL    HW120084   1.008   9.657   7.338 -0.3176 -0.8930  0.3026
 5079SOL    HW220085   0.861   9.681   7.308  0.1807  0.2702 -1.3050
 5080SOL     OW20086   6.275   5.888   3.930  0.9129 -0.6210 -0.0369
 5080SOL    HW120087   6.203   5.933   3.974  3.2260  2.5703  0.8323
 5080SOL    HW220088   6.260   5.905   3.837  0.0777 -0.8401  0.0468
 5081SOL     OW20089   1.633   7.057   7.417 -0.4417 -0.0293  0.8031
 5081SOL    HW120090   1.627   7.152   7.426 -1.7216 -0.0418  0.2665
 5081SOL    HW220091   1.709   7.033   7.470  2.4991  1.7294 -2.2456
 5082SOL     OW20092   0.223   9.532   7.059  0.5894 -0.0808 -0.2669
 5082SOL    HW120093   0.163   9.514   7.132 -0.2139 -0.7112 -1.0607
 5082SOL    HW220094   0.289   9.463   7.064 -0.1034 -0.7920 -0.7936
 5083SOL     OW20095   2.662   7.933   5.017 -0.3277 -0.1265  0.1863
 5083SOL    HW120096   2.654   8.009   4.959  0.0523 -1.6512 -2.0255
 5083SOL    HW220097   2.754   7.934   5.044 -1.0734  2.0575  3.0574
 5084SOL     OW20098   2.226   9.691   5.205 -0.0447 -0.7800  0.3348
 5084SOL    HW120099   2.186   9.615   5.249  0.1349 -0.7931  0.4782
 5084SOL    HW220100   2.211   9.675   5.112 -1.0698 -0.3949  0.4234
 5085SOL     OW20101   1.144   6.436   4.635  0.6962 -0.4021  0.4002
 5085SOL    HW120102   1.111   6.520   4.603 -3.4604 -1.2742  1.7325
 5085SOL    HW220103   1.210   6.459   4.700  1.1200  1.6965 -0.6891
 5086SOL     OW20104   8.609   6.551   5.130  0.3171  0.3955  0.0147
 5086SOL    HW120105   8.674   6.485   5.154  0.4326  0.5066  0.0101
 5086SOL    HW220106   8.643   6.632   5.167 -0.4068  0.2463  1.0244
 5087SOL     OW20107   0.908   9.581   6.501 -0.2289  0.0051  0.1415
 5087SOL    HW120108   0.927   9.502   6.451  0.3317  0.8794 -1.0754
 5087SOL    HW220109   0.912   9.554   6.592 -0.8830 -1.5518 -0.2626
 5088SOL     OW20110   1.750   8.381   7.950 -0.3154 -0.1526  0.2662
 5088SOL    HW120111   1.841   8.393   7.979 -0.5203  0.5434  0.6287
 5088SOL    HW220112   1.736   8.449   7.884 -0.4584 -0.5075 -0.0772
 5089SOL     OW20113   4.398   0.955   7.434  0.2939  0.0533  0.2888
 5089SOL    HW120114   4.478   1.005   7.451  0.1000  0.3172  0.4335
 5089SOL    HW220115   4.363   0.994   7.354  0.0966  0.2095  0.4505
 5090SOL     OW20116   0.874   2.164   6.272 -0.1965 -0.5219  0.1278
 5090SOL    HW120117   0.953   2.152   6.220 -2.0181 -4.5043 -2.2178
 5090SOL    HW220118   0.893   2.117   6.354  0.2225 -0.5780  0.0023
 5091SOL     OW20119   0.868   1.106   7.137  0.0320  0.0141 -0.6647
 5091SOL    HW120120   0.871   1.202   7.142 -0.3591  0.0325 -0.7878
 5091SOL    HW220121   0.817   1.080   7.213 -1.4966  0.0133 -1.6556
 5092SOL     OW20122   0.553   9.226   5.194  0.0498 -0.3302 -0.2142
 5092SOL    HW120123   0.494   9.152   5.187  0.4812 -0.6702 -0.2816
 5092SOL    HW220124   0.640   9.190   5.177  0.5078 -0.2018  1.6256
 5093SOL     OW20125   1.493   8.067   4.161 -0.1455  0.6763 -0.3121
 5093SOL    HW120126   1.412   8.062   4.212 -0.6775  1.9409 -0.9732
 5093SOL    HW220127   1.469   8.035   4.074  0.1302  0.7970 -0.4352
 5094SOL     OW20128   8.251   1.946   8.022 -0.3981 -0.2442  0.5300
 5094SOL    HW120129   8.331   1.987   7.990  0.1168 -1.3938  0.3026
 5094SOL    HW220130   8.272   1.916   8.110 -0.8082  0.0908  0.7449
 5095SOL     OW20131   0.690   5.795   4.746 -0.3584  0.3847 -0.5723
 5095SOL    HW120132   0.613   5.749   4.780 -0.8981  0.7169 -1.3097
 5095SOL    HW220133   0.751   5.797   4.820 -0.0379 -2.0567 -0.6841
 5096SOL     OW20134   1.299   7.215   8.284 -0.1619  0.1329 -0.0119
 5096SOL    HW120135   1.389   7.219   8.251 -0.1032 -0.8904  0.0029
 5096SOL    HW220136   1.245   7.242   8.210  0.2009  2.0513  0.3544
 5097SOL     OW20137   9.050   1.622   5.888 -0.2143  0.4117  0.0196
 5097SOL    HW120138   9.033   1.528   5.879 -0.5677  0.5499 -0.8658
 5097SOL    HW220139   9.138   1.627   5.926 -0.2619 -0.2714  0.2375
 5098SOL     OW20140   1.839   8.700   7.946  0.2094  0.0575 -0.2996
 5098SOL    HW120141   1.843   8.786   7.989 -2.7640 -0.4171  1.1507
 5098SOL    HW220142   1.849   8.637   8.017 -0.1577 -0.7862 -0.9757
 5099SOL     OW20143   2.707   9.521   7.342  0.6582  0.0395 -0.4074
 5099SOL    HW120144   2.749   9.606   7.335  0.8635  0.0498  0.7370
 5099SOL    HW220145   2.687   9.512   7.435 -1.0929 -0.3313 -0.7819
 5100SOL     OW20146   8.754   6.511   6.133 -0.2670  0.2079  0.2867
 5100SOL    HW120147   8.824   6.448   6.115 -2.4665 -1.6101 -2.7965
 5100SOL    HW220148   8.742   6.507   6.228  2.3751 -0.9331  0.6613
 5101SOL     OW20149   0.811   8.460   4.178 -0.2863 -0.2903  0.6013
 5101SOL    HW120150   0.760   8.475   4.098 -1.4488  1.0542  1.5550
 5101SOL    HW220151   0.790   8.533   4.235 -0.7856 -2.0341  2.8151
 5102SOL     OW20152   1.584   6.416   8.113  0.2254 -0.5223 -0.4817
 5102SOL    HW120153   1.533   6.468   8.051 -0.9936 -0.7194  0.3055
 5102SOL    HW220154   1.534   6.422   8.195  2.0686  0.1785  0.6469
 5103SOL     OW20155   1.143   7.477   5.737 -0.4921  0.2222  0.2249
 5103SOL    HW120156   1.198   7.514   5.806 -0.6425 -0.6814  0.8328
 5103SOL    HW220157   1.095   7.552   5.702 -0.3881  0.6938  1.0770
 5104SOL     OW20158   3.985   9.058   6.411  0.3935 -0.2301  0.1173
 5104SOL    HW120159   4.046   9.065   6.485  1.0897  2.0666 -0.5797
 5104SOL    HW220160   4.007   9.133   6.355 -4.0338  1.7705  0.6100
 5105SOL     OW20161   8.115   7.613   5.767 -0.3376  0.0597 -0.4574
 5105SOL    HW120162   8.119   7.521   5.792 -0.8860 -0.0625 -0.8032
 5105SOL    HW220163   8.187   7.625   5.705 -1.4709 -0.6337 -1.9700
 5106SOL     OW20164   9.273   9.538   6.775  0.1145 -0.7202  0.6720
 5106SOL    HW120165   9.303   9.628   6.786 -0.7995 -0.1976 -0.7668
 5106SOL    HW220166   9.328   9.502   6.705  0.0834 -1.0756  0.8262
 5107SOL     OW20167   1.593   8.245   6.947  0.0451 -0.2092  0.8825
 5107SOL    HW120168   1.587   8.215   6.856 -0.7632 -1.3823  1.2938
 5107SOL    HW220169   1.569   8.337   6.943 -0.0161 -0.2543 -0.0875
 5108SOL     OW20170   9.011   7.414   6.279 -0.5936  0.1433 -0.1520
 5108SOL    HW120171   8.946   7.443   6.342  0.0241 -0.2460  0.6817
 5108SOL    HW220172   9.074   7.486   6.274 -1.3687  0.7688 -1.3973
 5109SOL     OW20173   1.432   7.871   6.125  0.5255  0.2552  0.7283
 5109SOL    HW120174   1.502   7.877   6.061  0.0066  2.0219  0.2651
 5109SOL    HW220175   1.476   7.875   6.210  1.0740 -0.1164  0.4633
 5110SOL     OW20176   1.150   8.538   7.196  0.2697 -0.0450  0.5784
 5110SOL    HW120177   1.123   8.541   7.288  0.6091 -0.3706  0.6934
 5110SOL    HW220178   1.114   8.456   7.163  1.2510 -0.5742  0.7854
 5111SOL     OW20179   1.502   6.435   8.574 -0.3046 -0.1604 -0.4739
 5111SOL    HW120180   1.468   6.359   8.526 -1.9876 -0.9187  1.6965
 5111SOL    HW220181   1.593   6.412   8.594 -1.4558 -3.0767  2.4910
 5112SOL     OW20182   7.763   8.268   6.130  0.0592 -0.0699  0.8168
 5112SOL    HW120183   7.816   8.218   6.067 -1.7517 -0.6834 -0.2893
 5112SOL    HW220184   7.784   8.360   6.111 -0.9243 -0.2069 -1.2047
 5113SOL     OW20185   0.481   8.056   5.563  0.2919  0.4645 -0.0328
 5113SOL    HW120186   0.524   8.008   5.634 -0.1355 -0.8690 -0.6463
 5113SOL    HW220187   0.541   8.128   5.543  1.3871 -0.3291  0.3135
 5114SOL     OW20188   0.421   9.672   4.275  0.0771 -0.1580  0.2122
 5114SOL    HW120189   0.455   9.756   4.306 -0.2781  0.3410 -0.7049
 5114SOL    HW220190   0.490   9.609   4.294  0.9841  0.6090 -0.4608
 5115SOL     OW20191   0.955   8.209   5.501 -0.2035  0.0728  0.0214
 5115SOL    HW120192   0.867   8.178   5.483 -0.5165  0.0998  1.3813
 5115SOL    HW220193   0.943   8.295   5.542  0.4102 -0.1556  0.7117
 5116SOL     OW20194   0.196   5.777   7.728  0.1466  0.0028  0.0475
 5116SOL    HW120195   0.255   5.763   7.654 -0.9942 -0.1116 -0.8838
 5116SOL    HW220196   0.177   5.870   7.727 -1.1295 -0.2422 -0.8366
 5117SOL     OW20197   2.252   9.400   6.066  0.0673  0.6489 -0.1254
 5117SOL    HW120198   2.238   9.309   6.091 -1.9074  0.6934 -0.8732
 5117SOL    HW220199   2.339   9.421   6.098 -0.2063 -0.8967  1.8008
 5118SOL     OW20200   1.752   6.712   3.994 -0.1804  0.3515  0.3955
 5118SOL    HW120201   1.805   6.639   3.961  1.2471  1.3374  0.3747
 5118SOL    HW220202   1.726   6.760   3.915  0.3386  0.8014  0.4889
 5119SOL     OW20203   2.209   0.203   6.530 -0.2376  0.6766  0.1037
 5119SOL    HW120204   2.143   0.219   6.463  1.7914  0.2121 -2.1261
 5119SOL    HW220205   2.216   0.108   6.536  0.3685  0.7140  0.1425
 5120SOL     OW20206   1.692   0.772   5.713 -0.0119  0.3922  0.3444
 5120SOL    HW120207   1.661   0.818   5.791  0.9669 -0.5080  1.3057
 5120SOL    HW220208   1.781   0.804   5.701 -0.4919  1.2871 -1.0520
 5121SOL     OW20209   1.661   7.356   6.698 -0.7371  0.4090  0.2897
 5121SOL    HW120210   1.579   7.405   6.702  0.0597  1.8647 -0.5048
 5121SOL    HW220211   1.654   7.304   6.618 -1.5715 -0.8013  1.1174
 5122SOL     OW20212   3.068   6.267   8.420 -0.6650 -0.1818  0.2085
 5122SOL    HW120213   3.029   6.184   8.448  1.1625 -0.1269  3.4714
 5122SOL    HW220214   3.162   6.253   8.427 -0.2270  1.4627 -1.5761
 5123SOL     OW20215   3.446   7.224   7.649 -0.4056 -0.3479  0.2870
 5123SOL    HW120216   3.535   7.259   7.650  0.5979 -2.7175 -0.0963
 5123SOL    HW220217   3.391   7.300   7.628  1.5772  1.0299 -0.2438
 5124SOL     OW20218   2.738   8.254   6.900 -0.3821 -0.6001 -0.5443
 5124SOL    HW120219   2.806   8.298   6.951  0.1470 -0.0604 -1.6798
 5124SOL    HW220220   2.744   8.293   6.813 -2.5820 -0.1010 -0.5238
 5125SOL     OW20221   1.300   9.440   7.500  0.0237  0.0293 -0.1297
 5125SOL    HW120222   1.214   9.477   7.521 -0.1366  0.0692 -0.8375
 5125SOL    HW220223   1.363   9.505   7.531 -0.2166  0.2848 -0.1858
 5126SOL     OW20224   3.855   7.060   4.817 -0.3769 -0.2684  0.5718
 5126SOL    HW120225   3.945   7.058   4.851 -0.3031  0.7525  0.4788
 5126SOL    HW220226   3.846   7.148   4.781 -1.5637 -0.2174  0.9632
 5127SOL     OW20227   6.913   6.229   3.697 -0.0692 -0.0167  0.2001
 5127SOL    HW120228   6.959   6.302   3.739 -0.0556 -1.5845  3.2040
 5127SOL    HW220229   6.975   6.156   3.702 -0.2285 -0.4286 -2.3964
 5128SOL     OW20230   3.156   6.534   5.373  0.0419 -0.4745 -0.7696
 5128SOL    HW120231   3.125   6.612   5.327  0.3063 -0.1651 -0.4184
 5128SOL    HW220232   3.102   6.530   5.452  0.8616  0.0424 -0.1748
 5129SOL     OW20233   1.319   5.750   5.966 -0.0140  0.1216 -0.4679
 5129SOL    HW120234   1.380   5.681   5.939  0.5393  0.1434  0.6782
 5129SOL    HW220235   1.241   5.735   5.913 -1.2330 -3.4630  1.9589
 5130SOL     OW20236   0.307   8.742   6.986  0.2403 -0.1852 -0.0159
 5130SOL    HW120237   0.320   8.648   6.977 -0.9914 -0.3786 -0.0158
 5130SOL    HW220238   0.258   8.751   7.068 -0.1423  0.4015 -0.3050
 5131SOL     OW20239   9.091   9.573   7.314 -0.0346 -0.3047 -0.1876
 5131SOL    HW120240   9.082   9.480   7.296  1.1942 -0.5288  0.2583
 5131SOL    HW220241   9.015   9.595   7.367 -0.3627 -1.0341 -0.3497
 5132SOL     OW20242   0.551   7.037   3.464 -0.9792 -0.6957  0.2691
 5132SOL    HW120243   0.466   7.080   3.472 -0.8562 -0.3211 -0.3697
 5132SOL    HW220244   0.541   6.979   3.388 -0.6370 -0.5969  0.1496
 5133SOL     OW20245   9.769   7.284   6.752 -0.1295 -0.0385 -0.4916
 5133SOL    HW120246   9.686   7.239   6.738 -0.4929  0.8736 -1.4090
 5133SOL    HW220247   9.817   7.273   6.670  0.2015  0.3601 -0.3577
 5134SOL     OW20248   2.591   5.378   8.867  0.3736  0.1399  0.4366
 5134SOL    HW120249   2.684   5.399   8.855 -0.1282  2.7563  0.6523
 5134SOL    HW220250   2.553   5.384   8.780  0.0326  1.1889  0.6501
 5135SOL     OW20251   3.294   0.850   8.108  0.3623 -0.4486 -0.1259
 5135SOL    HW120252   3.287   0.863   8.202 -0.1369 -1.0745 -0.0704
 5135SOL    HW220253   3.340   0.767   8.098 -1.0353 -1.2200 -0.3990
 5136SOL     OW20254   9.566   8.340   7.385 -0.4297  0.0375 -0.1622
 5136SOL    HW120255   9.654   8.360   7.416 -0.5411 -0.2721  0.3559
 5136SOL    HW220256   9.515   8.326   7.464 -0.5226 -1.5961 -0.4860
 5137SOL     OW20257   9.832   0.833   0.174 -0.4438  0.3407  0.0296
 5137SOL    HW120258   9.776   0.828   0.251 -0.0421  0.3214  0.3285
 5137SOL    HW220259   9.921   0.818   0.208 -0.1689  1.1406 -0.3035
 5138SOL     OW20260   1.853   6.921   9.161  0.0573 -0.4654  0.0147
 5138SOL    HW120261   1.875   6.961   9.077  3.0200  1.1424  1.4024
 5138SOL    HW220262   1.792   6.982   9.202 -1.5864 -1.3703 -0.9587
 5139SOL     OW20263   2.586   7.192   5.535  0.0320 -0.5045 -0.1735
 5139SOL    HW120264   2.527   7.159   5.602  0.3010 -1.9109 -0.5871
 5139SOL    HW220265   2.645   7.119   5.517  0.7305  0.2504 -1.0817
 5140SOL     OW20266   0.883   9.717   5.693 -0.7428 -0.4640 -0.1374
 5140SOL    HW120267   0.814   9.672   5.740  0.0111 -2.0166 -0.4564
 5140SOL    HW220268   0.930   9.766   5.761 -1.9597  0.3875  0.1172
 5141SOL     OW20269   3.708   8.465   6.330  0.1323  0.1520  0.3809
 5141SOL    HW120270   3.697   8.497   6.241  0.1605 -1.4934 -0.2462
 5141SOL    HW220271   3.795   8.496   6.356 -0.1801  1.2844  0.1462
 5142SOL     OW20272   1.213   7.593   5.429  0.1951 -0.5009  0.1473
 5142SOL    HW120273   1.168   7.648   5.493 -0.0691  1.9365 -1.9769
 5142SOL    HW220274   1.143   7.551   5.379  0.3907 -1.1900  0.4330
 5143SOL     OW20275   9.622   6.057   7.170  0.3516 -0.6397 -0.2665
 5143SOL    HW120276   9.575   6.115   7.110  0.6560 -1.3552 -1.2139
 5143SOL    HW220277   9.563   5.983   7.183  0.2005 -0.3926  0.4957
 5144SOL     OW20278   9.391   6.168   5.806  0.3398 -0.2411 -0.2768
 5144SOL    HW120279   9.461   6.223   5.773  1.8637 -0.6727  1.9818
 5144SOL    HW220280   9.408   6.082   5.769  1.0482 -0.3458  0.2668
 5145SOL     OW20281   0.075   8.131   5.795  0.0685 -0.2737  0.5041
 5145SOL    HW120282   0.112   8.092   5.716  0.2450  1.5721 -0.3722
 5145SOL    HW220283   0.135   8.203   5.818 -0.5750 -0.0686  1.6683
 5146SOL     OW20284   8.810   9.461   8.323 -0.8302 -0.1952 -0.0487
 5146SOL    HW120285   8.782   9.526   8.387  0.3172  0.4213 -0.1428
 5146SOL    HW220286   8.819   9.380   8.374  0.9191  0.4738  0.8205
 5147SOL     OW20287   1.157   8.434   7.440  0.1986 -0.4865  0.1911
 5147SOL    HW120288   1.222   8.373   7.474 -0.1576 -0.8437  0.2359
 5147SOL    HW220289   1.140   8.495   7.512  0.4205 -0.4430  0.2071
 5148SOL     OW20290   1.464   4.854   8.802  0.4470 -0.4671 -0.4988
 5148SOL    HW120291   1.501   4.804   8.730  1.0558  0.3760 -0.7886
 5148SOL    HW220292   1.369   4.854   8.784  0.1661 -3.0840  0.5415
 5149SOL     OW20293   9.815   8.618   1.892  0.0038  0.1366 -0.7958
 5149SOL    HW120294   9.767   8.536   1.882 -0.7188  0.5451 -0.7234
 5149SOL    HW220295   9.896   8.593   1.937  0.0630 -0.6225 -1.3022
 5150SOL     OW20296   1.411   1.496   9.246 -0.4560 -0.2234 -0.1907
 5150SOL    HW120297   1.399   1.587   9.218 -0.2554  0.6807  2.3713
 5150SOL    HW220298   1.323   1.462   9.259 -0.5278  0.3911  1.0429
 5151SOL     OW20299   0.102   7.573   7.670  0.4390  0.5677  0.3464
 5151SOL    HW120300   0.074   7.625   7.745  2.1704  0.7665  0.9050
 5151SOL    HW220301   0.121   7.486   7.706  0.9637  0.5723  0.0942
 5152SOL     OW20302   2.674   9.080   0.397  0.0971  0.6633  1.0792
 5152SOL    HW120303   2.686   8.988   0.424 -1.7344 -0.5421 -1.6992
 5152SOL    HW220304   2.751   9.100   0.345 -0.7507 -0.3794 -0.6863
 5153SOL     OW20305   9.425   8.202   8.589 -0.0330 -0.0518  0.2304
 5153SOL    HW120306   9.511   8.159   8.589 -0.3344 -0.6777 -0.0302
 5153SOL    HW220307   9.370   8.144   8.643 -0.3829  0.1479  0.0901
 5154SOL     OW20308   0.359   7.927   7.368  0.1175  0.2938  0.3546
 5154SOL    HW120309   0.345   8.021   7.380  1.0592  0.2651  1.9803
 5154SOL    HW220310   0.444   7.921   7.324  0.8035  0.1919  1.6532
 5155SOL     OW20311   9.816   7.283   5.796 -0.3479 -0.6056  0.3565
 5155SOL    HW120312   9.841   7.263   5.706  1.5258  0.3706  0.6307
 5155SOL    HW220313   9.720   7.275   5.796 -0.7661  2.3753 -2.5116
 5156SOL     OW20314   2.522   0.526   8.837 -0.0684 -0.0041 -0.3847
 5156SOL    HW120315   2.428   0.524   8.822 -0.1022 -0.6252 -0.1339
 5156SOL    HW220316   2.558   0.573   8.761 -0.3884 -1.5386 -1.5410
 5157SOL     OW20317   0.847   6.249   0.348 -0.3725 -0.3710 -0.3379
 5157SOL    HW120318   0.859   6.277   0.438 -0.6679  0.3476 -0.5068
 5157SOL    HW220319   0.754   6.264   0.331 -0.1300  0.4091 -1.0456
 5158SOL     OW20320   1.241   8.645   8.873  0.3261 -0.4060  0.0597
 5158SOL    HW120321   1.145   8.647   8.875  0.2244  0.5769 -2.2643
 5158SOL    HW220322   1.266   8.737   8.861  1.3193 -0.9530 -2.9554
 5159SOL     OW20323   1.874   9.354   8.872  0.4363  0.1452  0.2266
 5159SOL    HW120324   1.910   9.439   8.847  0.5675 -0.1664 -0.6556
 5159SOL    HW220325   1.800   9.341   8.812  1.0238 -0.8084 -0.3060
 5160SOL     OW20326   2.322   8.965   9.285 -0.9016 -0.3711 -0.5902
 5160SOL    HW120327   2.249   9.028   9.291 -0.1962  0.3959  0.3118
 5160SOL    HW220328   2.312   8.925   9.199 -2.8425 -0.8353 -0.2063
 5161SOL     OW20329   9.174   6.802   7.416 -0.4564 -0.2261 -0.3071
 5161SOL    HW120330   9.248   6.744   7.434 -2.0846 -3.2290 -2.4130
 5161SOL    HW220331   9.194   6.841   7.331 -0.6590  0.0675 -0.2223
 5162SOL     OW20332   8.907   8.118   5.699 -0.4867 -0.5508 -0.5224
 5162SOL    HW120333   8.821   8.158   5.705 -0.8345 -1.3093 -0.3263
 5162SOL    HW220334   8.959   8.179   5.647 -0.8333  0.4311  0.2514
 5163SOL     OW20335   9.807   9.724   5.879  0.1547  0.5297  0.6181
 5163SOL    HW120336   9.818   9.779   5.957 -1.3907  0.4296  0.9549
 5163SOL    HW220337   9.824   9.782   5.805  1.9335  0.5538  1.0093
 5164SOL     OW20338   9.274   6.524   7.310 -0.2230  0.3204 -0.6204
 5164SOL    HW120339   9.357   6.517   7.357 -0.3587 -0.2376 -0.4511
 5164SOL    HW220340   9.291   6.586   7.240  0.3784  0.1067 -0.6689
 5165SOL     OW20341   9.397   8.007   6.461  0.1495 -0.0541 -0.6291
 5165SOL    HW120342   9.448   8.067   6.406  1.5267 -1.8921 -1.4392
 5165SOL    HW220343   9.384   8.056   6.543  3.9675  0.2886 -0.0253
 5166SOL     OW20344   2.936   5.212   8.773 -0.2331 -0.0542 -0.1767
 5166SOL    HW120345   2.918   5.127   8.813  2.2187  0.3027  1.9547
 5166SOL    HW220346   2.994   5.194   8.700 -0.1426 -0.2710 -0.0511
 5167SOL     OW20347   0.581   8.556   7.057  0.1796  0.3569  0.3614
 5167SOL    HW120348   0.601   8.480   7.111  0.9292 -0.1988 -0.6913
 5167SOL    HW220349   0.493   8.539   7.023  0.1128  0.2390  0.5919
 5168SOL     OW20350   2.200   9.271   7.218  0.5683 -0.0657 -0.2739
 5168SOL    HW120351   2.108   9.243   7.218  0.5546 -0.0198 -0.3849
 5168SOL    HW220352   2.201   9.348   7.275  0.5481 -0.0990 -0.2290
 5169SOL     OW20353   9.278   0.324   7.616  0.4630 -0.0641  0.3402
 5169SOL    HW120354   9.282   0.362   7.528 -1.3366  0.4341  0.4375
 5169SOL    HW220355   9.237   0.239   7.604  0.9458 -0.3408  0.6158
 5170SOL     OW20356   9.529   8.698   9.785 -0.8515  0.3940  0.3010
 5170SOL    HW120357   9.535   8.783   9.829 -1.5386  0.6892 -0.1610
 5170SOL    HW220358   9.454   8.655   9.826  0.2958 -0.5759  1.4884
 5171SOL     OW20359   2.556   8.385   8.545 -0.4593 -0.0943  0.4535
 5171SOL    HW120360   2.484   8.431   8.503  0.5302  1.5476  0.4699
 5171SOL    HW220361   2.635   8.425   8.508  0.4334 -0.1544  2.2041
 5172SOL     OW20362   3.787   7.031   7.207 -0.7082 -0.2456  0.0659
 5172SOL    HW120363   3.852   6.981   7.157 -1.0551  0.6337 -1.3019
 5172SOL    HW220364   3.819   7.028   7.297 -0.4963 -2.5564 -0.0228
 5173SOL     OW20365   0.360   7.049   8.138 -0.2948 -0.6220 -0.0166
 5173SOL    HW120366   0.448   7.040   8.176 -0.0637  0.0288 -0.3660
 5173SOL    HW220367   0.319   7.118   8.190 -0.4268 -0.6027 -0.1471
 5174SOL     OW20368   1.795   7.535   6.503 -0.8050 -0.0213 -0.2127
 5174SOL    HW120369   1.757   7.502   6.584 -0.5171 -0.5043 -0.2685
 5174SOL    HW220370   1.850   7.608   6.530  3.3160 -3.0977  0.7992
 5175SOL     OW20371   0.700   7.958   8.736  0.3082 -0.1344  0.2931
 5175SOL    HW120372   0.736   7.986   8.820 -0.0699  2.5349 -0.3393
 5175SOL    HW220373   0.624   8.015   8.722  0.2102 -0.6747 -1.7442
 5176SOL     OW20374   9.139   7.932   7.829 -0.1051  0.4201  0.2798
 5176SOL    HW120375   9.077   7.902   7.763  0.1620 -0.4493  0.4135
 5176SOL    HW220376   9.225   7.907   7.795  0.0703  0.4272  0.7126
 5177SOL     OW20377   1.527   8.761   9.328  0.5869 -0.0803  0.1972
 5177SOL    HW120378   1.620   8.748   9.346  0.3180 -0.0306  1.8540
 5177SOL    HW220379   1.495   8.807   9.406 -0.9019 -0.4703 -0.1672
 5178SOL     OW20380   2.687   8.681   7.395  0.0996  0.4242  0.3222
 5178SOL    HW120381   2.613   8.620   7.403  0.1608  0.3654  0.4365
 5178SOL    HW220382   2.645   8.767   7.386 -0.0247  0.2188 -1.3223
 5179SOL     OW20383   0.462   7.453   9.148  0.3146 -0.1164  0.4509
 5179SOL    HW120384   0.414   7.387   9.098 -0.7985  1.0862 -0.1326
 5179SOL    HW220385   0.544   7.410   9.172  1.0901 -0.6602 -2.7185
 5180SOL     OW20386   2.185   0.020   7.779 -0.1155 -0.2030  0.2945
 5180SOL    HW120387   2.180   0.105   7.735 -1.0323  0.0951  0.9262
 5180SOL    HW220388   2.277   0.010   7.804  0.1653  0.1983 -0.5529
 5181SOL     OW20389   0.508   5.527   6.276 -0.1575 -0.0055  0.6359
 5181SOL    HW120390   0.570   5.484   6.217  0.2478 -0.5084  1.4165
 5181SOL    HW220391   0.424   5.526   6.229  0.1691 -0.3645  0.0636
 5182SOL     OW20392   5.217   7.234   8.455 -0.6073 -0.5035  0.0113
 5182SOL    HW120393   5.250   7.171   8.519  2.8479  0.6031 -0.4545
 5182SOL    HW220394   5.224   7.319   8.500  0.9009  0.1684 -1.3826
 5183SOL     OW20395   1.081   9.215   8.071  0.1133  0.2402 -0.3410
 5183SOL    HW120396   1.058   9.224   7.978  2.8947 -1.7011 -1.3560
 5183SOL    HW220397   1.011   9.162   8.108 -1.7782  2.1862 -0.8851
 5184SOL     OW20398   0.681   6.546   8.311 -0.0773  0.2608 -0.4021
 5184SOL    HW120399   0.742   6.570   8.381  0.1538 -0.0351 -0.4970
 5184SOL    HW220400   0.735   6.497   8.249 -0.7414 -1.3362  0.2497
 5185SOL     OW20401   0.609   7.950   8.027  0.0486  0.3087 -0.5905
 5185SOL    HW120402   0.542   7.890   7.996  0.5722  1.1688 -3.6941
 5185SOL    HW220403   0.692   7.903   8.012  0.3373  0.8526 -0.7227
 5186SOL     OW20404   9.206   8.667   8.227 -0.1955 -0.1859 -0.1434
 5186SOL    HW120405   9.227   8.750   8.269 -0.6110 -0.5378  0.7839
 5186SOL    HW220406   9.286   8.643   8.180  0.0674  0.5111 -0.0592
 5187SOL     OW20407   9.201   9.141   8.194  0.0292 -0.3591  0.0349
 5187SOL    HW120408   9.287   9.157   8.233 -0.2410  0.7019  0.2273
 5187SOL    HW220409   9.148   9.105   8.266 -0.7067  2.3470  0.9857
 5188SOL     OW20410   0.913   7.028   5.559 -0.5579  0.9525  0.7498
 5188SOL    HW120411   0.840   6.988   5.606 -1.5988  1.2791 -0.5374
 5188SOL    HW220412   0.964   6.953   5.526  0.1428  0.7192  2.2580
 5189SOL     OW20413   0.323   8.061   0.100 -0.4133  0.2743 -0.1936
 5189SOL    HW120414   0.329   8.146   0.143 -0.0590  0.4184 -0.5262
 5189SOL    HW220415   0.278   8.078   0.017  0.2189  0.2458 -0.5452
 5190SOL     OW20416   1.023   0.372   7.407  0.1639  0.2055  0.0053
 5190SOL    HW120417   1.090   0.438   7.390 -0.6406  0.7101 -1.4672
 5190SOL    HW220418   1.025   0.316   7.329  0.0501 -0.8229  0.7235
 5191SOL     OW20419   9.654   7.861   6.223 -0.5607  0.6377 -0.2692
 5191SOL    HW120420   9.703   7.941   6.241 -0.7268  0.2677  2.1156
 5191SOL    HW220421   9.659   7.810   6.304  1.7758 -3.0340 -2.4102
 5192SOL     OW20422   2.341   9.791   8.752  0.3546 -0.7646  0.4087
 5192SOL    HW120423   2.357   9.859   8.686  1.5234 -1.9539 -0.5842
 5192SOL    HW220424   2.247   9.776   8.748 -0.1598  1.5972  1.5045
 5193SOL     OW20425   2.007   0.300   8.293  0.4546 -0.6611  0.0168
 5193SOL    HW120426   2.075   0.275   8.354  0.4980 -3.0930 -0.9490
 5193SOL    HW220427   1.970   0.380   8.331  0.1165 -2.2956  3.5193
 5194SOL     OW20428   8.834   9.278   1.288  0.9229 -0.0034 -0.3048
 5194SOL    HW120429   8.830   9.363   1.243  0.1939 -0.0137 -0.2771
 5194SOL    HW220430   8.894   9.292   1.361  0.6325  0.5627 -0.1684
 5195SOL     OW20431   0.426   7.378   8.162  0.0830 -0.5260  0.0370
 5195SOL    HW120432   0.496   7.351   8.102 -0.8404 -1.2153 -0.7554
 5195SOL    HW220433   0.368   7.433   8.109  0.3327  0.5650  0.8541
 5196SOL     OW20434   2.478   9.233   9.665  0.5569 -0.2688  0.6834
 5196SOL    HW120435   2.491   9.192   9.580  1.0962  1.2962 -0.0109
 5196SOL    HW220436   2.564   9.231   9.707  0.7332  0.7036  0.3838
 5197SOL     OW20437   0.928   7.706   8.206 -0.2027 -0.1120 -0.0657
 5197SOL    HW120438   0.921   7.797   8.234  0.4023 -0.1631  0.2933
 5197SOL    HW220439   0.891   7.704   8.118 -3.3521 -0.1833  1.1481
 5198SOL     OW20440   0.500   8.098   7.613 -0.5907  0.3362 -0.3396
 5198SOL    HW120441   0.426   8.125   7.559  1.0346  1.4930 -2.1680
 5198SOL    HW220442   0.566   8.167   7.598  1.0356 -0.9099  0.7658
 5199SOL     OW20443   2.421   9.366   7.506  0.6625  0.1109 -0.0058
 5199SOL    HW120444   2.455   9.441   7.555  0.1656  1.2040 -1.2629
 5199SOL    HW220445   2.341   9.398   7.464  0.0825 -1.3164 -0.0686
 5200SOL     OW20446   2.451   9.695   7.512  0.0043 -0.0026 -0.1602
 5200SOL    HW120447   2.476   9.711   7.603  0.2892  0.0306 -0.2414
 5200SOL    HW220448   2.530   9.718   7.461  0.1529 -0.8677 -0.3443
 5201SOL     OW20449   1.153   7.579   7.628  0.3664 -0.2867  0.5262
 5201SOL    HW120450   1.088   7.647   7.615  0.1693 -0.2789  1.5158
 5201SOL    HW220451   1.234   7.615   7.591  0.1473  0.2872  0.6030
 5202SOL     OW20452   0.093   9.702   8.665  0.5005 -0.0629  0.1554
 5202SOL    HW120453   0.171   9.753   8.641  0.2756  0.1743 -0.0823
 5202SOL    HW220454   0.023   9.741   8.613  0.0655  0.2416  0.9634
 5203SOL     OW20455   1.374   8.881   9.585  0.4073  0.0698  0.8445
 5203SOL    HW120456   1.425   8.929   9.651 -0.8903  0.4212  1.6422
 5203SOL    HW220457   1.284   8.905   9.603 -0.2402 -2.0624  0.7601
 5204SOL     OW20458   8.727   7.558   8.579 -0.0461 -0.6742  0.3486
 5204SOL    HW120459   8.651   7.505   8.599  0.9771 -1.8587  1.2707
 5204SOL    HW220460   8.765   7.580   8.664 -0.0160  0.9259 -0.0361
 5205SOL     OW20461   3.591   4.820   0.541  0.0443  0.1686 -0.0206
 5205SOL    HW120462   3.535   4.896   0.558  0.4973  0.3874  0.5280
 5205SOL    HW220463   3.578   4.801   0.448  0.0942  1.0629 -0.2251
 5206SOL     OW20464   0.326   7.508   6.557 -0.7215 -0.6204  0.3816
 5206SOL    HW120465   0.387   7.546   6.621 -0.9790  0.1625  0.1773
 5206SOL    HW220466   0.340   7.414   6.564  2.2118 -0.4453 -1.2807
 5207SOL     OW20467   2.294   7.923   9.419  0.5721 -0.1965 -0.4145
 5207SOL    HW120468   2.381   7.907   9.455  0.3117  0.1678  0.4000
 5207SOL    HW220469   2.235   7.873   9.476  0.1120  0.7350 -0.0637
 5208SOL     OW20470   1.133   8.765   0.142 -0.2014  0.1192  0.1368
 5208SOL    HW120471   1.170   8.812   0.216 -2.3505  1.6588  0.3279
 5208SOL    HW220472   1.060   8.715   0.179 -0.5587 -0.0428 -0.7513
 5209SOL     OW20473   2.478   7.294   8.662  0.1409  0.3807  0.4379
 5209SOL    HW120474   2.513   7.383   8.663  0.5942  0.2238 -0.4245
 5209SOL    HW220475   2.434   7.284   8.747  2.1853  0.5943  1.5813
 5210SOL     OW20476   0.865   0.098   7.247 -0.7289 -0.0034  0.0450
 5210SOL    HW120477   0.826   0.168   7.194 -0.4486 -1.1978 -1.8244
 5210SOL    HW220478   0.806   0.024   7.236 -1.1677 -0.0479  2.2334
 5211SOL     OW20479   9.723   8.223   5.468  0.2147  0.6638 -0.1223
 5211SOL    HW120480   9.639   8.268   5.461  0.0126  0.0888 -1.8902
 5211SOL    HW220481   9.773   8.254   5.393  1.2322  0.2982  0.3964
 5212SOL     OW20482   3.028   8.059   8.835 -0.1257  0.0626 -0.2714
 5212SOL    HW120483   3.007   8.090   8.923  1.4985  1.5037 -0.3318
 5212SOL    HW220484   2.947   8.019   8.803 -0.7616 -0.4271  1.8292
 5213SOL     OW20485   0.618   7.567   8.389 -0.2648 -0.4398 -0.4817
 5213SOL    HW120486   0.688   7.620   8.427 -0.8174 -0.1553  0.1629
 5213SOL    HW220487   0.545   7.629   8.377 -1.5675 -1.3712  2.0045
 5214SOL     OW20488   9.409   7.164   5.468  0.1918 -0.5995 -0.2563
 5214SOL    HW120489   9.379   7.082   5.509  1.1482 -0.9495 -0.2445
 5214SOL    HW220490   9.416   7.143   5.375 -1.7120  0.1189 -0.6055
 5215SOL     OW20491   1.492   8.232   8.304  0.1203 -0.2944 -0.4411
 5215SOL    HW120492   1.564   8.278   8.262  1.6236 -0.1165  2.1609
 5215SOL    HW220493   1.529   8.147   8.330 -0.4227 -0.0293  1.3348
 5216SOL     OW20494   1.429   8.516   8.686  0.3043  0.0089 -0.7069
 5216SOL    HW120495   1.354   8.549   8.736  0.1219  1.2536 -1.7148
 5216SOL    HW220496   1.401   8.430   8.654 -0.4074  0.1388 -0.4518
 5217SOL     OW20497   8.964   9.526   6.971  0.2249  0.3529  0.1176
 5217SOL    HW120498   8.932   9.599   6.917 -1.1077 -0.0236  0.3504
 5217SOL    HW220499   8.913   9.451   6.940  0.1822 -0.0751  1.2092
 5218SOL     OW20500   0.654   0.385   8.442 -0.3716 -0.3583  0.2272
 5218SOL    HW120501   0.710   0.417   8.513  1.0844 -2.2851  0.0528
 5218SOL    HW220502   0.565   0.393   8.475  0.1852  0.1772  1.6792
 5219SOL     OW20503   1.400   7.924   7.489  0.4655 -0.4915 -0.4387
 5219SOL    HW120504   1.327   7.929   7.550  1.0203 -0.3671  0.2403
 5219SOL    HW220505   1.474   7.959   7.539  0.9740 -0.5747 -1.1238
 5220SOL     OW20506   0.679   7.665   8.709  0.1268 -0.4074  0.4904
 5220SOL    HW120507   0.691   7.760   8.717  4.0465 -0.6716 -0.2934
 5220SOL    HW220508   0.760   7.628   8.743 -0.8900 -3.4547 -0.1428
 5221SOL     OW20509   0.005   6.395   6.288  0.1350 -0.3127  0.1191
 5221SOL    HW120510   0.015   6.376   6.195 -2.1021 -1.0813 -0.0471
 5221SOL    HW220511  -0.039   6.480   6.291 -0.7206 -0.7490  0.4012
 5222SOL     OW20512   3.372   8.212   8.134 -0.1810 -0.3710  0.6667
 5222SOL    HW120513   3.392   8.143   8.072  0.7205 -0.3684  0.9449
 5222SOL    HW220514   3.456   8.236   8.173 -0.6977 -0.2548  1.7627
 5223SOL     OW20515   0.665   5.027   7.390  0.6561 -0.2094  0.4704
 5223SOL    HW120516   0.703   4.987   7.468 -0.5620 -0.4308  0.9867
 5223SOL    HW220517   0.594   5.082   7.425  0.8145  0.5768 -0.4060
 5224SOL     OW20518   9.540   5.882   7.920  0.2549 -0.1900 -0.2260
 5224SOL    HW120519   9.550   5.921   8.007 -2.7058  1.6287 -0.5597
 5224SOL    HW220520   9.486   5.805   7.935 -0.8397  0.5043 -0.4673
 5225SOL     OW20521   9.586   9.379   7.208 -0.1397  0.7016  0.7033
 5225SOL    HW120522   9.643   9.357   7.282  0.6024  0.0860 -0.0447
 5225SOL    HW220523   9.498   9.357   7.239  0.2854 -0.7064  0.9811
 5226SOL     OW20524   3.664   5.800   8.448 -0.5577 -0.3294  0.3311
 5226SOL    HW120525   3.683   5.716   8.491 -1.3425 -0.2284  0.8885
 5226SOL    HW220526   3.737   5.856   8.472 -1.0550 -0.2302  1.6774
 5227SOL     OW20527   1.387   7.656   7.467 -0.1934  0.2864 -0.0123
 5227SOL    HW120528   1.403   7.749   7.477 -0.6217  0.2024  1.7423
 5227SOL    HW220529   1.458   7.614   7.516 -0.5406 -0.2874  0.0066
 5228SOL     OW20530   1.419   8.099   7.941 -0.7885  0.1056  0.0225
 5228SOL    HW120531   1.485   8.111   7.873 -0.4835  0.3760  0.3619
 5228SOL    HW220532   1.395   8.188   7.967 -1.3503  0.0132 -0.1527
 5229SOL     OW20533   2.718   6.345   6.524 -0.1227 -0.1588 -0.7995
 5229SOL    HW120534   2.788   6.286   6.495 -0.4798 -0.9974 -0.0406
 5229SOL    HW220535   2.646   6.286   6.545 -0.4709  0.5539  0.0433
 5230SOL     OW20536   1.438   7.483   6.623  0.6569  0.5214 -0.4103
 5230SOL    HW120537   1.360   7.529   6.654 -1.6564 -0.3362 -4.1807
 5230SOL    HW220538   1.492   7.552   6.584  0.9703  0.9138  0.6905
 5231SOL     OW20539   9.230   7.829   1.696  0.2832 -0.2202 -0.1136
 5231SOL    HW120540   9.217   7.920   1.720 -0.4832  0.0135 -1.3361
 5231SOL    HW220541   9.324   7.822   1.679  0.0877  0.8100 -1.7734
 5232SOL     OW20542   9.428   8.401   0.865  0.2582  0.1094 -0.2998
 5232SOL    HW120543   9.412   8.307   0.856 -3.0554  0.3814  1.2142
 5232SOL    HW220544   9.494   8.421   0.799  0.7219 -3.1736 -0.9793
 5233SOL     OW20545   2.318   9.439   8.106  0.3000  0.0975 -0.0763
 5233SOL    HW120546   2.398   9.489   8.123  0.5454 -0.7277  1.3553
 5233SOL    HW220547   2.251   9.485   8.157  0.6173 -1.2014  1.6314
 5234SOL     OW20548   9.403   7.960   6.149 -0.0944  0.6399  0.5272
 5234SOL    HW120549   9.437   8.035   6.198  0.8240 -0.0296  0.9346
 5234SOL    HW220550   9.473   7.895   6.153 -1.3634 -0.7292  1.2441
 5235SOL     OW20551   2.470   9.270   0.604 -0.0633  0.4918 -0.4912
 5235SOL    HW120552   2.499   9.359   0.583  1.1136 -0.1044 -1.5127
 5235SOL    HW220553   2.542   9.214   0.575  1.2811 -0.5675  4.0382
 5236SOL     OW20554   0.231   6.395   8.461  0.5161 -0.4927  0.2008
 5236SOL    HW120555   0.209   6.374   8.552  2.2084  1.3615  1.1052
 5236SOL    HW220556   0.147   6.417   8.421  0.0154  1.5214  2.1458
 5237SOL     OW20557   0.652   7.345   8.023  0.0760  0.5970 -0.7501
 5237SOL    HW120558   0.687   7.261   7.991  0.6120  0.7675 -0.6261
 5237SOL    HW220559   0.693   7.411   7.967  0.7503  0.8750  0.0393
 5238SOL     OW20560   7.718   7.608   7.859  0.1379  0.5474  0.1674
 5238SOL    HW120561   7.643   7.551   7.843  1.1091 -1.0574  1.0467
 5238SOL    HW220562   7.683   7.680   7.911 -0.6012 -0.8138  1.6389
 5239SOL     OW20563   9.403   0.896   0.043 -0.0395  0.2875  0.2238
 5239SOL    HW120564   9.421   0.802   0.037  0.8865  0.4704 -0.0101
 5239SOL    HW220565   9.353   0.906   0.124 -1.3326 -0.5688 -0.4208
 5240SOL     OW20566   1.845   8.593   8.757 -0.2444 -0.2511 -0.3206
 5240SOL    HW120567   1.872   8.654   8.689  0.0416  0.1704  0.1697
 5240SOL    HW220568   1.813   8.517   8.709  2.7055 -1.2179 -0.9741
 5241SOL     OW20569   7.977   8.388   8.709 -0.5451  0.2676  0.1040
 5241SOL    HW120570   7.974   8.423   8.798 -2.3933 -0.0613  0.2133
 5241SOL    HW220571   7.982   8.466   8.653 -1.5437  0.5923  0.4416
 5242SOL     OW20572   8.149   8.752   8.248  0.0238  0.3567  0.4290
 5242SOL    HW120573   8.161   8.835   8.294 -0.1551  1.1787 -0.9491
 5242SOL    HW220574   8.178   8.770   8.158  1.6751 -1.5890  0.5152
 5243SOL     OW20575   1.654   7.927   8.089 -0.0420 -0.3337  0.0862
 5243SOL    HW120576   1.588   7.978   8.042 -0.3026 -0.3753  0.4035
 5243SOL    HW220577   1.639   7.948   8.181 -1.1148 -2.0951  0.3591
 5244SOL     OW20578   0.340   8.013   7.820  0.1101  0.1517  0.4153
 5244SOL    HW120579   0.365   7.939   7.875 -0.1780  0.4459  0.9472
 5244SOL    HW220580   0.421   8.038   7.775  0.6176  0.6101  1.5427
 5245SOL     OW20581   1.138   8.495   7.821  0.2687 -0.3099 -0.1441
 5245SOL    HW120582   1.221   8.538   7.803  0.1912 -0.0217  0.1612
 5245SOL    HW220583   1.120   8.516   7.913 -0.5283  0.3086 -0.4284
 5246SOL     OW20584   0.406   9.489   8.444  0.0723 -0.5890  0.1433
 5246SOL    HW120585   0.355   9.565   8.415 -2.1565 -1.5479  1.3204
 5246SOL    HW220586   0.431   9.510   8.534 -0.5182 -1.2396  0.4596
 5247SOL     OW20587   0.547   8.869   8.721  0.1229  0.0618  0.2087
 5247SOL    HW120588   0.606   8.833   8.787  1.5798 -0.3167 -1.2321
 5247SOL    HW220589   0.496   8.794   8.691  0.5684 -0.0821 -0.1953
 5248SOL     OW20590   1.000   7.071   6.938 -0.7691  0.1942  0.0244
 5248SOL    HW120591   1.021   7.126   6.863 -3.7576  2.2645  0.5366
 5248SOL    HW220592   1.079   7.073   6.992  0.8779 -0.0484 -2.2267
 5249SOL     OW20593   0.501   7.906   2.800 -0.1594 -0.0687 -0.6711
 5249SOL    HW120594   0.413   7.926   2.831 -0.6969 -1.1375 -1.4343
 5249SOL    HW220595   0.523   7.979   2.742 -0.2727  0.5260  0.0242
 5250SOL     OW20596   7.872   0.331   7.526  0.5225 -0.4747 -0.0429
 5250SOL    HW120597   7.810   0.382   7.578 -0.0589 -1.8978  0.7330
 5250SOL    HW220598   7.900   0.390   7.456 -0.7094  0.6254  0.3609
 5251SOL     OW20599   1.261   8.415   9.044  0.7526 -0.0846 -0.3166
 5251SOL    HW120600   1.273   8.496   8.996 -1.6489 -0.2343 -1.2783
 5251SOL    HW220601   1.268   8.346   8.978  0.7606 -0.5190  0.1271
 5252SOL     OW20602   0.564   8.559   6.453  0.1376  0.4110  0.4190
 5252SOL    HW120603   0.621   8.633   6.431  1.0799  0.1077  1.7059
 5252SOL    HW220604   0.536   8.577   6.543  0.6889 -0.9716  0.8843
 5253SOL     OW20605   2.566   7.546   8.721 -0.6622 -0.5660  0.2866
 5253SOL    HW120606   2.624   7.605   8.674 -0.3355  1.6360  3.1769
 5253SOL    HW220607   2.618   7.515   8.795 -2.9368  1.5215  3.0069
 5254SOL     OW20608   1.712   7.295   8.672 -0.3599 -0.3252 -0.1466
 5254SOL    HW120609   1.767   7.323   8.744 -0.5434 -1.0948  0.3083
 5254SOL    HW220610   1.686   7.205   8.695 -0.6124 -0.4973 -1.0460
 5255SOL     OW20611   2.341   7.795   8.262 -0.0897  0.3517  0.0362
 5255SOL    HW120612   2.245   7.790   8.256 -0.0076  0.1528 -1.7765
 5255SOL    HW220613   2.358   7.867   8.322 -1.4057  2.6122 -2.1203
 5256SOL     OW20614   0.541   8.636   7.596  0.0392 -0.0536 -0.7593
 5256SOL    HW120615   0.485   8.643   7.518  0.0070 -0.1226 -0.7422
 5256SOL    HW220616   0.548   8.542   7.612  0.7964 -0.0934 -1.2295
 5257SOL     OW20617   3.315   5.618   7.021  0.0533  0.2330  0.0759
 5257SOL    HW120618   3.306   5.710   7.043  0.9915  0.7380 -1.5547
 5257SOL    HW220619   3.353   5.579   7.100 -0.3047  1.2193  0.7629
 5258SOL     OW20620   0.511   7.844   8.455 -0.1387  0.1398 -0.4112
 5258SOL    HW120621   0.552   7.920   8.415 -1.2663  0.6234 -0.6989
 5258SOL    HW220622   0.515   7.862   8.549 -1.4273  1.1440 -0.5162
 5259SOL     OW20623   0.847   8.524   6.984 -0.4763 -0.1751 -0.0908
 5259SOL    HW120624   0.870   8.434   7.010 -1.2956 -0.4236 -0.1836
 5259SOL    HW220625   0.752   8.523   6.979 -0.4396  0.3350 -1.3988
 5260SOL     OW20626   2.590   0.311   8.678  0.1991  0.2252 -0.7489
 5260SOL    HW120627   2.593   0.384   8.740  0.4136 -0.5344  0.1491
 5260SOL    HW220628   2.575   0.353   8.593 -1.0698  1.2051 -0.0699
 5261SOL     OW20629   0.106   8.547   9.034 -0.3986  0.0278 -0.2703
 5261SOL    HW120630   0.021   8.589   9.021 -0.1630 -0.3355 -3.8946
 5261SOL    HW220631   0.170   8.618   9.025 -0.1937  0.0822  1.2273
 5262SOL     OW20632   2.172   7.029   7.190 -0.0086  0.1328  0.1344
 5262SOL    HW120633   2.130   6.994   7.268 -2.5822  1.0576 -0.7563
 5262SOL    HW220634   2.213   7.111   7.219 -0.4170  0.1648  0.6267
 5263SOL     OW20635   1.079   8.847   7.309 -0.2593  0.2130 -0.4304
 5263SOL    HW120636   1.042   8.892   7.232 -0.6121 -0.3289 -0.5812
 5263SOL    HW220637   1.012   8.783   7.333  0.0142  0.1293  0.1088
 5264SOL     OW20638   8.478   9.006   8.978  0.2283  0.1441  0.1674
 5264SOL    HW120639   8.469   9.040   8.889 -0.4935  0.8734  0.5112
 5264SOL    HW220640   8.557   8.951   8.975  1.1345  1.4242 -0.5354
 5265SOL     OW20641   0.120   7.673   1.072 -0.1121  0.4776 -0.2855
 5265SOL    HW120642   0.132   7.586   1.034 -0.0220  1.2236 -2.0650
 5265SOL    HW220643   0.144   7.733   1.002 -0.3127  1.9482  0.8623
 5266SOL     OW20644   2.988   6.884   8.607 -0.0730  0.2682 -0.0214
 5266SOL    HW120645   2.912   6.862   8.554 -1.4521  0.3391  1.8406
 5266SOL    HW220646   3.053   6.817   8.586 -1.1041 -0.5359 -0.7040
 5267SOL     OW20647   2.347   8.069   9.188 -0.3177 -0.4808  0.1405
 5267SOL    HW120648   2.323   8.040   9.276  0.3186  0.1567  0.5315
 5267SOL    HW220649   2.415   8.008   9.161 -0.1221 -0.3393  0.3128
 5268SOL     OW20650   1.134   5.685   6.260 -0.2760 -0.2475  0.0785
 5268SOL    HW120651   1.190   5.759   6.284 -0.6483  0.1995 -0.3972
 5268SOL    HW220652   1.190   5.608   6.267  0.9273  0.3550 -2.1068
 5269SOL     OW20653   8.632   7.730   7.979 -0.0309  0.2974  0.2065
 5269SOL    HW120654   8.707   7.723   8.038  1.2450  1.5373 -1.1565
 5269SOL    HW220655   8.567   7.669   8.014  1.4402 -0.4926  1.6933
 5270SOL     OW20656   1.180   0.296   7.160 -0.3160  0.1503  0.4224
 5270SOL    HW120657   1.167   0.373   7.104 -0.4831 -0.4329 -0.3647
 5270SOL    HW220658   1.267   0.308   7.198 -0.4239  0.8241  0.4778
 5271SOL     OW20659   0.995   8.958   8.126 -0.3502 -0.3390 -0.4668
 5271SOL    HW120660   0.908   8.944   8.163  0.0779  1.5465  1.5149
 5271SOL    HW220661   1.051   8.893   8.169 -0.1925  0.7197  1.0476
 5272SOL     OW20662   8.868   8.254   6.198  0.2849  0.0731 -0.1113
 5272SOL    HW120663   8.938   8.314   6.224  0.4325  0.5587 -1.5675
 5272SOL    HW220664   8.913   8.177   6.166  0.1023 -0.4954  0.9558
 5273SOL     OW20665   0.779   9.678   0.511  0.2020 -0.2627  0.6209
 5273SOL    HW120666   0.804   9.639   0.595 -2.0766 -0.5055  1.2684
 5273SOL    HW220667   0.776   9.772   0.529 -0.7609 -0.3532  0.9713
 5274SOL     OW20668   0.694   7.590   9.846 -0.1205  0.9338 -0.1750
 5274SOL    HW120669   0.768   7.543   9.809 -1.3528  0.3233 -2.0009
 5274SOL    HW220670   0.733   7.655   9.904  1.7349 -0.7517  0.5872
 5275SOL     OW20671   2.086   8.406   9.753 -0.2059  0.0220  0.1089
 5275SOL    HW120672   2.069   8.330   9.696  1.0885 -0.2182  0.0194
 5275SOL    HW220673   2.003   8.454   9.754 -0.6502 -0.6881 -0.9040
 5276SOL     OW20674   2.680   7.635   7.172 -0.0703  0.1505  0.4098
 5276SOL    HW120675   2.674   7.705   7.237  2.9895  0.1016  0.9006
 5276SOL    HW220676   2.767   7.597   7.186  0.5534 -0.2085 -3.3484
 5277SOL     OW20677   9.825   7.581   8.974  0.4154 -0.4286  0.0064
 5277SOL    HW120678   9.907   7.548   9.011  0.9559 -0.1354 -0.8938
 5277SOL    HW220679   9.807   7.522   8.901 -1.2112 -1.6594  1.3365
 5278SOL     OW20680   2.856   8.161   9.205 -0.0730 -0.7039 -0.1201
 5278SOL    HW120681   2.916   8.227   9.238 -0.9567 -0.5490  1.2582
 5278SOL    HW220682   2.831   8.191   9.118 -1.1115  1.2417  0.8017
 5279SOL     OW20683   3.230   8.385   5.347 -0.4482 -0.4426  0.4907
 5279SOL    HW120684   3.247   8.350   5.435  0.1579  3.3849  2.1204
 5279SOL    HW220685   3.136   8.402   5.346 -0.2019  1.1969  1.2239
 5280SOL     OW20686   2.435   8.689   8.694 -0.2283  0.2570 -0.4803
 5280SOL    HW120687   2.442   8.619   8.760 -0.2973  1.8721  1.3247
 5280SOL    HW220688   2.506   8.749   8.715 -1.2155  1.6025 -0.8840
 5281SOL     OW20689   0.670   7.769   6.582  0.0860 -0.4883 -0.2800
 5281SOL    HW120690   0.635   7.830   6.517  1.0743  1.0499  0.5733
 5281SOL    HW220691   0.748   7.732   6.540  0.2073 -0.1863 -0.3243
 5282SOL     OW20692   1.140   0.965   1.302 -0.5756  0.2796 -0.5995
 5282SOL    HW120693   1.065   0.937   1.251  0.4009  0.4596 -2.2082
 5282SOL    HW220694   1.145   0.902   1.374  0.2046 -2.4377 -2.8231
 5283SOL     OW20695   4.564   7.046   8.735 -0.0798  0.0745 -0.1124
 5283SOL    HW120696   4.539   7.107   8.804 -2.6767 -1.2171  0.1814
 5283SOL    HW220697   4.602   7.102   8.667  2.6204  1.3758  2.2660
 5284SOL     OW20698   1.470   8.498   7.412 -1.0814  0.1784 -0.0719
 5284SOL    HW120699   1.476   8.403   7.422 -0.3314  0.3784  1.7910
 5284SOL    HW220700   1.525   8.518   7.337 -1.0615 -0.8294 -0.3409
 5285SOL     OW20701   8.441   8.910   0.718 -0.1981  0.0319  0.2620
 5285SOL    HW120702   8.516   8.933   0.663  0.0430 -1.0747  0.1055
 5285SOL    HW220703   8.398   8.838   0.672 -1.9558  1.2609 -0.1574
 5286SOL     OW20704   0.217   8.157   8.665 -0.6494  0.6155  0.3213
 5286SOL    HW120705   0.233   8.064   8.681  1.5426  0.3083 -2.8400
 5286SOL    HW220706   0.269   8.202   8.731 -1.6439 -0.3375  1.8143
 5287SOL     OW20707   1.576   6.711   8.597 -0.5701 -0.5243 -0.5143
 5287SOL    HW120708   1.651   6.689   8.652 -0.3640  1.4842  0.1035
 5287SOL    HW220709   1.505   6.730   8.659 -1.3351 -1.4858 -1.0645
 5288SOL     OW20710   0.031   6.762   9.847 -0.3479 -0.4881 -0.2133
 5288SOL    HW120711  -0.042   6.792   9.901  0.2699  0.1793  0.2588
 5288SOL    HW220712   0.051   6.674   9.880 -1.3043 -0.9190 -0.7323
 5289SOL     OW20713   2.748   7.582   7.866 -0.0259  0.5398  0.5974
 5289SOL    HW120714   2.774   7.656   7.812  1.6113 -0.3773  0.0254
 5289SOL    HW220715   2.820   7.519   7.855  0.1575  0.1075  3.4711
 5290SOL     OW20716   1.178   7.957   8.057  0.0306 -0.8370  0.2445
 5290SOL    HW120717   1.242   8.027   8.045  0.2974 -1.0236  0.5713
 5290SOL    HW220718   1.134   7.979   8.140 -0.8740 -0.2827 -0.3546
 5291SOL     OW20719   1.354   7.757   8.780  0.0619  0.1069 -0.6599
 5291SOL    HW120720   1.275   7.782   8.732  0.5424  0.5521 -1.2313
 5291SOL    HW220721   1.344   7.663   8.796 -0.6226  0.1780 -0.6386
 5292SOL     OW20722   2.609   6.976   7.024 -0.3704 -0.4896  0.0849
 5292SOL    HW120723   2.580   7.063   7.052  1.1269 -0.2885  1.1750
 5292SOL    HW220724   2.539   6.918   7.051 -2.7607  0.5945 -3.1795
 5293SOL     OW20725   1.697   8.811   7.562  0.1473 -0.1355 -0.1287
 5293SOL    HW120726   1.670   8.900   7.582  2.1305  0.4844  0.0424
 5293SOL    HW220727   1.675   8.799   7.470  0.7484  0.9085 -0.4281
 5294SOL     OW20728   9.662   7.278   5.554 -0.0067 -0.6954 -0.1630
 5294SOL    HW120729   9.567   7.270   5.542  0.0049 -1.7144  0.3612
 5294SOL    HW220730   9.699   7.210   5.497  0.5885  1.3795 -2.4631
 5295SOL     OW20731   9.713   8.435   0.258  0.5429  0.4478  0.4699
 5295SOL    HW120732   9.678   8.426   0.346 -1.5674 -0.7774 -0.4104
 5295SOL    HW220733   9.753   8.349   0.239 -1.2889 -0.2211 -0.6186
 5296SOL     OW20734   9.007   8.360   8.385 -0.0492 -0.0363  0.1683
 5296SOL    HW120735   9.086   8.362   8.440 -0.7991  1.2076  1.2711
 5296SOL    HW220736   8.973   8.271   8.396  0.1854 -0.0186  1.2157
 5297SOL     OW20737   1.975   9.496   8.101 -0.5183 -0.4889  0.2064
 5297SOL    HW120738   1.942   9.482   8.013 -0.3224  0.4854 -0.0397
 5297SOL    HW220739   1.923   9.569   8.135  0.5359  0.2674  0.2600
 5298SOL     OW20740   1.658   8.900   8.945 -0.0650  0.2955 -0.0778
 5298SOL    HW120741   1.724   8.831   8.937 -1.3271 -1.1715  1.4459
 5298SOL    HW220742   1.685   8.950   9.022 -0.8803 -0.5121  0.7482
 5299SOL     OW20743   0.657   8.808   6.306  0.0246  0.4058  0.2689
 5299SOL    HW120744   0.713   8.837   6.378 -0.7485  1.6779  0.4029
 5299SOL    HW220745   0.660   8.881   6.243 -1.5550  0.5715  0.3455
 5300SOL     OW20746   3.174   8.144   0.537 -0.3067 -0.3834  0.1707
 5300SOL    HW120747   3.225   8.151   0.617  0.3393  0.5444 -0.3129
 5300SOL    HW220748   3.092   8.190   0.557  0.0439  0.2626  0.1546
 5301SOL     OW20749   1.759   8.364   7.327  0.0982  0.3896  0.0169
 5301SOL    HW120750   1.810   8.314   7.264  0.1237  1.0801 -0.5166
 5301SOL    HW220751   1.669   8.332   7.316  0.2986 -0.3788  0.5194
 5302SOL     OW20752   0.705   7.973   6.787  0.2934  0.6547 -0.2252
 5302SOL    HW120753   0.735   7.895   6.740  2.5174  1.5163 -0.3777
 5302SOL    HW220754   0.669   8.029   6.720 -0.9067 -0.0300 -0.1784
 5303SOL     OW20755   0.775   7.146   7.912 -0.2869 -0.4200  0.3192
 5303SOL    HW120756   0.848   7.144   7.849 -0.3042  0.4272  0.2605
 5303SOL    HW220757   0.798   7.080   7.977 -0.2493 -1.2847 -0.5508
 5304SOL     OW20758   1.660   1.585   9.046  0.2815 -0.0708 -0.2409
 5304SOL    HW120759   1.643   1.494   9.023  1.3711 -0.4414  0.2991
 5304SOL    HW220760   1.645   1.634   8.966 -0.0983 -0.7629 -0.5997
 5305SOL     OW20761   4.295   6.932   0.004  0.6368  0.5609 -0.5074
 5305SOL    HW120762   4.332   7.014   0.038  0.3835 -0.3641  2.2225
 5305SOL    HW220763   4.305   6.870   0.076 -1.1892 -1.2270 -1.7150
 5306SOL     OW20764   2.951   6.106   6.858 -0.4568 -0.1443 -0.3502
 5306SOL    HW120765   2.952   6.021   6.902 -0.3721  0.0946  0.1130
 5306SOL    HW220766   2.863   6.141   6.875 -0.9575 -0.7005 -1.6442
 5307SOL     OW20767   3.188   0.332   7.357 -0.4706  0.2789  0.0365
 5307SOL    HW120768   3.167   0.416   7.396 -1.2026 -0.4442  1.2666
 5307SOL    HW220769   3.114   0.313   7.299 -0.3300  0.4565 -0.2014
 5308SOL     OW20770   1.166   0.925   5.942  0.1050 -0.3448  0.4499
 5308SOL    HW120771   1.258   0.922   5.915 -0.3797 -1.5832 -1.2217
 5308SOL    HW220772   1.158   0.856   6.007  0.1853 -0.8510 -0.0671
 5309SOL     OW20773   0.640   0.610   7.757 -0.4328 -0.2525  0.0714
 5309SOL    HW120774   0.562   0.554   7.756 -3.1490  3.1305  0.5137
 5309SOL    HW220775   0.663   0.621   7.665 -2.3977  0.9351 -0.3418
 5310SOL     OW20776   2.563   8.070   9.823  0.7916 -0.7035  0.1539
 5310SOL    HW120777   2.524   8.087   9.738  0.2019  0.2595  0.5965
 5310SOL    HW220778   2.571   8.157   9.863 -0.7866 -1.2901  1.8712
 5311SOL     OW20779   9.785   6.356   8.202  0.1708  0.0132 -0.0754
 5311SOL    HW120780   9.694   6.328   8.210  0.0472  0.2405 -0.6581
 5311SOL    HW220781   9.801   6.407   8.281  0.6271 -2.2737  1.4182
 5312SOL     OW20782   1.431   0.419   9.054  0.2499  0.0149  0.2518
 5312SOL    HW120783   1.479   0.438   8.973  0.9499  1.2487  0.9396
 5312SOL    HW220784   1.497   0.384   9.114  0.2428  1.3630  1.0781
 5313SOL     OW20785   2.178   6.706   8.681  1.0099 -0.0570  0.2215
 5313SOL    HW120786   2.233   6.785   8.681  1.6198 -0.4683  0.3680
 5313SOL    HW220787   2.232   6.640   8.725  0.5116 -0.5608  0.0864
 5314SOL     OW20788   1.539   6.354   9.237 -0.4886 -0.3035  0.2946
 5314SOL    HW120789   1.630   6.324   9.238 -1.0369 -2.1593 -0.4317
 5314SOL    HW220790   1.522   6.376   9.145 -1.0350 -0.9758  0.2183
 5315SOL     OW20791   9.488   7.432   8.555  0.1225  0.4250  0.0082
 5315SOL    HW120792   9.497   7.509   8.499 -2.0568  1.7656  1.3838
 5315SOL    HW220793   9.455   7.465   8.638 -0.0944 -1.9155  0.9526
 5316SOL     OW20794   2.017   9.511   1.520 -0.1130 -0.2017  0.0216
 5316SOL    HW120795   2.016   9.555   1.435  2.7881 -0.6672 -0.3611
 5316SOL    HW220796   2.108   9.518   1.550 -0.5336 -2.0485  2.0188
 5317SOL     OW20797   1.880   7.913   7.545 -0.0290 -0.1110 -0.2896
 5317SOL    HW120798   1.975   7.925   7.541 -0.1810  0.7681 -1.8643
 5317SOL    HW220799   1.864   7.881   7.634  1.7009  0.0326  0.1098
 5318SOL     OW20800   7.942   2.204   7.456 -0.0067 -0.1943  0.0195
 5318SOL    HW120801   8.003   2.195   7.383 -0.0013  0.7036 -0.0998
 5318SOL    HW220802   7.885   2.277   7.431 -3.0095 -2.7037 -1.1931
 5319SOL     OW20803   2.429   8.886   8.105  0.0020  0.2012 -0.2579
 5319SOL    HW120804   2.483   8.809   8.084  1.1383  0.8686  0.1468
 5319SOL    HW220805   2.436   8.895   8.200 -0.3958  0.6229 -0.2631
 5320SOL     OW20806   0.427   9.427   0.945  0.0362  0.0453  0.1154
 5320SOL    HW120807   0.445   9.519   0.928 -0.1192  0.0602  0.0289
 5320SOL    HW220808   0.394   9.426   1.035 -1.0972  0.2316 -0.2704
 5321SOL     OW20809   8.539   6.602   8.487 -0.2510 -0.7931  0.6014
 5321SOL    HW120810   8.467   6.642   8.535 -0.6776 -1.9923  1.0124
 5321SOL    HW220811   8.584   6.548   8.552  2.7038  1.9148  1.0690
 5322SOL     OW20812   0.078   5.985   6.886 -0.3259 -0.0842 -0.0244
 5322SOL    HW120813   0.172   5.976   6.870 -0.3700  0.4661 -0.6267
 5322SOL    HW220814   0.072   6.015   6.976  0.1471  1.1239 -0.3708
 5323SOL     OW20815   0.867   0.772   7.739 -0.1804 -0.2464 -0.1148
 5323SOL    HW120816   0.825   0.854   7.716 -1.2235 -0.8472 -0.4059
 5323SOL    HW220817   0.796   0.716   7.769  0.7468 -0.4669  1.8047
 5324SOL     OW20818   6.286   7.898   7.941  0.2048 -0.1830 -0.4246
 5324SOL    HW120819   6.269   7.982   7.898  0.2910  1.5434  2.6117
 5324SOL    HW220820   6.380   7.883   7.927  0.3983  0.7522 -0.2300
 5325SOL     OW20821   2.141   8.440   8.872  0.2715 -0.0284  0.6470
 5325SOL    HW120822   2.208   8.456   8.805  1.2480 -1.4592  1.2409
 5325SOL    HW220823   2.059   8.467   8.830  1.0697  0.7886 -0.4700
 5326SOL     OW20824   8.530   8.799   7.362  0.5799 -0.3759  0.7516
 5326SOL    HW120825   8.503   8.890   7.345  0.5489 -0.4299  0.5017
 5326SOL    HW220826   8.625   8.804   7.375  0.7383 -0.4406 -0.2857
 5327SOL     OW20827   1.598   9.122   0.749 -0.4310  0.4679  0.0558
 5327SOL    HW120828   1.584   9.199   0.694 -1.3523  0.5064  0.3329
 5327SOL    HW220829   1.602   9.158   0.838  2.0144  0.5327 -0.0035
 5328SOL     OW20830   8.887   8.495   0.168  0.3505 -0.5110  0.3299
 5328SOL    HW120831   8.897   8.587   0.142  2.7660 -0.7842  0.0338
 5328SOL    HW220832   8.855   8.451   0.090  0.8845 -0.1909 -0.0788
 5329SOL     OW20833   9.198   9.665   9.162  0.7417  0.1433  0.3349
 5329SOL    HW120834   9.214   9.575   9.136  0.3030  0.3177 -0.6005
 5329SOL    HW220835   9.198   9.714   9.080 -0.2478  0.7997  0.7064
 5330SOL     OW20836   2.306   8.069   5.712  0.4769 -0.8713  0.5687
 5330SOL    HW120837   2.345   8.087   5.627  0.2904 -2.0085  0.2164
 5330SOL    HW220838   2.371   8.099   5.776  0.0133  1.3399  0.0840
 5331SOL     OW20839   8.549   6.984   9.086 -0.0993  0.0450  0.4006
 5331SOL    HW120840   8.599   6.922   9.139 -1.5582 -0.6146  1.0513
 5331SOL    HW220841   8.458   6.959   9.099 -0.5726  0.6478 -1.4655
 5332SOL     OW20842   1.499   9.111   8.202  0.2098 -0.4671  0.8994
 5332SOL    HW120843   1.437   9.183   8.211 -1.3827 -1.4180 -1.4431
 5332SOL    HW220844   1.580   9.144   8.241 -1.3616  1.2796  2.9907
 5333SOL     OW20845   3.274   7.311   5.535  0.3290 -0.3196  0.2992
 5333SOL    HW120846   3.207   7.356   5.482  0.3058 -1.8153 -1.0357
 5333SOL    HW220847   3.357   7.336   5.494  0.4381 -0.0507  0.6885
 5334SOL     OW20848   9.802   8.913   8.890  0.1175  0.1841  0.1336
 5334SOL    HW120849   9.869   8.966   8.933  0.2599  1.6144 -1.7553
 5334SOL    HW220850   9.743   8.888   8.961 -0.6448  3.9309  1.0321
 5335SOL     OW20851   1.975   7.602   8.608  0.2962 -0.2617  0.6775
 5335SOL    HW120852   1.885   7.609   8.575  0.3153  0.4232  0.7512
 5335SOL    HW220853   1.968   7.623   8.701  0.5986  0.2729  0.5836
 5336SOL     OW20854   0.050   9.638   9.742 -0.0989  0.3300 -0.2935
 5336SOL    HW120855   0.041   9.730   9.766  1.1372  0.7086 -1.1375
 5336SOL    HW220856   0.117   9.638   9.673 -1.1116 -1.0478 -1.3306
 5337SOL     OW20857   0.069   8.492   9.299  0.1275 -0.4251 -0.1340
 5337SOL    HW120858   0.002   8.425   9.284 -0.2444 -0.3053  0.9514
 5337SOL    HW220859   0.091   8.523   9.211 -1.7420  0.0206 -0.4893
 5338SOL     OW20860   1.270   8.857   1.381 -0.0701 -0.7771  0.0753
 5338SOL    HW120861   1.205   8.890   1.319  0.3939 -1.2618 -0.6905
 5338SOL    HW220862   1.222   8.846   1.463 -1.1006 -1.6279 -0.6108
 5339SOL     OW20863   9.399   7.517   7.048  0.4577 -0.0705 -0.0294
 5339SOL    HW120864   9.437   7.489   6.965  1.0886 -0.3634  0.3516
 5339SOL    HW220865   9.426   7.609   7.057 -0.0127  0.1028 -0.3732
 5340SOL     OW20866   2.076   9.418   9.282  0.5559 -0.5152  0.3599
 5340SOL    HW120867   2.016   9.480   9.324  1.1000 -1.0112  1.9747
 5340SOL    HW220868   2.082   9.447   9.191 -0.0750  1.1116  0.8030
 5341SOL     OW20869   0.263   8.375   9.440  0.0340  0.2586  0.2132
 5341SOL    HW120870   0.281   8.308   9.374 -1.1099  0.1915 -0.0570
 5341SOL    HW220871   0.190   8.425   9.404  0.8838  1.6954  0.3982
 5342SOL     OW20872   2.511   9.790   9.746  0.4051 -0.0066  0.2794
 5342SOL    HW120873   2.518   9.719   9.810 -1.6554 -1.7701 -1.2554
 5342SOL    HW220874   2.424   9.827   9.760  0.3850  0.3631 -0.7001
 5343SOL     OW20875   4.589   0.003   1.431 -0.4634 -0.8477 -0.0584
 5343SOL    HW120876   4.530   0.076   1.450 -2.9737 -2.1781 -2.0986
 5343SOL    HW220877   4.630   0.027   1.348  0.1322 -0.9778  0.1891
 5344SOL     OW20878   1.488   2.136   8.136  0.1982  0.2768 -0.2488
 5344SOL    HW120879   1.536   2.139   8.053  1.0668 -1.9784  0.1015
 5344SOL    HW220880   1.536   2.196   8.193  1.5811 -0.5953 -0.4429
 5345SOL     OW20881   2.102   6.783   0.520 -0.8601  1.1085 -0.2507
 5345SOL    HW120882   2.102   6.877   0.507 -1.9568  1.2635  0.8120
 5345SOL    HW220883   2.010   6.757   0.520 -0.5544 -0.1796 -1.9012
 5346SOL     OW20884   9.683   8.184   9.853 -0.1827  0.3875  0.2334
 5346SOL    HW120885   9.700   8.142   9.938  2.3461 -0.9755 -0.8363
 5346SOL    HW220886   9.752   8.251   9.845 -0.1092  0.1920 -0.9313
 5347SOL     OW20887   0.969   8.226   8.706 -0.0411 -0.0599  0.0321
 5347SOL    HW120888   0.971   8.158   8.638 -0.1195 -0.6995  0.6479
 5347SOL    HW220889   0.994   8.306   8.661 -0.4655 -0.3953 -0.8352
 5348SOL     OW20890   2.038   8.918   9.452 -0.2170  0.4447 -0.0253
 5348SOL    HW120891   2.016   9.009   9.473 -0.7896  0.3386 -0.1250
 5348SOL    HW220892   2.093   8.889   9.524  0.0244  0.8947 -0.0273
 5349SOL     OW20893   2.521   5.661   0.757  0.5473  0.8342 -0.1655
 5349SOL    HW120894   2.492   5.608   0.684  1.2609 -0.9715  0.8036
 5349SOL    HW220895   2.614   5.679   0.739  0.6626  0.5893  0.1756
 5350SOL     OW20896   2.218   9.438   2.020  0.2052 -0.4136 -0.0399
 5350SOL    HW120897   2.307   9.414   1.997  0.9529  0.5767  1.5733
 5350SOL    HW220898   2.211   9.416   2.113 -0.6986  0.9446  0.2400
 5351SOL     OW20899   1.383   8.512   1.007  0.3887 -0.7826  0.2869
 5351SOL    HW120900   1.381   8.558   1.091 -1.6460 -1.1536  0.4811
 5351SOL    HW220901   1.379   8.582   0.941 -0.3639 -0.5784  0.5438
 5352SOL     OW20902   1.905   9.217   7.225 -0.0774 -0.5849  0.2403
 5352SOL    HW120903   1.916   9.152   7.294 -0.8733 -0.3574  0.5855
 5352SOL    HW220904   1.856   9.289   7.266  2.9358  1.4479  0.6393
 5353SOL     OW20905   0.842   7.047   0.482  0.0683 -0.3230 -0.3147
 5353SOL    HW120906   0.848   7.142   0.477 -0.6973 -0.2054  0.6667
 5353SOL    HW220907   0.797   7.030   0.565  0.6896 -1.5572 -0.1964
 5354SOL     OW20908   1.623   9.101   9.505  0.5598 -0.6682 -0.5819
 5354SOL    HW120909   1.572   9.023   9.481  0.2659 -0.3205 -1.0954
 5354SOL    HW220910   1.557   9.170   9.516  0.8547 -0.3965 -0.5132
 5355SOL     OW20911   0.692   0.987   1.646  0.1258  0.3280  0.8434
 5355SOL    HW120912   0.673   0.894   1.658  0.9819 -0.0644 -0.6398
 5355SOL    HW220913   0.659   1.008   1.559 -1.4435  1.8375  1.7239
 5356SOL     OW20914   2.546   7.109   9.463  0.2994  0.3520  0.2165
 5356SOL    HW120915   2.481   7.087   9.397  0.5426  1.8112 -0.5531
 5356SOL    HW220916   2.497   7.159   9.529 -0.3520 -2.5914  2.1831
 5357SOL     OW20917   1.046   6.406   7.900  1.2008  0.0452  0.3407
 5357SOL    HW120918   0.994   6.338   7.858  0.4331  1.4738 -1.1355
 5357SOL    HW220919   1.137   6.386   7.876  0.9119 -0.0536 -0.6972
 5358SOL     OW20920   9.444   9.575   2.172  0.3083  0.0792 -0.1864
 5358SOL    HW120921   9.353   9.548   2.178  0.1462 -0.1563 -2.5208
 5358SOL    HW220922   9.441   9.669   2.153  0.4089 -0.2618 -2.1152
 5359SOL     OW20923   3.539   8.734   1.406 -0.3239 -0.9450 -0.8975
 5359SOL    HW120924   3.500   8.717   1.492  0.0050  1.0035 -0.3388
 5359SOL    HW220925   3.474   8.787   1.361  0.3543 -0.2979 -1.1206
 5360SOL     OW20926   1.819   7.392   8.100  0.1796  0.1008 -0.4695
 5360SOL    HW120927   1.824   7.404   8.195 -2.4809 -0.9697 -0.1191
 5360SOL    HW220928   1.758   7.460   8.070 -1.2505 -1.3174 -0.9375
 5361SOL     OW20929   2.001   7.612   7.402 -0.0149  1.3047  0.0290
 5361SOL    HW120930   1.939   7.569   7.461  0.3548 -0.2066 -0.6145
 5361SOL    HW220931   2.084   7.612   7.451  0.1143  0.7474 -0.1813
 5362SOL     OW20932   8.772   7.566   8.850  0.5619 -0.1204 -0.6408
 5362SOL    HW120933   8.847   7.599   8.901  1.1127 -1.6693 -0.4158
 5362SOL    HW220934   8.698   7.572   8.911  0.6966  0.4223 -0.5209
 5363SOL     OW20935   8.145   6.065   6.873 -0.3038 -0.2166  0.6705
 5363SOL    HW120936   8.158   6.104   6.960 -1.6079  0.6607  0.4882
 5363SOL    HW220937   8.203   6.115   6.815 -0.7771  0.3999  0.7229
 5364SOL     OW20938   3.267   9.276   9.530  0.0098 -0.1183  0.2187
 5364SOL    HW120939   3.190   9.233   9.565  0.4504 -0.2130  1.0828
 5364SOL    HW220940   3.250   9.369   9.541 -0.6115 -0.0690 -0.9558
 5365SOL     OW20941   0.279   7.515   6.889 -0.3328  0.2513 -0.6117
 5365SOL    HW120942   0.341   7.540   6.958  1.6307 -0.3102 -2.0838
 5365SOL    HW220943   0.259   7.597   6.844  1.4041  0.1127 -1.7110
 5366SOL     OW20944   8.359   0.347   0.046 -0.4749  0.0167  0.4495
 5366SOL    HW120945   8.387   0.396   0.123 -3.2622  0.9176  1.0147
 5366SOL    HW220946   8.320   0.267   0.081  2.1229 -1.6965 -0.3512
 5367SOL     OW20947   2.261   0.526   8.772 -0.3396  0.2676  0.1408
 5367SOL    HW120948   2.239   0.448   8.721 -1.3207  0.0024  0.9221
 5367SOL    HW220949   2.185   0.583   8.760 -1.2845 -0.3986  2.4041
 5368SOL     OW20950   9.176   6.435   9.572 -0.2124 -0.1943 -0.2095
 5368SOL    HW120951   9.113   6.489   9.620 -0.6680 -0.4004 -0.5763
 5368SOL    HW220952   9.210   6.374   9.638 -2.4039 -1.9076 -0.5778
 5369SOL     OW20953   0.271   7.801   6.810 -0.3492  0.6889 -0.1386
 5369SOL    HW120954   0.348   7.783   6.864 -2.0091 -2.6756  1.4115
 5369SOL    HW220955   0.210   7.844   6.870  0.1605  3.3392 -1.3604
 5370SOL     OW20956   1.261   8.236   8.819 -0.5548  0.0499 -0.0893
 5370SOL    HW120957   1.185   8.177   8.815 -0.5749  0.0869 -0.2674
 5370SOL    HW220958   1.280   8.255   8.727 -1.3926  1.4068 -0.0100
 5371SOL     OW20959   0.025   6.736   8.179 -0.0778  0.3174 -0.1567
 5371SOL    HW120960  -0.022   6.698   8.253  0.2161  0.3739  0.0573
 5371SOL    HW220961   0.117   6.730   8.203  0.2220 -1.8628 -1.5114
 5372SOL     OW20962   9.363   7.971   0.555 -0.2435 -0.3641 -0.2096
 5372SOL    HW120963   9.361   7.941   0.646 -1.6723  1.5464  0.4708
 5372SOL    HW220964   9.282   7.937   0.517 -0.6069  0.4262 -0.1712
 5373SOL     OW20965   0.714   9.127   9.389 -0.6764  0.1593  0.9440
 5373SOL    HW120966   0.645   9.133   9.323  1.3438  0.2802 -1.2932
 5373SOL    HW220967   0.707   9.209   9.438 -1.8799  0.3275  0.5231
 5374SOL     OW20968   8.548   9.617   1.913  0.0966  0.3857  0.1239
 5374SOL    HW120969   8.625   9.667   1.885  0.6151  0.3449  1.3971
 5374SOL    HW220970   8.534   9.643   2.004 -0.6347 -0.5554  0.3053
 5375SOL     OW20971   1.286   8.076   0.220 -0.1571  0.3541  0.6255
 5375SOL    HW120972   1.254   8.007   0.278  0.4694  1.3308  2.1748
 5375SOL    HW220973   1.217   8.142   0.221 -0.7062 -0.1452 -0.7744
 5376SOL     OW20974   1.071   7.317   0.905  0.0396  0.2213  1.0097
 5376SOL    HW120975   1.099   7.309   0.996 -1.5639  0.8591  1.5970
 5376SOL    HW220976   0.990   7.368   0.909  0.6021  1.3762 -0.8992
 5377SOL     OW20977   0.520   8.130   8.217  0.0480 -0.4659  0.1507
 5377SOL    HW120978   0.544   8.049   8.173  1.1254 -0.5522  0.8631
 5377SOL    HW220979   0.577   8.134   8.294  0.8116  1.5158 -0.4515
 5378SOL     OW20980   0.208   7.615   9.160  0.3264  0.0839  0.8340
 5378SOL    HW120981   0.242   7.703   9.177 -1.1907  0.6592  1.0195
 5378SOL    HW220982   0.285   7.559   9.167  1.4541  1.4554  0.0784
 5379SOL     OW20983   0.618   8.009   9.650  0.0307  0.1507 -0.0069
 5379SOL    HW120984   0.666   7.935   9.612  2.2208  1.1055  0.7454
 5379SOL    HW220985   0.550   8.028   9.585  1.3147 -0.6124 -1.6787
 5380SOL     OW20986   4.016   8.593   8.089 -0.5555  0.6078 -0.4665
 5380SOL    HW120987   3.925   8.591   8.059 -0.9128 -3.2423  0.3783
 5380SOL    HW220988   4.028   8.511   8.136  2.5967  2.2669  2.0068
 5381SOL     OW20989   0.326   8.029   0.768 -0.0119 -0.5264  0.5359
 5381SOL    HW120990   0.416   8.048   0.744  0.0756 -1.5075  0.0258
 5381SOL    HW220991   0.274   8.060   0.693  0.1205 -2.0574 -0.2385
 5382SOL     OW20992   2.419   8.844   0.739 -0.4547 -0.2511  0.5077
 5382SOL    HW120993   2.391   8.841   0.831 -0.4809 -2.6996  0.4715
 5382SOL    HW220994   2.387   8.762   0.701  2.6510 -1.0421 -0.7238
 5383SOL     OW20995   1.754   8.890   0.788 -0.1789 -0.3849  0.3016
 5383SOL    HW120996   1.709   8.972   0.809  0.3603  0.1987 -0.7701
 5383SOL    HW220997   1.814   8.913   0.717  1.0467 -1.3952  0.9944
 5384SOL     OW20998   0.283   8.688   9.510 -0.1669 -0.0601 -0.0152
 5384SOL    HW120999   0.269   8.637   9.590 -0.6203 -1.5445 -0.9986
 5384SOL    HW221000   0.343   8.634   9.458 -0.0238  0.7997 -0.7528
 5385SOL     OW21001   0.137   8.324   8.477  0.6465 -0.2809  0.5230
 5385SOL    HW121002   0.175   8.272   8.548  3.1970 -1.0693 -1.2594
 5385SOL    HW221003   0.209   8.334   8.413 -1.0542  1.6752 -1.2625
 5386SOL     OW21004   0.907   7.677   0.454 -0.6185  0.0087  0.0969
 5386SOL    HW121005   0.912   7.680   0.359  1.3155  0.9668  0.1731
 5386SOL    HW221006   0.864   7.594   0.473  1.2669 -1.4847 -1.6057
 5387SOL     OW21007   1.366   8.944   0.961  0.5684 -0.2084 -0.3813
 5387SOL    HW121008   1.292   8.964   0.904  0.5465 -0.6118 -0.4967
 5387SOL    HW221009   1.358   9.006   1.033  0.7776  0.5208 -0.9733
 5388SOL     OW21010   1.355   9.158   1.148  0.9323 -0.2521 -0.0578
 5388SOL    HW121011   1.356   9.253   1.134 -0.4188 -0.4800 -2.1387
 5388SOL    HW221012   1.285   9.144   1.211 -0.3093  0.0236 -1.3180
 5389SOL     OW21013   0.239   8.470   7.883 -0.1616 -0.1542 -0.1367
 5389SOL    HW121014   0.187   8.426   7.816 -1.8022  0.1304  0.8870
 5389SOL    HW221015   0.294   8.401   7.921  1.2687 -0.2009 -2.1363
 5390SOL     OW21016   2.803   0.433   0.275 -0.4505 -0.3303 -0.6622
 5390SOL    HW121017   2.893   0.450   0.304 -0.3262 -0.5755 -0.9042
 5390SOL    HW221018   2.809   0.351   0.227 -1.0133 -0.9917  0.3610
 5391SOL     OW21019   0.084   0.158   8.863  0.4593 -0.8218 -0.0570
 5391SOL    HW121020   0.084   0.065   8.888 -0.7186 -1.1417 -1.1712
 5391SOL    HW221021   0.175   0.186   8.876  1.2450 -2.5850 -1.3165
 5392SOL     OW21022   1.451   7.013   1.304 -0.5089 -0.6986  0.3134
 5392SOL    HW121023   1.394   7.079   1.343 -0.9711  1.1759 -3.1644
 5392SOL    HW221024   1.413   6.929   1.330 -1.8146  0.4164  2.2188
 5393SOL     OW21025   0.125   1.121   8.474 -0.0347 -0.1602 -0.1003
 5393SOL    HW121026   0.033   1.133   8.497  0.1521  0.2417  0.4631
 5393SOL    HW221027   0.142   1.190   8.409 -0.6448 -1.4906 -1.7449
 5394SOL     OW21028   9.365   8.479   6.273  0.2297 -0.3777 -0.3633
 5394SOL    HW121029   9.351   8.566   6.237 -2.2504  0.4206  2.1896
 5394SOL    HW221030   9.421   8.493   6.350  1.2463 -1.3256 -0.8934
 5395SOL     OW21031   2.391   6.878   7.455 -0.2555  0.6777  0.0054
 5395SOL    HW121032   2.342   6.869   7.373  0.5307  0.7564 -0.4820
 5395SOL    HW221033   2.468   6.930   7.432  0.7599 -0.5672  0.4344
 5396SOL     OW21034   1.947   9.360   0.124 -0.0859 -0.1527 -0.3823
 5396SOL    HW121035   1.999   9.406   0.191  0.3626  0.2001 -0.9596
 5396SOL    HW221036   1.896   9.296   0.173 -1.8796  1.9312  0.6657
 5397SOL     OW21037   0.225   6.998   3.812  0.3791  0.1033  0.1429
 5397SOL    HW121038   0.198   7.089   3.823  1.0498  0.5111 -1.2451
 5397SOL    HW221039   0.166   6.964   3.745  0.8252 -0.1325 -0.1417
 5398SOL     OW21040   1.003   9.196   9.496  0.1307  0.2412 -0.0979
 5398SOL    HW121041   1.008   9.264   9.429  0.0108 -0.8332 -1.2264
 5398SOL    HW221042   0.958   9.238   9.569  0.0173  1.3549 -0.7833
 5399SOL     OW21043   1.216   9.775   7.811 -0.3773 -0.3561 -0.5281
 5399SOL    HW121044   1.121   9.771   7.802 -0.7396  1.7753  1.3629
 5399SOL    HW221045   1.246   9.817   7.731 -0.6887 -2.9045 -2.1198
 5400SOL     OW21046   1.078   7.749   0.132  0.6272  0.2687  0.1411
 5400SOL    HW121047   1.111   7.759   0.043  0.6257  0.9155  0.2048
 5400SOL    HW221048   0.990   7.788   0.130  0.5257  0.0598  0.3660
 5401SOL     OW21049   8.468   8.104   0.323 -0.8744  0.1742  0.2449
 5401SOL    HW121050   8.535   8.159   0.364  0.0734 -1.1949  0.5961
 5401SOL    HW221051   8.463   8.136   0.233 -3.2165  3.4317  1.3405
 5402SOL     OW21052   1.793   6.536   1.952 -0.1421 -0.0377  0.0097
 5402SOL    HW121053   1.723   6.518   2.016 -2.4078  1.5386 -1.8672
 5402SOL    HW221054   1.761   6.497   1.871 -0.3692  3.2507 -1.6394
 5403SOL     OW21055   1.998   8.255   8.571  0.2708  0.1410 -0.2056
 5403SOL    HW121056   1.947   8.279   8.648 -0.1341  1.9629 -0.9823
 5403SOL    HW221057   2.078   8.308   8.579  0.4574 -0.0527 -0.7716
 5404SOL     OW21058   1.823   6.583   8.656  0.2064 -0.0218  0.2598
 5404SOL    HW121059   1.762   6.511   8.637  1.0727 -0.3417 -1.5397
 5404SOL    HW221060   1.904   6.539   8.682  0.4221  0.3254  0.1845
 5405SOL     OW21061   9.554   8.652   8.626  0.1994 -0.5514  0.2370
 5405SOL    HW121062   9.545   8.742   8.597 -1.4080 -0.5395  0.6402
 5405SOL    HW221063   9.510   8.650   8.711  0.3587 -1.6710  0.3114
 5406SOL     OW21064   2.151   9.257   8.906  0.0381  0.0147 -0.0709
 5406SOL    HW121065   2.165   9.324   8.839 -0.9202  0.9968  0.6737
 5406SOL    HW221066   2.058   9.235   8.898 -0.2441  0.6168  1.3459
 5407SOL     OW21067   1.783   7.583   1.761  0.1109  1.0598  0.2676
 5407SOL    HW121068   1.783   7.675   1.733 -1.6998  1.2256  0.7064
 5407SOL    HW221069   1.712   7.577   1.825  0.9380 -0.4153  1.0948
 5408SOL     OW21070   8.709   8.115   9.629  0.2891  0.7903 -0.7389
 5408SOL    HW121071   8.662   8.117   9.712 -0.8623  0.5313 -1.3611
 5408SOL    HW221072   8.795   8.078   9.651 -0.8702 -1.7525 -0.0564
 5409SOL     OW21073   3.569   8.654   8.364 -0.0736  0.5216 -0.0193
 5409SOL    HW121074   3.566   8.699   8.280 -0.8814  1.3152  0.4065
 5409SOL    HW221075   3.479   8.625   8.379  0.3299 -0.7865 -0.0345
 5410SOL     OW21076   0.721   6.577   3.141 -0.3825  0.3706 -0.3415
 5410SOL    HW121077   0.657   6.509   3.165 -0.3007  0.1812 -0.6587
 5410SOL    HW221078   0.714   6.584   3.046 -1.5540  1.9464 -0.1810
 5411SOL     OW21079   9.799   1.474   1.356 -0.4350  0.4103  0.5766
 5411SOL    HW121080   9.770   1.525   1.432 -0.4240  1.9752 -0.4095
 5411SOL    HW221081   9.879   1.431   1.386  0.2149  1.9189  1.1431
 5412SOL     OW21082   1.417   8.917   4.267  0.6599  0.1714  0.2270
 5412SOL    HW121083   1.407   8.844   4.207 -0.5043 -1.2620  2.0433
 5412SOL    HW221084   1.413   8.877   4.354 -1.1846  2.5087  1.3279
 5413SOL     OW21085   0.419   0.091   0.923  0.4385 -1.0004  0.2616
 5413SOL    HW121086   0.328   0.108   0.896  0.9394 -1.0009 -1.6098
 5413SOL    HW221087   0.426   0.129   1.010 -0.8331  0.7299 -0.3343
 5414SOL     OW21088   8.586   0.128   1.929 -0.1480  0.6231 -0.5354
 5414SOL    HW121089   8.502   0.105   1.970  0.2277 -3.4197 -1.5538
 5414SOL    HW221090   8.564   0.143   1.837  0.2205 -1.5896 -1.0580
 5415SOL     OW21091   1.577   0.080   4.372  0.2049  0.5064  0.6553
 5415SOL    HW121092   1.632   0.131   4.312 -2.4946  0.8732 -1.6871
 5415SOL    HW221093   1.544   0.145   4.434  0.2194  0.7974  0.3627
 5416SOL     OW21094   0.867   9.073   0.636  0.5750 -0.1782 -0.3518
 5416SOL    HW121095   0.861   9.141   0.702  1.1697 -0.3054 -0.1626
 5416SOL    HW221096   0.787   9.022   0.647  1.1560 -0.8514  1.0021
 5417SOL     OW21097   4.651   8.731   2.001 -0.2644 -0.5358  0.0209
 5417SOL    HW121098   4.574   8.695   1.958  0.0706 -0.0429 -1.0358
 5417SOL    HW221099   4.696   8.781   1.933  1.6815 -1.8374  0.2500
 5418SOL     OW21100   4.350   1.447   0.192  0.0918 -0.3916  0.0838
 5418SOL    HW121101   4.402   1.373   0.222  0.4713 -0.6668 -1.1844
 5418SOL    HW221102   4.304   1.478   0.270 -0.3090 -2.1376  0.5899
 5419SOL     OW21103   0.435   9.688   0.283 -0.2190 -0.3983 -0.3491
 5419SOL    HW121104   0.409   9.769   0.326  0.5130 -0.1792 -0.3025
 5419SOL    HW221105   0.476   9.636   0.352 -0.2675 -0.6151 -0.4812
 5420SOL     OW21106   2.053   8.533   1.444  0.4470 -0.4838 -0.0141
 5420SOL    HW121107   2.129   8.475   1.440  1.4353  0.7681  0.0159
 5420SOL    HW221108   2.002   8.501   1.519  0.2135 -2.1655 -0.8431
 5421SOL     OW21109   0.843   2.710   1.252  0.3311 -0.1692  0.7395
 5421SOL    HW121110   0.881   2.622   1.249 -1.0866 -0.7953  0.5537
 5421SOL    HW221111   0.851   2.742   1.162  2.5187  0.6724  1.1628
 5422SOL     OW21112   1.604   9.556   1.336 -0.6545 -0.8833 -0.5010
 5422SOL    HW121113   1.623   9.467   1.364 -2.1864 -0.9512  0.4467
 5422SOL    HW221114   1.512   9.570   1.360 -0.8682  0.4607 -1.9195
 5423SOL     OW21115   3.103   8.115   1.400  0.5312  0.2724  0.1245
 5423SOL    HW121116   3.109   8.164   1.482 -0.7622 -1.5252  1.3688
 5423SOL    HW221117   3.110   8.182   1.332 -1.1431  2.2227  1.7162
 5424SOL     OW21118   0.005   8.191   0.275 -0.5297 -0.0374  0.0656
 5424SOL    HW121119   0.097   8.211   0.292  0.0099 -1.3467 -1.0970
 5424SOL    HW221120  -0.018   8.126   0.342 -0.4911  0.0048  0.1198
 5425SOL     OW21121   1.502   7.397   1.605 -0.0144 -0.2222  0.0631
 5425SOL    HW121122   1.529   7.461   1.539  1.2441 -0.6459  0.1451
 5425SOL    HW221123   1.432   7.347   1.561  1.0612 -0.7516 -1.1258
 5426SOL     OW21124   0.503   0.264   0.378 -0.1262 -0.1429  0.5436
 5426SOL    HW121125   0.488   0.293   0.288 -2.1739  0.0619  0.9022
 5426SOL    HW221126   0.530   0.343   0.424  0.8050 -0.2217  0.1599
 5427SOL     OW21127   0.991   7.892   1.244 -0.2249 -0.1354  0.1056
 5427SOL    HW121128   0.984   7.959   1.176  0.1975 -0.0651  0.1259
 5427SOL    HW221129   0.971   7.810   1.199  0.8690 -0.1925 -0.3037
 5428SOL     OW21130   3.393   0.495   0.792  0.3960  0.3280  0.1120
 5428SOL    HW121131   3.459   0.451   0.846  0.3219 -0.7259 -0.6301
 5428SOL    HW221132   3.310   0.458   0.822  0.3406 -0.1235 -0.5844
 5429SOL     OW21133   0.257   8.830   0.722 -0.0509 -0.1730 -0.2842
 5429SOL    HW121134   0.287   8.897   0.661 -0.6786  0.9449  0.6020
 5429SOL    HW221135   0.162   8.838   0.722 -0.0302  1.1152  2.1489
 5430SOL     OW21136   9.754   0.438   2.838  0.3693 -0.6897  0.0714
 5430SOL    HW121137   9.669   0.396   2.829  0.7298 -1.2254 -0.9590
 5430SOL    HW221138   9.794   0.432   2.751  1.0414  0.4732  0.2715
 5431SOL     OW21139   1.662   6.880   3.779  0.6054 -0.7448 -0.1430
 5431SOL    HW121140   1.652   6.852   3.688 -1.1857  5.3682 -2.3432
 5431SOL    HW221141   1.728   6.950   3.775  1.9988 -1.5970  3.7821
 5432SOL     OW21142   2.725   0.288   0.510  0.1721 -0.2788  0.5336
 5432SOL    HW121143   2.650   0.229   0.507 -0.4769  0.5356  0.4102
 5432SOL    HW221144   2.723   0.335   0.427  0.6576 -0.0567  0.6388
 5433SOL     OW21145   8.941   9.115   0.348 -0.0883  0.1121  0.4158
 5433SOL    HW121146   8.875   9.180   0.325  0.7934  0.9614  0.2357
 5433SOL    HW221147   8.907   9.074   0.428 -0.7340  0.6706  0.4402
 5434SOL     OW21148   1.449   9.155   2.255  0.4144  0.1090 -0.2685
 5434SOL    HW121149   1.399   9.081   2.291  0.2090 -0.5622 -1.8505
 5434SOL    HW221150   1.417   9.164   2.165  0.8053  1.8146 -0.2630
 5435SOL     OW21151   1.905   9.242   2.308  0.0732  0.2355 -0.5071
 5435SOL    HW121152   1.957   9.244   2.228  0.7387 -1.2517 -0.1516
 5435SOL    HW221153   1.837   9.176   2.292 -0.4073  0.6527 -0.2149
 5436SOL     OW21154   1.664   7.274   9.037 -0.3442 -0.2247 -0.1953
 5436SOL    HW121155   1.583   7.274   8.987 -0.0178 -1.9326 -0.7715
 5436SOL    HW221156   1.636   7.291   9.127 -1.3938 -1.2582 -0.3135
 5437SOL     OW21157   0.899   0.343   2.666 -0.3322  0.0013 -1.0478
 5437SOL    HW121158   0.962   0.297   2.721 -0.1524 -0.1292 -1.3605
 5437SOL    HW221159   0.950   0.380   2.594 -0.8838 -2.3207 -2.7744
 5438SOL     OW21160   1.802   0.001   1.154  0.2244 -0.2790 -0.4780
 5438SOL    HW121161   1.750   0.075   1.123  2.4107  1.1037 -1.0669
 5438SOL    HW221162   1.785  -0.069   1.091  0.5608  0.7738 -1.7658
 5439SOL     OW21163   1.104   8.230   1.200 -0.0809 -0.3414  0.4833
 5439SOL    HW121164   1.132   8.216   1.290  0.0427  0.5985  0.6049
 5439SOL    HW221165   1.062   8.317   1.201 -2.5036 -1.4193  0.1938
 5440SOL     OW21166   2.042   9.599   1.256 -0.0592  0.0757 -0.1340
 5440SOL    HW121167   2.126   9.585   1.214 -0.4113 -1.8319 -0.3291
 5440SOL    HW221168   1.977   9.582   1.187 -0.6217  1.3701  0.0463
 5441SOL     OW21169   2.190   0.977   2.629 -0.4415  0.1629  0.1767
 5441SOL    HW121170   2.220   0.941   2.546 -3.1696 -2.2139  0.0603
 5441SOL    HW221171   2.126   0.914   2.661 -0.1424  1.3938  3.7168
 5442SOL     OW21172   1.140   7.244   2.177 -0.3431  0.3047 -0.1211
 5442SOL    HW121173   1.180   7.322   2.139  1.2945  0.2235  1.3428
 5442SOL    HW221174   1.201   7.173   2.158  0.8654  0.3557  3.0329
 5443SOL     OW21175   1.818   1.370   0.109 -0.3262  0.6548  0.6312
 5443SOL    HW121176   1.849   1.280   0.122 -2.9721 -0.2206  1.6327
 5443SOL    HW221177   1.896   1.424   0.122  1.8142 -1.5061 -1.9425
 5444SOL     OW21178   2.827   0.541   1.832 -0.6313 -0.3305  0.0740
 5444SOL    HW121179   2.743   0.559   1.788  0.3174  3.2111 -0.5792
 5444SOL    HW221180   2.888   0.523   1.760 -0.1605  0.3861  0.2857
 5445SOL     OW21181   1.729   8.275   1.954  0.1423 -0.2852 -0.4361
 5445SOL    HW121182   1.773   8.302   2.035 -0.0510 -0.9914 -0.0874
 5445SOL    HW221183   1.647   8.236   1.984  0.1286 -0.6645 -0.9700
 5446SOL     OW21184   1.082   7.855   0.878  0.0591  0.1799  0.2542
 5446SOL    HW121185   1.062   7.814   0.794  1.2828 -1.7699  0.8316
 5446SOL    HW221186   1.057   7.789   0.943 -0.1542  1.3408  1.3993
 5447SOL     OW21187   8.582   9.538   0.749  0.6177 -0.0288 -0.3506
 5447SOL    HW121188   8.513   9.549   0.814 -0.8501  0.1603 -1.8733
 5447SOL    HW221189   8.576   9.616   0.694  1.6304 -0.3133 -0.8899
 5448SOL     OW21190   7.411   6.946   9.157  0.2314 -0.3214  0.5121
 5448SOL    HW121191   7.324   6.931   9.192  0.2620 -0.5554  0.4903
 5448SOL    HW221192   7.404   7.029   9.110  0.0123 -0.3568  0.4814
 5449SOL     OW21193   9.451   8.832   1.380 -0.0881  0.2841  0.2464
 5449SOL    HW121194   9.540   8.842   1.413 -0.1911  2.8613 -0.0404
 5449SOL    HW221195   9.399   8.891   1.434 -1.6426 -1.0798  0.3313
 5450SOL     OW21196   1.839   8.249   0.770 -0.1667  0.1739  0.0556
 5450SOL    HW121197   1.853   8.213   0.683  0.9081  1.4808 -0.3509
 5450SOL    HW221198   1.927   8.269   0.802 -0.5666  0.0804  1.2942
 5451SOL     OW21199   2.784   8.874   9.174  0.4285 -0.2211 -0.0914
 5451SOL    HW121200   2.795   8.916   9.259 -1.7302 -2.1381  1.2590
 5451SOL    HW221201   2.710   8.920   9.134  1.0178  0.2423 -0.6686
 5452SOL     OW21202   1.777   6.784   1.041 -0.4767  0.2338  0.6503
 5452SOL    HW121203   1.838   6.858   1.049 -0.0399 -0.0819  0.2777
 5452SOL    HW221204   1.721   6.808   0.967  1.8755 -1.3308 -1.7822
 5453SOL     OW21205   0.709   6.586   1.836 -0.3038  0.1729 -0.7687
 5453SOL    HW121206   0.626   6.606   1.879 -1.2664  0.5658 -2.7407
 5453SOL    HW221207   0.718   6.491   1.846 -1.3381  0.0243 -1.1371
 5454SOL     OW21208   0.803   0.472   1.936 -0.0692 -0.2737 -0.5758
 5454SOL    HW121209   0.833   0.562   1.936 -1.0476  0.0728  0.7383
 5454SOL    HW221210   0.771   0.457   1.846 -1.2231  1.1569 -0.4408
 5455SOL     OW21211   8.108   9.365   9.486  0.2482  0.7910 -0.0995
 5455SOL    HW121212   8.131   9.431   9.552  0.4505  0.5952  0.0263
 5455SOL    HW221213   8.043   9.408   9.431  0.3642  1.0910 -0.0047
 5456SOL     OW21214   1.105   1.209   0.642  0.2133 -0.6281  0.6989
 5456SOL    HW121215   1.108   1.250   0.555 -0.2885  0.1591  1.0367
 5456SOL    HW221216   1.165   1.260   0.695 -0.3095 -0.4041  1.0893
 5457SOL     OW21217   0.429   9.063   0.103  0.0833  0.5982  0.2302
 5457SOL    HW121218   0.421   8.989   0.042  0.0007  0.6876  0.1301
 5457SOL    HW221219   0.515   9.053   0.142  0.3337  0.8101 -0.2606
 5458SOL     OW21220   9.490   9.154   1.331 -0.1269  0.1176  0.0304
 5458SOL    HW121221   9.508   9.086   1.266  0.3578 -0.3324  0.6312
 5458SOL    HW221222   9.554   9.222   1.313 -0.0827  0.0547 -0.0498
 5459SOL     OW21223   3.932   0.628   0.550  0.1525  0.2178  0.1891
 5459SOL    HW121224   3.843   0.658   0.569 -0.0051 -0.2691  0.2342
 5459SOL    HW221225   3.987   0.667   0.618  0.0123  0.7023  0.0311
 5460SOL     OW21226   0.841   9.579   8.766 -0.0562  0.0065 -0.6234
 5460SOL    HW121227   0.904   9.536   8.824  0.8800  0.5398 -1.2086
 5460SOL    HW221228   0.876   9.668   8.756 -1.0407  0.3844 -0.7788
 5461SOL     OW21229   2.096   0.852   0.365  0.1390 -0.6533  0.1737
 5461SOL    HW121230   2.178   0.834   0.318  0.1278  1.9730 -0.9918
 5461SOL    HW221231   2.104   0.943   0.393 -2.7723  0.0160 -0.8334
 5462SOL     OW21232   2.004   9.055   1.669  0.0088 -0.0617  0.4920
 5462SOL    HW121233   2.082   9.045   1.724  1.2445  0.8135 -1.0175
 5462SOL    HW221234   1.932   9.057   1.731  1.3447  0.9145  2.1206
 5463SOL     OW21235   0.414   1.282   9.385  0.4635 -0.4343  0.3922
 5463SOL    HW121236   0.490   1.251   9.435  0.8791  1.0657  0.7692
 5463SOL    HW221237   0.357   1.206   9.376  2.7389 -2.0730 -1.3103
 5464SOL     OW21238   0.435   0.404   9.474 -0.0549  0.0090 -0.1087
 5464SOL    HW121239   0.424   0.316   9.510  1.2626  0.5846  1.8743
 5464SOL    HW221240   0.465   0.457   9.548 -2.3501  2.5309 -0.8294
 5465SOL     OW21241   1.668   7.526   9.227 -0.5460  0.5741  0.2954
 5465SOL    HW121242   1.724   7.578   9.170 -0.8251  0.4683 -0.0809
 5465SOL    HW221243   1.585   7.518   9.179 -0.2359 -0.9342 -0.0500
 5466SOL     OW21244   0.324   8.626   0.493 -0.1835 -0.0167  0.2032
 5466SOL    HW121245   0.378   8.699   0.525 -0.0907  0.7341 -1.5641
 5466SOL    HW221246   0.378   8.548   0.507  0.6018  0.5085  0.1730
 5467SOL     OW21247   9.273   0.520   1.272 -0.1490 -0.0508  0.0644
 5467SOL    HW121248   9.250   0.570   1.350  0.0611  0.9133 -0.4745
 5467SOL    HW221249   9.341   0.460   1.301  0.1806  0.5461  0.5556
 5468SOL     OW21250   8.140   8.816   0.559 -0.0137  0.2523 -0.2884
 5468SOL    HW121251   8.205   8.747   0.572 -0.6276 -1.0813 -3.4013
 5468SOL    HW221252   8.069   8.793   0.619  0.8317 -0.3486  0.5218
 5469SOL     OW21253   8.069   0.358   3.027  0.0500 -0.6100  0.6381
 5469SOL    HW121254   8.063   0.304   3.106 -0.7298  0.5007  1.3667
 5469SOL    HW221255   7.979   0.387   3.011  0.3651  0.0017 -0.0598
 5470SOL     OW21256   9.734   7.694   9.518 -0.3658  0.1691 -0.0304
 5470SOL    HW121257   9.684   7.770   9.490  0.3947  0.8481  0.4293
 5470SOL    HW221258   9.703   7.676   9.607 -1.6198 -1.0010 -0.6614
 5471SOL     OW21259   3.556   0.325   1.030  0.2377  0.1006  0.3966
 5471SOL    HW121260   3.504   0.247   1.010  1.6540 -0.5898 -0.7350
 5471SOL    HW221261   3.646   0.293   1.040  0.4328  1.1912  2.8360
 5472SOL     OW21262   0.641   0.104   1.198  0.1332  0.1290 -0.0262
 5472SOL    HW121263   0.650   0.077   1.290  0.7478 -1.8046 -0.6075
 5472SOL    HW221264   0.547   0.111   1.184  0.0468  1.2096  0.9340
 5473SOL     OW21265   3.227   9.621   0.961  0.1917 -0.7265  0.0073
 5473SOL    HW121266   3.292   9.633   1.030  0.9014  0.9785 -0.9129
 5473SOL    HW221267   3.143   9.632   1.005  0.6587  2.2056  0.3554
 5474SOL     OW21268   0.981   8.683   9.056  0.0749  0.0052 -0.4745
 5474SOL    HW121269   0.961   8.770   9.090 -1.9486 -0.6621  0.1272
 5474SOL    HW221270   1.034   8.642   9.124 -0.0805  0.3042 -0.1697
 5475SOL     OW21271   9.682   8.592   1.315  0.4097 -0.1258 -0.3596
 5475SOL    HW121272   9.769   8.628   1.295  0.7167 -1.6008 -1.9139
 5475SOL    HW221273   9.637   8.590   1.231 -0.3650 -1.3116  0.0578
 5476SOL     OW21274   3.152   1.228   1.235 -0.1080 -0.3698  0.4546
 5476SOL    HW121275   3.168   1.139   1.204 -0.8825 -0.2679 -0.2894
 5476SOL    HW221276   3.129   1.218   1.327 -0.7795 -1.0200  0.2299
 5477SOL     OW21277   1.083   0.456   7.757 -0.3231 -0.2771 -0.2869
 5477SOL    HW121278   1.097   0.522   7.688 -0.0857  0.2300  0.2319
 5477SOL    HW221279   1.004   0.410   7.731 -0.9224  0.7211 -0.2779
 5478SOL     OW21280   1.003   8.692   2.133 -0.3317 -0.6057  0.0431
 5478SOL    HW121281   0.969   8.656   2.215 -1.8621  0.9551  0.1516
 5478SOL    HW221282   0.927   8.696   2.076  0.2938  0.2526 -0.7541
 5479SOL     OW21283   2.022   0.015   0.897 -0.1430  0.1893  0.2655
 5479SOL    HW121284   2.047   0.103   0.869 -2.0378  0.7837  0.2562
 5479SOL    HW221285   2.016   0.021   0.992 -1.5245  0.4887  0.1907
 5480SOL     OW21286   0.433   0.252   2.897  0.3430 -0.4216 -0.3113
 5480SOL    HW121287   0.442   0.195   2.974  0.9115  0.6951  0.4831
 5480SOL    HW221288   0.519   0.249   2.855  0.2975 -0.3574 -0.4086
 5481SOL     OW21289   1.360   7.054   1.726 -0.4212 -0.0700 -0.1966
 5481SOL    HW121290   1.452   7.068   1.708 -0.6360 -1.3163 -2.6238
 5481SOL    HW221291   1.358   6.977   1.783  0.0362  0.1928  0.1801
 5482SOL     OW21292   2.712   7.037   2.285 -0.1382 -0.2997 -0.0890
 5482SOL    HW121293   2.762   7.117   2.268 -0.3883 -0.1264 -0.0293
 5482SOL    HW221294   2.775   6.977   2.324  0.1266 -0.2435 -0.4310
 5483SOL     OW21295   0.822   0.641   2.474 -0.1156 -0.3144 -0.6903
 5483SOL    HW121296   0.897   0.619   2.530 -1.1641 -0.4084  0.7453
 5483SOL    HW221297   0.769   0.700   2.528  0.2386  1.9721 -2.6852
 5484SOL     OW21298   4.782   8.787   3.032  0.2295 -0.4626  0.0241
 5484SOL    HW121299   4.772   8.717   2.967  0.2384  0.3301 -0.8565
 5484SOL    HW221300   4.830   8.855   2.985 -1.2318  0.8281  0.3348
 5485SOL     OW21301   0.034   9.062   2.451 -0.0418 -0.2676  0.3201
 5485SOL    HW121302  -0.013   9.095   2.375 -1.9280 -1.7994  0.7525
 5485SOL    HW221303  -0.027   9.003   2.494  0.7688  0.8317  3.2924
 5486SOL     OW21304   8.572   9.176   2.433  0.0784 -0.2990 -0.5094
 5486SOL    HW121305   8.618   9.151   2.354 -1.1555 -0.0096 -1.3562
 5486SOL    HW221306   8.523   9.097   2.459 -0.3169 -0.0999 -0.6305
 5487SOL     OW21307   9.576   7.765   3.366  0.5843  0.3705 -0.0716
 5487SOL    HW121308   9.525   7.845   3.363  0.4701  0.2764 -1.4942
 5487SOL    HW221309   9.666   7.793   3.348  1.1332  0.5569  2.5609
 5488SOL     OW21310   0.341   7.573   4.189 -0.1785 -0.0650  0.1802
 5488SOL    HW121311   0.254   7.594   4.154  0.1967  0.1593 -0.6354
 5488SOL    HW221312   0.401   7.596   4.119  0.4459 -1.5364  0.2177
 5489SOL     OW21313   1.383   9.144   0.283  0.7991 -0.2940 -0.1956
 5489SOL    HW121314   1.310   9.203   0.266  1.2215  1.1384  2.3369
 5489SOL    HW221315   1.460   9.201   0.286  1.3510 -1.0371  1.4486
 5490SOL     OW21316   8.898   8.652   3.585 -0.8070 -0.6054  0.4845
 5490SOL    HW121317   8.895   8.610   3.670  1.3334  1.1711  1.5544
 5490SOL    HW221318   8.867   8.741   3.601  2.9416  0.9243  0.3673
 5491SOL     OW21319   9.594   0.003   6.259 -0.3622  0.3572  0.6971
 5491SOL    HW121320   9.517  -0.014   6.205  0.0049  1.2157 -0.1213
 5491SOL    HW221321   9.649  -0.075   6.247  0.2203  0.9994 -1.0906
 5492SOL     OW21322   0.458   9.157   1.034  0.7168  0.5870 -0.3324
 5492SOL    HW121323   0.423   9.192   1.116  0.1387  0.2753 -0.4368
 5492SOL    HW221324   0.451   9.229   0.972  3.5536  1.7014  0.4814
 5493SOL     OW21325   9.802   7.919   0.437 -0.3014  0.2157  1.0266
 5493SOL    HW121326   9.825   7.827   0.454 -2.7586 -0.4836  0.9987
 5493SOL    HW221327   9.718   7.931   0.481 -1.2268  1.7372 -0.9831
 5494SOL     OW21328   1.248   9.269   4.371 -0.1768 -0.2645 -0.4182
 5494SOL    HW121329   1.294   9.346   4.339 -2.8990  2.1588  1.0047
 5494SOL    HW221330   1.237   9.213   4.294 -0.0959  1.8719 -2.0774
 5495SOL     OW21331   9.436   7.957   4.501 -0.0648 -0.0148 -0.5794
 5495SOL    HW121332   9.523   7.995   4.514 -0.8911  1.5468  0.8199
 5495SOL    HW221333   9.388   8.023   4.450 -0.5871 -0.6192 -0.8844
 5496SOL     OW21334   3.834   9.286   3.336 -0.1501 -0.6621  0.3021
 5496SOL    HW121335   3.872   9.361   3.381  0.5934 -0.9679  0.2145
 5496SOL    HW221336   3.791   9.235   3.405 -1.9290  0.5624  0.1529
 5497SOL     OW21337   3.320   9.304   4.965  0.5595 -0.0632  0.6315
 5497SOL    HW121338   3.321   9.209   4.955 -0.1037  0.1053 -1.6275
 5497SOL    HW221339   3.395   9.335   4.914 -0.1071  0.6986  0.0899
 5498SOL     OW21340   2.109   0.437   3.007 -0.2010 -0.6366 -0.1318
 5498SOL    HW121341   2.108   0.458   2.914  0.0846 -0.4644 -0.0979
 5498SOL    HW221342   2.183   0.378   3.017  0.1746 -0.1331  0.0953
 5499SOL     OW21343   0.942   0.204   2.414  0.4654 -0.1146 -0.1057
 5499SOL    HW121344   0.924   0.110   2.409  1.9170 -0.4422  0.1228
 5499SOL    HW221345   0.911   0.230   2.500  1.4997 -0.7529  0.4762
 5500SOL     OW21346   2.072   1.574   3.514  0.0856 -0.0111  0.2109
 5500SOL    HW121347   2.072   1.665   3.543  0.9247 -0.1502  0.6972
 5500SOL    HW221348   1.980   1.553   3.499 -0.0859  1.0013 -0.1852
 5501SOL     OW21349   0.117   9.457   2.111 -0.9189 -0.4787 -0.2020
 5501SOL    HW121350   0.084   9.442   2.200  0.0011 -0.5738  0.1331
 5501SOL    HW221351   0.154   9.372   2.086  2.0297  0.4271  0.7196
 5502SOL     OW21352   1.226   0.787   1.537  0.2093  0.0653 -0.1932
 5502SOL    HW121353   1.159   0.831   1.589 -0.2739 -1.1368  0.2525
 5502SOL    HW221354   1.308   0.807   1.583 -0.2991 -1.7279  1.6701
 5503SOL     OW21355   0.838   0.676   4.261  0.7008  0.1928  0.1652
 5503SOL    HW121356   0.761   0.647   4.309  0.8981 -0.4422  0.1064
 5503SOL    HW221357   0.907   0.683   4.327  1.3944 -2.1965 -0.2089
 5504SOL     OW21358   0.534   1.003   1.078 -0.5100  0.3435  0.4009
 5504SOL    HW121359   0.497   1.079   1.032 -0.7145  1.0584  1.6954
 5504SOL    HW221360   0.467   0.935   1.069 -0.9025  0.7295  0.3207
 5505SOL     OW21361   0.926   7.601   3.927  0.2869  0.5457 -0.0162
 5505SOL    HW121362   0.978   7.585   3.849  1.7735  2.6725  0.4355
 5505SOL    HW221363   0.860   7.665   3.899  0.3660  0.7628  0.2848
 5506SOL     OW21364   1.109   7.995   1.690  0.2816  0.5911  0.0319
 5506SOL    HW121365   1.188   8.017   1.641 -0.3849  2.1553 -0.3892
 5506SOL    HW221366   1.071   7.922   1.641  1.9978 -0.9501  0.8692
 5507SOL     OW21367   2.106   0.963   2.305 -0.2380 -0.0844 -0.4425
 5507SOL    HW121368   2.076   1.016   2.232 -1.7776 -0.2262  0.0319
 5507SOL    HW221369   2.199   0.948   2.289 -0.5576 -0.1827 -2.3982
 5508SOL     OW21370   7.835   8.164   2.221 -0.7842 -0.2525  0.0995
 5508SOL    HW121371   7.818   8.093   2.159 -1.2888 -0.1341  0.1018
 5508SOL    HW221372   7.872   8.121   2.298  0.1167 -0.3737 -0.3809
 5509SOL     OW21373   0.048   9.238   4.914 -0.1345 -0.1534  0.1289
 5509SOL    HW121374   0.090   9.239   4.828 -3.3103  0.1689 -1.5831
 5509SOL    HW221375   0.099   9.176   4.965  1.5481 -0.7831 -2.1560
 5510SOL     OW21376   1.670   0.278   2.594  0.2685 -0.1657 -0.1217
 5510SOL    HW121377   1.638   0.271   2.504  1.4710 -0.6597 -0.5259
 5510SOL    HW221378   1.594   0.254   2.648 -1.4026  2.9749 -0.8233
 5511SOL     OW21379   2.650   0.710   4.522 -0.2028  0.1697 -0.1429
 5511SOL    HW121380   2.696   0.763   4.457 -0.2787  0.7336  0.2490
 5511SOL    HW221381   2.572   0.761   4.543  0.0715  0.2461  0.7528
 5512SOL     OW21382   0.220   8.582   2.797 -0.5317  0.2688 -0.0540
 5512SOL    HW121383   0.141   8.527   2.793 -0.4036  0.1125 -0.4716
 5512SOL    HW221384   0.292   8.521   2.787 -0.2426  0.1244  2.4104
 5513SOL     OW21385   2.996   7.518   0.855  0.3504 -0.0826 -0.9136
 5513SOL    HW121386   2.967   7.542   0.943  1.1062 -1.4252 -0.2593
 5513SOL    HW221387   3.053   7.442   0.869 -0.0712 -0.7546 -2.6271
 5514SOL     OW21388   2.358   8.600   0.654 -0.8527  0.3269 -0.5253
 5514SOL    HW121389   2.287   8.625   0.595  0.3951 -0.8046 -2.5737
 5514SOL    HW221390   2.343   8.507   0.672  0.1327  0.0668 -1.0203
 5515SOL     OW21391   1.602   0.738   3.337 -0.5003 -0.0025  0.2886
 5515SOL    HW121392   1.676   0.681   3.359 -0.1704 -0.6905 -2.2909
 5515SOL    HW221393   1.630   0.825   3.365  0.6498 -0.4811  0.7113
 5516SOL     OW21394   8.674   9.246   1.588 -0.1197 -0.3931 -0.1407
 5516SOL    HW121395   8.592   9.261   1.636  0.9358 -0.0239  1.6363
 5516SOL    HW221396   8.741   9.244   1.656  1.3960 -0.3849 -1.5846
 5517SOL     OW21397   2.560   8.324   0.388 -0.4795  0.3046 -0.0836
 5517SOL    HW121398   2.576   8.274   0.468  0.1424  0.0808 -0.3380
 5517SOL    HW221399   2.476   8.291   0.355 -0.4514 -0.0177  0.1651
 5518SOL     OW21400   4.357   7.654   2.021 -0.4832  0.0769  0.0703
 5518SOL    HW121401   4.295   7.608   2.077  0.2131  1.2894  1.9279
 5518SOL    HW221402   4.315   7.739   2.004  0.4216  0.7390  0.9957
 5519SOL     OW21403   8.985   0.649   3.292 -0.9963 -0.1997  0.0174
 5519SOL    HW121404   8.985   0.563   3.336 -2.0876 -1.1932 -1.8098
 5519SOL    HW221405   9.064   0.692   3.324 -0.2584 -2.0117  0.7691
 5520SOL     OW21406   1.232   8.725   2.953  0.3299  0.2701 -1.1898
 5520SOL    HW121407   1.289   8.782   2.902  0.3782 -0.3044 -1.7961
 5520SOL    HW221408   1.145   8.765   2.947  0.5604  0.8255 -0.7618
 5521SOL     OW21409   0.818   9.136   3.220 -0.4408  0.2336 -0.7449
 5521SOL    HW121410   0.821   9.143   3.124 -0.3591  0.6619 -0.7136
 5521SOL    HW221411   0.786   9.047   3.236 -2.6698  0.8798 -1.1986
 5522SOL     OW21412   0.426   9.682   1.661  0.7916 -0.1063 -0.2319
 5522SOL    HW121413   0.343   9.701   1.618 -1.4496  0.4373  3.8167
 5522SOL    HW221414   0.492   9.692   1.592 -2.4448 -1.2162 -3.8493
 5523SOL     OW21415   0.175   8.754   2.175  0.0811 -0.3991 -0.5364
 5523SOL    HW121416   0.199   8.781   2.263  2.5582  1.7584 -1.7458
 5523SOL    HW221417   0.081   8.768   2.170  0.2940  2.1232  0.9509
 5524SOL     OW21418   9.779   7.493   3.676  0.0561  0.3888  0.1819
 5524SOL    HW121419   9.716   7.455   3.737 -0.8846 -0.4972 -1.2763
 5524SOL    HW221420   9.746   7.582   3.660  0.2827  0.6110  0.8906
 5525SOL     OW21421   3.405   5.006   0.575 -0.2479  0.4375 -0.0164
 5525SOL    HW121422   3.339   4.965   0.520 -0.4533 -0.1160  0.6379
 5525SOL    HW221423   3.408   5.097   0.544  0.7943 -0.2162 -2.0239
 5526SOL     OW21424   2.042   7.204   3.420  0.4684 -0.5272 -0.0543
 5526SOL    HW121425   2.028   7.299   3.414 -1.0802 -0.7904 -1.1408
 5526SOL    HW221426   2.027   7.173   3.331 -0.3855 -1.9733  0.5791
 5527SOL     OW21427   0.522   8.113   2.204  0.0820  0.1643 -0.4581
 5527SOL    HW121428   0.481   8.196   2.229 -0.3157 -0.6617  1.9182
 5527SOL    HW221429   0.449   8.058   2.175  0.4390  0.8383 -2.7831
 5528SOL     OW21430   2.764   8.591   1.647  0.1168  0.1597  0.5948
 5528SOL    HW121431   2.777   8.677   1.686 -0.1714  0.9552 -0.9963
 5528SOL    HW221432   2.724   8.609   1.562 -4.3486 -1.7275  2.0038
 5529SOL     OW21433   0.946   1.517   4.540  0.3174  0.1086 -0.0909
 5529SOL    HW121434   0.989   1.476   4.464  2.6720  0.5439  0.9299
 5529SOL    HW221435   0.937   1.609   4.516  1.8672  0.4236  0.4506
 5530SOL     OW21436   0.113   8.849   5.847  0.5469 -0.6622 -0.2411
 5530SOL    HW121437   0.035   8.820   5.894 -0.4656  0.1996 -1.3106
 5530SOL    HW221438   0.083   8.865   5.757  1.9143 -0.1407 -0.6455
 5531SOL     OW21439   2.249   9.112   1.472 -0.5466 -0.3074 -0.5127
 5531SOL    HW121440   2.238   9.034   1.527 -1.2714 -0.6751 -1.1685
 5531SOL    HW221441   2.188   9.100   1.400  0.3243  0.2248 -1.3606
 5532SOL     OW21442   0.616   9.045   1.790 -0.3305  0.7877  0.1540
 5532SOL    HW121443   0.533   9.090   1.778 -1.4527 -1.4105 -0.9889
 5532SOL    HW221444   0.663   9.059   1.707 -0.9544 -0.5574 -0.4635
 5533SOL     OW21445   3.316   1.705   3.918 -0.0731 -0.6162  0.4701
 5533SOL    HW121446   3.314   1.694   4.014 -0.7603 -2.0914  0.3159
 5533SOL    HW221447   3.311   1.616   3.884  1.2330 -0.1648 -0.9575
 5534SOL     OW21448   2.442   6.419   9.780 -0.2170  0.0302 -0.4045
 5534SOL    HW121449   2.386   6.493   9.802 -0.8815 -0.4849 -0.3269
 5534SOL    HW221450   2.415   6.394   9.691  0.6094  0.4303 -0.7715
 5535SOL     OW21451   9.773   8.338   3.422  0.6793 -0.6047  0.0585
 5535SOL    HW121452   9.820   8.417   3.396  0.8322  0.1421  2.3967
 5535SOL    HW221453   9.833   8.292   3.479  0.1185 -1.8076 -0.2829
 5536SOL     OW21454   2.320   8.286   2.686 -0.3679  0.5885  0.0599
 5536SOL    HW121455   2.288   8.197   2.670  1.2698  0.1868 -1.1955
 5536SOL    HW221456   2.278   8.312   2.768 -1.6979 -0.9214 -0.0895
 5537SOL     OW21457   2.804   7.814   4.130  0.6258 -0.5722 -0.5534
 5537SOL    HW121458   2.730   7.777   4.082 -0.4009  0.9081 -0.1502
 5537SOL    HW221459   2.805   7.767   4.214 -1.2035  0.8222  0.3041
 5538SOL     OW21460   1.481   0.161   2.750 -0.4641 -0.0874  0.1264
 5538SOL    HW121461   1.425   0.196   2.820 -1.5119 -0.9451 -0.2647
 5538SOL    HW221462   1.425   0.099   2.703 -0.2767  1.5444 -2.4130
 5539SOL     OW21463   1.344   0.874   3.283 -0.9183  0.1036  0.2075
 5539SOL    HW121464   1.369   0.864   3.191 -0.9492  2.2895 -0.0942
 5539SOL    HW221465   1.379   0.796   3.326  1.4945  0.3291 -1.1711
 5540SOL     OW21466   0.005   0.977   2.646 -0.0639 -0.2015 -0.1236
 5540SOL    HW121467   0.006   1.073   2.645 -1.0263 -0.1778 -1.3421
 5540SOL    HW221468   0.092   0.952   2.616 -0.2448  0.3120 -1.0992
 5541SOL     OW21469   0.704   1.241   3.790 -0.3173 -0.2026 -0.0467
 5541SOL    HW121470   0.635   1.200   3.843 -1.2094  2.5035  1.0285
 5541SOL    HW221471   0.678   1.332   3.782  1.9814  0.4047 -1.6488
 5542SOL     OW21472   3.044   7.637   2.200 -0.0954 -0.3100  0.0515
 5542SOL    HW121473   3.124   7.669   2.157 -0.5291  0.2672 -0.3382
 5542SOL    HW221474   3.027   7.553   2.158 -0.3718  0.1316 -0.7441
 5543SOL     OW21475   0.903   8.610   2.897  0.6730  0.3742  0.2577
 5543SOL    HW121476   0.980   8.581   2.848  0.8549  1.2165  0.0167
 5543SOL    HW221477   0.832   8.610   2.832  1.1418  2.5478 -0.3662
 5544SOL     OW21478   9.230   8.491   5.135 -0.2247  0.2557 -0.3741
 5544SOL    HW121479   9.213   8.545   5.213 -0.9565  0.8429 -0.9233
 5544SOL    HW221480   9.325   8.496   5.123  0.0818 -0.9175  1.2222
 5545SOL     OW21481   7.662   1.080   4.065 -0.2235  0.4308 -0.0621
 5545SOL    HW121482   7.573   1.066   4.032 -0.3064  0.4714  0.1433
 5545SOL    HW221483   7.717   1.027   4.007 -0.5754 -1.1406  0.9770
 5546SOL     OW21484   1.437   9.765   4.170  0.4128  0.1254  0.1415
 5546SOL    HW121485   1.343   9.783   4.173  0.6984  2.2567 -1.3808
 5546SOL    HW221486   1.475   9.827   4.232  0.9562  0.9316 -0.9485
 5547SOL     OW21487   2.436   9.260   2.932 -0.5939 -0.0248  0.3623
 5547SOL    HW121488   2.380   9.274   2.855 -1.9464 -2.2922  0.8457
 5547SOL    HW221489   2.524   9.280   2.902 -1.4733  2.6693 -0.7301
 5548SOL     OW21490   2.433   8.714   7.194 -0.0000  0.4422 -0.0942
 5548SOL    HW121491   2.446   8.659   7.272 -0.7258  0.0976 -0.2149
 5548SOL    HW221492   2.414   8.652   7.124 -0.4623  0.8210 -0.3066
 5549SOL     OW21493   0.619   9.536   4.386 -0.5533 -0.7042  0.2096
 5549SOL    HW121494   0.700   9.583   4.404 -1.7285  2.3049 -1.6007
 5549SOL    HW221495   0.647   9.451   4.352  1.7597 -0.4919  1.4133
 5550SOL     OW21496   9.251   8.268   6.112  0.0365  0.1650 -0.4185
 5550SOL    HW121497   9.295   8.268   6.026  1.1561 -0.3545  0.1319
 5550SOL    HW221498   9.289   8.344   6.157 -0.9940  0.7958 -0.5847
 5551SOL     OW21499   1.258   9.423   6.166 -0.1619 -0.0706  0.3939
 5551SOL    HW121500   1.317   9.487   6.127  0.8330  0.2003  2.2547
 5551SOL    HW221501   1.250   9.354   6.100  2.7105 -0.3903  0.2631
 5552SOL     OW21502   2.121   1.879   4.989  0.4377  0.3240 -0.2529
 5552SOL    HW121503   2.091   1.852   4.902  1.7324  1.1763 -1.0001
 5552SOL    HW221504   2.045   1.866   5.046 -0.1924 -0.9936 -1.3476
 5553SOL     OW21505   6.717   0.629   3.183  0.5449  0.5747  0.1578
 5553SOL    HW121506   6.684   0.688   3.116  0.5869  3.0642  2.1776
 5553SOL    HW221507   6.810   0.650   3.192  1.2819 -1.8283 -0.9709
 5554SOL     OW21508   9.780   8.343   5.998  0.3802 -0.3315  0.2570
 5554SOL    HW121509   9.790   8.325   5.904  0.3366 -1.3882  0.4445
 5554SOL    HW221510   9.702   8.398   6.003 -2.4075 -3.8823 -0.0066
 5555SOL     OW21511   1.867   1.055   5.008  0.3710  0.1120 -0.4003
 5555SOL    HW121512   1.884   0.961   5.013  0.3350  0.1123 -0.2784
 5555SOL    HW221513   1.785   1.061   4.960  0.4728  0.0900 -0.5777
 5556SOL     OW21514   2.240   8.760   3.187  0.0085  0.5306 -0.0712
 5556SOL    HW121515   2.239   8.822   3.114 -0.7623  0.7034  0.0704
 5556SOL    HW221516   2.247   8.815   3.265  0.7188  0.3545 -0.0097
 5557SOL     OW21517   1.894   2.372   3.900 -0.3360  0.0599  0.5634
 5557SOL    HW121518   1.962   2.316   3.864 -1.1482 -1.2970  1.0727
 5557SOL    HW221519   1.873   2.333   3.985 -1.3180  0.8072  0.6774
 5558SOL     OW21520   2.982   9.059   2.712  0.2896 -0.4596 -0.0054
 5558SOL    HW121521   2.938   9.061   2.797  1.4541  1.2602  0.6190
 5558SOL    HW221522   2.947   8.982   2.668  0.1613 -1.7974  2.3080
 5559SOL     OW21523   0.871   8.274   5.177  0.3076 -0.1879  0.4189
 5559SOL    HW121524   0.824   8.295   5.097 -0.6032 -0.7645  0.7962
 5559SOL    HW221525   0.862   8.353   5.231 -1.2032 -0.6895  0.9370
 5560SOL     OW21526   0.188   9.005   2.678 -0.4824  0.1310 -0.1637
 5560SOL    HW121527   0.163   9.039   2.592 -2.0213 -1.1406 -0.2614
 5560SOL    HW221528   0.106   8.981   2.720  0.4244 -2.2940  0.3731
 5561SOL     OW21529   1.193   7.999   6.972 -0.7358  0.6067  0.3722
 5561SOL    HW121530   1.222   7.922   6.925  2.0501 -0.3631  3.3272
 5561SOL    HW221531   1.103   7.978   6.999 -1.1597 -0.1878 -1.4970
 5562SOL     OW21532   1.319   6.930   5.929  0.4998 -0.1988  0.6104
 5562SOL    HW121533   1.301   7.024   5.932 -1.5278 -0.5434  0.6807
 5562SOL    HW221534   1.277   6.900   5.848 -0.5788 -1.3179  1.5296
 5563SOL     OW21535   2.559   0.477   5.053 -0.1532  0.4033 -0.5831
 5563SOL    HW121536   2.471   0.472   5.016 -0.4849  0.3565  0.2064
 5563SOL    HW221537   2.552   0.541   5.123  0.2277 -0.2657  0.0780
 5564SOL     OW21538   0.404   0.580   3.932  0.0169  0.4335 -0.1836
 5564SOL    HW121539   0.427   0.528   3.855  1.2796  2.8477 -1.5355
 5564SOL    HW221540   0.321   0.542   3.962 -1.4261  0.4281 -3.7235
 5565SOL     OW21541   0.897   9.469   3.829  0.0581  0.3145 -0.3220
 5565SOL    HW121542   0.839   9.541   3.853  0.0238 -0.6862  2.9983
 5565SOL    HW221543   0.982   9.493   3.865  0.8804  0.0854 -1.9851
 5566SOL     OW21544   2.297   6.972   6.404 -0.3319  0.1875 -0.4996
 5566SOL    HW121545   2.257   7.054   6.433 -0.2938  0.2797 -0.7020
 5566SOL    HW221546   2.262   6.958   6.316  1.2788  1.1057 -1.3531
 5567SOL     OW21547   0.567   8.053   6.172  0.0574  0.2897 -0.0105
 5567SOL    HW121548   0.515   8.070   6.094 -0.2613  2.8744  0.6594
 5567SOL    HW221549   0.505   8.017   6.235 -0.1658  0.2550 -0.2491
 5568SOL     OW21550   2.524   9.760   3.670 -0.2852 -0.8332 -0.2841
 5568SOL    HW121551   2.484   9.704   3.604 -0.6216 -2.2780  1.0774
 5568SOL    HW221552   2.613   9.726   3.680 -0.3739 -0.9023  0.2987
 5569SOL     OW21553   0.140   8.903   4.812  0.1670 -0.0518 -0.7594
 5569SOL    HW121554   0.095   8.922   4.730  1.0578  1.2818 -0.9622
 5569SOL    HW221555   0.233   8.904   4.789  0.4506  0.8927  0.3609
 5570SOL     OW21556   0.675   8.900   3.262 -0.1201  0.6923  0.1106
 5570SOL    HW121557   0.615   8.929   3.194  0.1663 -1.1643 -1.0097
 5570SOL    HW221558   0.633   8.823   3.300  0.9122  0.1732  0.2397
 5571SOL     OW21559   3.733   7.943   2.867  0.6027 -0.0257 -0.0747
 5571SOL    HW121560   3.700   8.022   2.909  1.0465 -0.0854  0.3999
 5571SOL    HW221561   3.659   7.909   2.816 -0.2771 -0.5311  1.4804
 5572SOL     OW21562   1.241   8.223   5.381 -0.7052  0.3284  0.6433
 5572SOL    HW121563   1.182   8.192   5.450 -0.4116 -0.6533  0.4715
 5572SOL    HW221564   1.253   8.147   5.324 -0.4543  0.9521 -0.1530
 5573SOL     OW21565   0.751   0.090   3.936 -0.2343 -0.1530  0.2158
 5573SOL    HW121566   0.729   0.004   3.900 -0.5663 -0.3330  0.8175
 5573SOL    HW221567   0.731   0.082   4.030  0.9292  0.1829  0.5063
 5574SOL     OW21568   0.162   0.486   4.516 -0.4092 -0.6358 -0.1046
 5574SOL    HW121569   0.186   0.579   4.517 -0.7045 -0.5487 -0.8488
 5574SOL    HW221570   0.237   0.442   4.556 -0.4536 -0.0403  0.6557
 5575SOL     OW21571   8.898   9.416   4.042  0.0677  0.7975 -0.3166
 5575SOL    HW121572   8.876   9.412   4.135 -1.3338  0.1166 -0.6535
 5575SOL    HW221573   8.923   9.507   4.027  1.2755  0.6913  0.9192
 5576SOL     OW21574   0.233   9.464   3.824  0.0203  0.2123 -0.1123
 5576SOL    HW121575   0.154   9.441   3.776  1.2777 -2.3657 -1.1843
 5576SOL    HW221576   0.284   9.517   3.762 -0.2877  0.7390  0.0829
 5577SOL     OW21577   2.277   9.262   2.269 -0.2387  0.4044  0.0910
 5577SOL    HW121578   2.195   9.233   2.309 -0.9397  1.2526 -0.6728
 5577SOL    HW221579   2.337   9.189   2.281 -1.4353 -0.6840 -0.3154
 5578SOL     OW21580   9.674   0.803   5.487 -0.0456  0.1108  0.1012
 5578SOL    HW121581   9.688   0.818   5.580 -0.4232 -0.8126  0.3173
 5578SOL    HW221582   9.699   0.886   5.445 -2.0938  1.3537  1.2132
 5579SOL     OW21583   9.810   7.108   5.337 -0.4722  0.1515 -0.5855
 5579SOL    HW121584   9.840   7.045   5.271  0.8472  1.5085 -1.3682
 5579SOL    HW221585   9.739   7.155   5.294 -1.1969 -0.5376 -0.1477
 5580SOL     OW21586   2.062   0.408   5.431 -0.0805  0.2192  0.6193
 5580SOL    HW121587   1.986   0.403   5.489 -0.4478 -2.1614  0.0368
 5580SOL    HW221588   2.026   0.427   5.345  0.0977  0.3203  0.5671
 5581SOL     OW21589   1.506   8.772   3.304  0.0977  0.4920 -0.7956
 5581SOL    HW121590   1.541   8.793   3.390 -1.7709  2.4131 -0.4344
 5581SOL    HW221591   1.524   8.678   3.293 -0.9124 -0.1738  2.3122
 5582SOL     OW21592   2.189   9.329   4.736 -0.4827  0.2958  0.2849
 5582SOL    HW121593   2.120   9.291   4.790 -0.9072 -0.3277 -0.6676
 5582SOL    HW221594   2.271   9.297   4.774 -0.6623  1.3951  1.6923
 5583SOL     OW21595   2.562   9.343   4.740  0.3635 -0.0097 -0.2727
 5583SOL    HW121596   2.513   9.261   4.747 -2.3466  1.5516  0.6506
 5583SOL    HW221597   2.571   9.358   4.646  1.0964 -1.3930 -0.4627
 5584SOL     OW21598   1.617   1.039   4.932 -0.5011  0.7120  0.0651
 5584SOL    HW121599   1.561   0.981   4.984 -1.0252  1.1255 -0.0253
 5584SOL    HW221600   1.560   1.069   4.860 -0.1197  1.0274 -0.1093
 5585SOL     OW21601   9.698   0.155   5.719  0.3328 -0.0746 -0.8029
 5585SOL    HW121602   9.675   0.104   5.641  0.8820 -1.4569 -0.0965
 5585SOL    HW221603   9.789   0.133   5.737 -0.5291 -2.1120  1.8474
 5586SOL     OW21604   2.071   9.142   5.007 -0.0374  0.6832  0.7052
 5586SOL    HW121605   2.162   9.140   5.039  0.3617  0.8753 -0.3899
 5586SOL    HW221606   2.049   9.235   5.004 -0.3272  0.6294  1.1092
 5587SOL     OW21607   0.225   0.128   5.191  0.4066  0.2771 -0.1276
 5587SOL    HW121608   0.145   0.087   5.159 -0.1105  0.4686  0.8747
 5587SOL    HW221609   0.285   0.055   5.206  0.5014  0.1492 -1.0627
 5588SOL     OW21610   9.022   2.011   3.794 -0.2917 -0.3197  0.2784
 5588SOL    HW121611   8.976   1.983   3.715 -0.5361  0.3365  0.1775
 5588SOL    HW221612   9.071   1.934   3.822  0.0588 -0.4680 -0.7004
 5589SOL     OW21613   1.439   0.693   5.641 -0.0313  0.5711 -0.5646
 5589SOL    HW121614   1.439   0.698   5.737  0.4328 -0.0700 -0.5270
 5589SOL    HW221615   1.481   0.774   5.612  2.9831 -0.7048 -0.1240
 5590SOL     OW21616   1.734   9.348   4.914  0.1164 -0.0971  0.6579
 5590SOL    HW121617   1.652   9.390   4.890  1.4208  1.9353 -0.4804
 5590SOL    HW221618   1.757   9.293   4.839 -0.1331 -0.5604  0.9191
 5591SOL     OW21619   2.615   6.467   4.380 -0.3960 -0.0059  0.0047
 5591SOL    HW121620   2.684   6.532   4.370 -2.1462  1.7436 -1.5636
 5591SOL    HW221621   2.568   6.494   4.459 -1.2569  0.8296 -0.7684
 5592SOL     OW21622   0.618   0.390   4.253 -0.0411 -0.7282  0.0168
 5592SOL    HW121623   0.546   0.328   4.264 -0.1893 -0.9830 -2.0815
 5592SOL    HW221624   0.593   0.466   4.306 -1.2136 -1.3381  0.3549
 5593SOL     OW21625   0.238   9.443   5.019  0.5936 -0.4607  0.3289
 5593SOL    HW121626   0.266   9.413   4.933  0.4348 -0.2015  0.1833
 5593SOL    HW221627   0.301   9.511   5.042  0.0764  0.1551 -0.0189
 5594SOL     OW21628   4.030   7.406   4.401 -0.3161  0.2833  1.0990
 5594SOL    HW121629   4.027   7.362   4.316 -3.2272 -1.3089  1.8898
 5594SOL    HW221630   4.105   7.367   4.446  1.5048  1.4197 -0.7664
 5595SOL     OW21631   9.735   8.182   6.610  0.1885  0.1273 -0.3839
 5595SOL    HW121632   9.749   8.276   6.620  0.5842 -0.0289  0.6833
 5595SOL    HW221633   9.815   8.142   6.646  0.5472 -0.5978 -1.8981
 5596SOL     OW21634   0.929   8.898   3.644 -0.2848 -0.0951  0.5595
 5596SOL    HW121635   0.957   8.885   3.553 -0.4370 -0.1804  0.5238
 5596SOL    HW221636   0.925   8.809   3.680  0.5656 -0.0104  0.8920
 5597SOL     OW21637   9.830   8.708   2.958  0.4355  0.3071 -0.6223
 5597SOL    HW121638   9.791   8.686   3.042  1.7882 -0.4553 -0.1721
 5597SOL    HW221639   9.773   8.665   2.893 -1.1845  1.7195 -0.2050
 5598SOL     OW21640   9.387   9.005   6.398  0.2222  0.5425 -0.1536
 5598SOL    HW121641   9.434   8.965   6.472 -1.2691 -0.6181  0.2158
 5598SOL    HW221642   9.452   9.011   6.329  1.2912  0.3391  0.8033
 5599SOL     OW21643   1.474   9.783   3.066  0.5518 -0.2168  0.0580
 5599SOL    HW121644   1.521   9.747   2.991  0.6290 -0.3492  0.1718
 5599SOL    HW221645   1.465   9.710   3.127  0.3088 -0.1605  0.0914
 5600SOL     OW21646   0.666   8.206   6.612 -0.2074 -0.0958  0.0648
 5600SOL    HW121647   0.578   8.169   6.615 -0.2872  0.0081 -0.8487
 5600SOL    HW221648   0.677   8.234   6.522 -0.3798  2.7272  0.8448
 5601SOL     OW21649   0.183   9.077   3.262  0.4544  0.0858  0.3904
 5601SOL    HW121650   0.140   9.079   3.347  0.1827 -1.0018  0.2999
 5601SOL    HW221651   0.204   9.168   3.243 -0.4119  0.4621  1.1519
 5602SOL     OW21652   9.522   2.619   4.535  0.4462 -0.1306  0.2273
 5602SOL    HW121653   9.444   2.627   4.479  0.0483  0.9483  0.8886
 5602SOL    HW221654   9.590   2.667   4.488  0.2919  0.2146  0.3511
 5603SOL     OW21655   1.810   1.356   4.299 -0.3645  0.1359 -0.3627
 5603SOL    HW121656   1.796   1.374   4.392 -0.5712 -0.8421 -0.1886
 5603SOL    HW221657   1.905   1.361   4.287 -0.3629  0.5661 -0.1632
 5604SOL     OW21658   0.707   7.997   5.768  0.0184 -0.3571 -0.1370
 5604SOL    HW121659   0.694   7.933   5.838 -0.8381  0.5728  0.5992
 5604SOL    HW221660   0.769   8.060   5.805  0.4639 -0.4833 -0.6619
 5605SOL     OW21661   1.136   8.386   4.080  0.0092 -0.6104  0.3486
 5605SOL    HW121662   1.093   8.301   4.087  0.4020 -0.7037  1.7932
 5605SOL    HW221663   1.066   8.446   4.054 -0.1757 -1.4328 -1.1544
 5606SOL     OW21664   8.983   7.163   5.709 -0.3586 -0.1836 -0.1731
 5606SOL    HW121665   9.029   7.096   5.659 -1.2039 -0.5270 -0.5064
 5606SOL    HW221666   9.052   7.219   5.743  0.2531 -0.0393 -1.5833
 5607SOL     OW21667   1.961   7.640   6.121 -0.2975 -0.1652 -0.0676
 5607SOL    HW121668   1.918   7.700   6.182 -1.4270  0.2876 -1.2803
 5607SOL    HW221669   1.910   7.559   6.127 -0.4675 -0.0890 -0.4773
 5608SOL     OW21670   2.127   0.130   5.206  0.1877  0.4685  0.2772
 5608SOL    HW121671   2.174   0.211   5.224 -0.0569  1.2660 -2.2951
 5608SOL    HW221672   2.197   0.065   5.195  0.6019  1.0722 -0.8796
 5609SOL     OW21673   1.921   0.238   8.022 -0.3754  0.1432 -0.5378
 5609SOL    HW121674   1.966   0.232   8.106 -1.3436 -1.1237 -0.0835
 5609SOL    HW221675   1.874   0.321   8.026 -0.6886 -0.0626  0.3184
 5610SOL     OW21676   1.887   0.169   5.961 -0.2104 -0.1661  0.2092
 5610SOL    HW121677   1.973   0.211   5.951 -0.0741 -0.2950  0.7797
 5610SOL    HW221678   1.883   0.146   6.054 -0.0802 -1.8455 -0.1665
 5611SOL     OW21679   0.689   7.563   6.330  0.0996  0.0894  0.2640
 5611SOL    HW121680   0.595   7.548   6.333 -0.1789  0.2650 -3.2632
 5611SOL    HW221681   0.698   7.656   6.309  0.9230 -0.3422 -1.4746
 5612SOL     OW21682   0.152   9.551   6.056  0.2154 -0.3894 -0.2249
 5612SOL    HW121683   0.233   9.501   6.046  0.4163 -0.1608  0.2224
 5612SOL    HW221684   0.082   9.490   6.029  0.2714 -1.6142  2.1612
 5613SOL     OW21685   2.903   1.145   6.605 -0.1093  0.1553 -0.7084
 5613SOL    HW121686   2.997   1.146   6.583  0.0450  1.5516 -0.1186
 5613SOL    HW221687   2.860   1.164   6.522  0.0586 -1.2625 -1.1504
 5614SOL     OW21688   1.137   1.265   6.959  0.1191  0.3304 -0.0705
 5614SOL    HW121689   1.131   1.223   7.045 -0.4475 -1.6502 -1.0124
 5614SOL    HW221690   1.108   1.354   6.973 -0.1302 -0.0156  1.7598
 5615SOL     OW21691   1.530   9.312   7.687  0.2958  0.2630  0.3824
 5615SOL    HW121692   1.477   9.271   7.756  0.5826  1.2239  1.2122
 5615SOL    HW221693   1.465   9.350   7.627  0.0428 -0.2980  0.2938
 5616SOL     OW21694   0.114   9.075   7.483  0.8955  0.1529  0.4185
 5616SOL    HW121695   0.068   9.093   7.565 -1.5689  0.6878 -0.9608
 5616SOL    HW221696   0.121   8.980   7.480 -1.5796 -0.0962  0.0532
 5617SOL     OW21697   1.170   8.062   8.512 -0.2031  0.5286  0.4314
 5617SOL    HW121698   1.084   8.065   8.553 -0.0375  1.2769  0.7457
 5617SOL    HW221699   1.196   7.970   8.517 -0.1567  0.5974  2.0877
 5618SOL     OW21700   9.695   9.367   6.255 -0.2871  0.1342  0.5201
 5618SOL    HW121701   9.629   9.424   6.216  0.2536 -0.5217 -1.4638
 5618SOL    HW221702   9.665   9.352   6.345 -1.9525  1.1590  0.1595
 5619SOL     OW21703   0.166   6.927   5.933  0.4005 -0.0579 -0.4372
 5619SOL    HW121704   0.149   6.902   6.024 -1.1316  2.2539 -0.0182
 5619SOL    HW221705   0.123   7.012   5.923  2.9117  1.0967 -2.5288
 5620SOL     OW21706   6.393   7.867   5.246 -0.1842  0.1140 -0.4081
 5620SOL    HW121707   6.378   7.945   5.300 -0.9239 -1.0123  1.0986
 5620SOL    HW221708   6.322   7.870   5.181 -0.8242  0.1892  0.2726
 5621SOL     OW21709   1.343   7.274   6.253 -0.0528 -0.1892 -0.0549
 5621SOL    HW121710   1.388   7.228   6.182 -0.9019 -1.4329  0.1788
 5621SOL    HW221711   1.381   7.362   6.252  1.4224 -0.7961 -0.7080
 5622SOL     OW21712   4.502   9.683   7.529  0.4072 -0.3667 -0.0997
 5622SOL    HW121713   4.417   9.684   7.572  0.2200  0.3235 -0.4595
 5622SOL    HW221714   4.489   9.734   7.448  0.5663 -2.2244 -1.3466
 5623SOL     OW21715   9.435   9.503   6.539  0.6849  0.6218 -0.2131
 5623SOL    HW121716   9.511   9.451   6.515 -0.0509 -1.4099  1.5475
 5623SOL    HW221717   9.471   9.582   6.580  1.9062 -0.8566  1.7127
 5624SOL     OW21718   0.746   9.594   8.181  0.0071 -0.4354 -0.2655
 5624SOL    HW121719   0.690   9.525   8.218 -0.9602  0.2139 -0.4783
 5624SOL    HW221720   0.826   9.590   8.232  0.2504 -2.1689 -0.6910
 5625SOL     OW21721   0.715   9.385   8.626  0.0410  0.3219 -0.0351
 5625SOL    HW121722   0.769   9.438   8.685 -1.9458 -0.3959  2.6050
 5625SOL    HW221723   0.722   9.296   8.661 -0.0896 -0.4195 -1.7960
 5626SOL     OW21724   1.212   0.420   5.526 -0.7452  0.3867  0.3854
 5626SOL    HW121725   1.174   0.359   5.589 -0.6923  0.6682  0.6927
 5626SOL    HW221726   1.258   0.364   5.463  1.4196  0.1862  2.0305
 5627SOL     OW21727   3.246   9.577   8.060 -0.4539  0.0163 -0.1404
 5627SOL    HW121728   3.190   9.499   8.049 -1.0982  0.5091 -0.4335
 5627SOL    HW221729   3.261   9.583   8.154 -0.0367 -0.7100 -0.1540
 5628SOL     OW21730   1.468   8.759   7.949 -0.5221  0.6149  0.5038
 5628SOL    HW121731   1.416   8.686   7.980 -2.7810  1.4241 -1.0966
 5628SOL    HW221732   1.500   8.731   7.863  0.3270  0.7437  0.7721
 5629SOL     OW21733   1.063   9.446   7.857 -0.0474 -0.5557  0.2926
 5629SOL    HW121734   0.972   9.445   7.888 -0.2835  0.5500 -0.3095
 5629SOL    HW221735   1.059   9.492   7.773  0.9925 -1.0098 -0.0210
 5630SOL     OW21736   8.484   0.582   7.656  0.2501 -0.2374  0.1270
 5630SOL    HW121737   8.423   0.557   7.725  1.6517 -1.7938  0.8936
 5630SOL    HW221738   8.504   0.499   7.611  0.6021  0.4837 -1.1041
 5631SOL     OW21739   0.211   9.752   4.759 -0.2396 -0.1012 -0.5166
 5631SOL    HW121740   0.296   9.775   4.720  0.9797 -4.8481 -1.2912
 5631SOL    HW221741   0.229   9.743   4.852  0.4862 -2.1662 -0.8191
 5632SOL     OW21742   9.415   9.406   4.312  0.7365  0.3400  0.2522
 5632SOL    HW121743   9.399   9.467   4.240  2.4580  0.8449  0.2581
 5632SOL    HW221744   9.437   9.463   4.386  0.0150 -0.2160  0.9051
 5633SOL     OW21745   1.298   1.235   5.819  0.4084 -0.4961  0.1339
 5633SOL    HW121746   1.250   1.191   5.889 -3.6735  2.1597 -0.6564
 5633SOL    HW221747   1.348   1.303   5.863 -1.5808  0.7118  0.6330
 5634SOL     OW21748   1.079   0.654   7.557  0.0063 -0.1837  0.3024
 5634SOL    HW121749   1.014   0.701   7.608  0.6226  0.8033  0.2155
 5634SOL    HW221750   1.036   0.634   7.474  0.0410  1.1811 -0.0764
 5635SOL     OW21751   9.560   8.092   6.820 -0.2530  0.2698 -0.3491
 5635SOL    HW121752   9.629   8.046   6.868  1.0720  2.5006  0.0177
 5635SOL    HW221753   9.605   8.133   6.747 -0.7754  3.1385  0.8058
 5636SOL     OW21754   1.041   0.959   7.371 -0.2599  0.2058 -0.4794
 5636SOL    HW121755   1.000   0.873   7.361  2.9338 -1.6671  1.0857
 5636SOL    HW221756   0.995   0.999   7.444  0.2577 -1.6341  0.9361
 5637SOL     OW21757   8.009   1.444   7.795 -0.5501 -0.3076 -0.6192
 5637SOL    HW121758   8.083   1.414   7.743 -0.6048 -0.1093 -0.8121
 5637SOL    HW221759   7.957   1.364   7.811 -1.3505 -0.1398 -2.1901
 5638SOL     OW21760   0.614   7.647   6.030 -0.0940 -0.1252  0.8603
 5638SOL    HW121761   0.598   7.575   6.091  0.5007 -0.5773  0.4908
 5638SOL    HW221762   0.527   7.684   6.012 -0.8507 -2.6852 -1.3195
 5639SOL     OW21763   2.444   9.453   6.853  0.2559 -0.0782 -0.0556
 5639SOL    HW121764   2.393   9.373   6.868  1.8014 -0.9457  0.8706
 5639SOL    HW221765   2.513   9.427   6.792  1.0323  0.4148  0.5874
 5640SOL     OW21766   0.370   9.399   5.992 -0.7523 -0.1236  0.0860
 5640SOL    HW121767   0.434   9.461   5.957 -3.5067  3.1718  0.4086
 5640SOL    HW221768   0.355   9.337   5.921 -0.9344  2.1397 -1.9579
 5641SOL     OW21769   0.639   0.094   6.462 -0.2378 -0.4470  0.3530
 5641SOL    HW121770   0.667   0.013   6.421  1.9693  0.8990 -0.9432
 5641SOL    HW221771   0.566   0.124   6.408 -0.2347 -0.9176  0.0798
 5642SOL     OW21772   0.437   8.094   9.498 -0.1051 -0.0807 -0.0539
 5642SOL    HW121773   0.414   8.113   9.407  2.1394  0.0666 -0.6308
 5642SOL    HW221774   0.435   8.180   9.541 -0.1005  0.0039 -0.2239
 5643SOL     OW21775   9.257   0.319   5.906 -0.1329 -0.0821 -0.0766
 5643SOL    HW121776   9.224   0.369   5.831 -0.4064  0.5811  0.4697
 5643SOL    HW221777   9.286   0.236   5.869  0.0337  0.3616 -0.9644
 5644SOL     OW21778   1.912   0.822   5.544 -0.5813  0.0450 -0.5316
 5644SOL    HW121779   1.904   0.917   5.532 -0.9848  0.0486 -0.2275
 5644SOL    HW221780   2.003   0.810   5.572 -0.7521  0.4249  0.2108
 5645SOL     OW21781   0.955   8.658   6.745  0.9523 -0.4757 -0.4220
 5645SOL    HW121782   1.026   8.638   6.805 -0.5139 -1.4459  1.0964
 5645SOL    HW221783   0.882   8.603   6.775 -0.8933  1.5092 -0.9658
 5646SOL     OW21784   1.138   7.352   6.947 -0.3135  0.1519  0.2813
 5646SOL    HW121785   1.093   7.435   6.968 -1.4535 -0.5126  0.5446
 5646SOL    HW221786   1.096   7.322   6.866  0.3186 -0.0166  0.0124
 5647SOL     OW21787   9.291   1.553   6.041  0.1648 -0.0141  0.5594
 5647SOL    HW121788   9.341   1.630   6.013  0.0520 -0.1448 -0.0199
 5647SOL    HW221789   9.307   1.547   6.135  0.7745  0.2824  0.4811
 5648SOL     OW21790   8.207   7.860   8.776 -0.0864  0.0192 -0.2287
 5648SOL    HW121791   8.220   7.773   8.738  0.3849 -0.2250  0.4583
 5648SOL    HW221792   8.185   7.842   8.868  0.3544  0.6295  0.0037
 5649SOL     OW21793   0.846   1.601   6.127  0.0240 -0.1559 -0.4113
 5649SOL    HW121794   0.777   1.598   6.061  0.4136  1.4055 -0.9408
 5649SOL    HW221795   0.875   1.692   6.127  0.6637 -0.3265  1.2897
 5650SOL     OW21796   3.180   9.033   6.223  0.0544 -0.1841 -0.3270
 5650SOL    HW121797   3.097   9.044   6.175 -0.1577 -2.8473 -0.7427
 5650SOL    HW221798   3.242   9.001   6.156  1.7150  2.5210 -0.1983
 5651SOL     OW21799   0.817   8.789   5.485 -0.1980  0.0103  0.4252
 5651SOL    HW121800   0.855   8.875   5.501 -2.8578  1.1779  1.0330
 5651SOL    HW221801   0.831   8.740   5.566  0.8050  0.0481  0.2847
 5652SOL     OW21802   1.636   8.193   3.253  0.0946 -0.7880 -0.1438
 5652SOL    HW121803   1.598   8.105   3.262 -2.2230  0.0996 -0.3577
 5652SOL    HW221804   1.562   8.247   3.223  0.9362  1.6159  1.8031
 5653SOL     OW21805   8.444   0.465   3.901  0.6335  0.9169 -1.1086
 5653SOL    HW121806   8.492   0.409   3.839 -2.2888  1.3266 -4.0346
 5653SOL    HW221807   8.369   0.412   3.927 -0.1448  2.0994 -0.8837
 5654SOL     OW21808   9.551   9.388   5.666 -0.3391 -0.0709  0.0261
 5654SOL    HW121809   9.554   9.309   5.613 -0.4436 -1.0143  1.3674
 5654SOL    HW221810   9.625   9.441   5.636  2.0925 -2.3498  1.5725
 5655SOL     OW21811   9.176   9.052   6.219  0.6355  0.6819  0.4281
 5655SOL    HW121812   9.245   9.055   6.284  0.4298  0.4494  0.6599
 5655SOL    HW221813   9.220   9.030   6.137  0.6111 -1.2636  0.9055
 5656SOL     OW21814   0.922   7.958   8.600 -0.3928  0.1928  0.0658
 5656SOL    HW121815   0.861   7.951   8.673 -0.1401  1.3089  0.3956
 5656SOL    HW221816   0.977   7.880   8.608 -0.8674 -0.0960  0.5957
 5657SOL     OW21817   0.738   1.088   7.384  0.2092 -0.5561  0.1556
 5657SOL    HW121818   0.670   1.020   7.389 -0.4548  0.1651  2.2853
 5657SOL    HW221819   0.694   1.168   7.414  1.4598  0.4100 -0.4816
 5658SOL     OW21820   1.536   0.409   6.515  0.5392  0.3150 -0.0521
 5658SOL    HW121821   1.552   0.496   6.552  2.1513 -1.2492  3.3987
 5658SOL    HW221822   1.512   0.355   6.590 -0.2169 -2.3100 -2.0349
 5659SOL     OW21823   0.060   0.026   7.142  0.2775  0.1987 -0.3643
 5659SOL    HW121824  -0.006  -0.042   7.156  0.4342  0.2738  0.8313
 5659SOL    HW221825   0.072   0.028   7.047 -0.4154 -0.7899 -0.4927
 5660SOL     OW21826   1.611   9.669   5.731 -0.8289 -0.1006  0.0938
 5660SOL    HW121827   1.624   9.664   5.637  0.2469 -0.2435  0.2309
 5660SOL    HW221828   1.602   9.578   5.759 -2.8146  0.0195 -0.0620
 5661SOL     OW21829   0.807   7.726   7.387  0.5514 -0.3785  0.0451
 5661SOL    HW121830   0.746   7.795   7.410  0.2000 -1.1235  1.4380
 5661SOL    HW221831   0.752   7.651   7.366  0.9665 -0.9828  1.0692
 5662SOL     OW21832   1.555   0.072   5.511  0.4701 -0.0636 -0.0965
 5662SOL    HW121833   1.623   0.014   5.476 -2.2874 -2.6782 -1.6585
 5662SOL    HW221834   1.595   0.113   5.587  4.0471 -0.6688 -1.4389
 5663SOL     OW21835   8.741   7.737   5.999 -0.6292  0.0704  0.4375
 5663SOL    HW121836   8.774   7.820   5.965  1.1403 -1.2361 -1.3471
 5663SOL    HW221837   8.717   7.687   5.921  1.4162 -2.2419  1.1289
 5664SOL     OW21838   0.411   6.737   6.873  0.3464  0.5910  0.8535
 5664SOL    HW121839   0.347   6.673   6.904  1.2474 -0.0751  1.3960
 5664SOL    HW221840   0.494   6.709   6.912  0.8856  1.7158  0.5683
 5665SOL     OW21841   2.659   0.227   6.904  0.0184  0.3002 -0.1106
 5665SOL    HW121842   2.701   0.180   6.977 -1.0105  1.5537  1.3605
 5665SOL    HW221843   2.609   0.159   6.858  2.1875 -0.8812 -0.8585
 5666SOL     OW21844   1.832   8.644   7.268  0.4321 -0.0489  0.4181
 5666SOL    HW121845   1.793   8.562   7.299 -0.4791  0.4705  0.6945
 5666SOL    HW221846   1.758   8.705   7.262  0.6725  0.1113 -2.0576
 5667SOL     OW21847   9.673   7.983   4.294  0.0443  0.4161 -0.1572
 5667SOL    HW121848   9.616   8.051   4.259  0.3641  0.4659 -0.5883
 5667SOL    HW221849   9.762   8.016   4.280  0.2050 -0.1619 -0.5204
 5668SOL     OW21850   0.580   9.521   6.177  0.2466 -0.3942  0.2974
 5668SOL    HW121851   0.661   9.533   6.127  1.4018  1.3200  2.4323
 5668SOL    HW221852   0.511   9.543   6.115  1.5446  0.6801 -0.8447
 5669SOL     OW21853   0.922   8.310   8.035  0.0462  0.3364  0.1112
 5669SOL    HW121854   0.973   8.234   8.063  0.2098  0.6535  0.6798
 5669SOL    HW221855   0.833   8.276   8.021  0.6126 -0.4521 -1.9201
 5670SOL     OW21856   1.003   9.085   5.234 -0.3081  0.3258  0.2676
 5670SOL    HW121857   1.069   9.152   5.218 -0.0129  0.5825  2.2751
 5670SOL    HW221858   1.053   9.006   5.255 -0.5376  0.6879  2.4717
 5671SOL     OW21859   3.163   8.586   6.902 -0.1968  0.7920 -0.1922
 5671SOL    HW121860   3.153   8.570   6.995  0.0742  0.6803 -0.1812
 5671SOL    HW221861   3.082   8.630   6.876  0.0738  1.5765  0.2634
 5672SOL     OW21862   1.385   7.986   5.655  0.3431  0.2364 -0.4050
 5672SOL    HW121863   1.341   7.901   5.664 -0.5717  0.4878 -2.0226
 5672SOL    HW221864   1.327   8.047   5.700  0.6777  0.0913  0.2199
 5673SOL     OW21865   3.212   6.852   3.624  0.0717  0.1822  0.5874
 5673SOL    HW121866   3.135   6.898   3.658  0.1586  1.1326 -0.4233
 5673SOL    HW221867   3.203   6.857   3.528  0.7263 -0.8406  0.4556
 5674SOL     OW21868   0.905   9.833   4.927 -0.8562  0.2787  0.5649
 5674SOL    HW121869   0.962   9.821   4.851 -0.4689 -3.1466  1.2608
 5674SOL    HW221870   0.929   9.919   4.961  1.3055  0.4952 -1.2698
 5675SOL     OW21871   2.051   8.111   7.764 -0.6247 -0.4730  0.4493
 5675SOL    HW121872   2.040   8.149   7.677 -0.1029 -2.8058 -0.7199
 5675SOL    HW221873   1.961   8.094   7.794 -0.7964 -0.1302  0.1397
 5676SOL     OW21874   2.948   9.364   5.794  0.1430 -0.1294  0.2311
 5676SOL    HW121875   2.931   9.424   5.867 -0.6091 -0.0668  0.0166
 5676SOL    HW221876   2.863   9.323   5.777  0.8055 -1.9486  0.9761
 5677SOL     OW21877   2.319   8.278   4.684 -0.0252  0.7073 -0.3027
 5677SOL    HW121878   2.386   8.322   4.737 -0.4540  2.2292 -0.9772
 5677SOL    HW221879   2.238   8.289   4.733 -0.2986  1.5150 -0.9080
 5678SOL     OW21880   1.925   9.802   5.059  0.1749  0.7953  0.0416
 5678SOL    HW121881   1.999   9.810   5.120  1.2437  1.4199 -1.2542
 5678SOL    HW221882   1.931   9.713   5.026 -1.2599 -0.0124  1.8318
 5679SOL     OW21883   2.581   8.957   6.220  0.4507 -0.2829 -0.3623
 5679SOL    HW121884   2.636   9.035   6.206  0.0950  0.3663  1.5007
 5679SOL    HW221885   2.632   8.903   6.281 -0.0318 -0.6941 -0.3226
 5680SOL     OW21886   1.587   0.481   5.420  0.5817  0.2245  0.7326
 5680SOL    HW121887   1.501   0.506   5.387  1.6341  0.5827 -2.0081
 5680SOL    HW221888   1.581   0.494   5.514 -2.3524  0.1970  0.6539
 5681SOL     OW21889   1.330   9.225   7.904 -0.0990 -0.0117  0.5463
 5681SOL    HW121890   1.333   9.145   7.958  2.3302  0.3031  1.0397
 5681SOL    HW221891   1.274   9.202   7.830 -0.3253 -1.8227  1.2089
 5682SOL     OW21892   8.886   9.061   7.508 -0.2015  0.0809  0.0567
 5682SOL    HW121893   8.829   9.038   7.435 -1.7365 -1.2124  1.5609
 5682SOL    HW221894   8.946   9.126   7.473 -1.1555 -0.1874 -2.2140
 5683SOL     OW21895   2.898   3.202   8.192  0.0232 -0.0390 -0.3725
 5683SOL    HW121896   2.938   3.157   8.267  0.5592  1.2002  0.1103
 5683SOL    HW221897   2.806   3.174   8.194  0.3495 -1.1181 -0.1077
 5684SOL     OW21898   1.130   0.686   9.101  0.6303 -0.2856 -0.1875
 5684SOL    HW121899   1.040   0.662   9.079  0.5774 -0.3918  0.1316
 5684SOL    HW221900   1.181   0.657   9.026  0.2156  1.1442 -1.0588
 5685SOL     OW21901   2.853   0.966   6.812 -0.2683 -0.2395  0.1291
 5685SOL    HW121902   2.780   0.913   6.783  0.2872 -0.8599 -0.1401
 5685SOL    HW221903   2.873   1.023   6.738 -0.7326  0.2187  0.3464
 5686SOL     OW21904   0.882   2.994   8.733  0.2627  0.6132  0.1959
 5686SOL    HW121905   0.923   2.984   8.647  1.1721  1.5918  0.5020
 5686SOL    HW221906   0.803   3.045   8.716  0.9740  1.7016  0.0657
 5687SOL     OW21907   9.457   9.310   7.657  0.1287  0.1900  0.3022
 5687SOL    HW121908   9.425   9.249   7.724  0.8712 -0.1389  0.3732
 5687SOL    HW221909   9.508   9.256   7.597  0.3993  0.6594  0.0961
 5688SOL     OW21910   8.759   1.192   9.481 -0.2779 -0.7723  0.3965
 5688SOL    HW121911   8.678   1.142   9.489 -0.3643 -0.6120  0.5405
 5688SOL    HW221912   8.737   1.279   9.515 -0.0888 -0.6801  0.2891
 5689SOL     OW21913   8.699   0.841   9.586  0.1189  0.2026 -0.1578
 5689SOL    HW121914   8.786   0.842   9.548  0.0560  1.3645 -0.3014
 5689SOL    HW221915   8.689   0.927   9.627 -0.2358 -0.5995  1.5421
 5690SOL     OW21916   0.059   9.103   6.330  0.2328 -0.4705 -0.1866
 5690SOL    HW121917   0.121   9.065   6.268  0.3091 -0.1997 -0.2774
 5690SOL    HW221918   0.107   9.175   6.370 -0.5432  0.7513 -1.3997
 5691SOL     OW21919   7.694   0.440   9.026 -0.3601 -0.1918  0.2848
 5691SOL    HW121920   7.720   0.396   8.945 -1.4897  0.4021 -0.4353
 5691SOL    HW221921   7.599   0.428   9.030 -0.3912  0.2714  1.2237
 5692SOL     OW21922   2.212   8.710   8.229 -0.7911  0.7620  0.4506
 5692SOL    HW121923   2.120   8.732   8.246 -0.9869 -1.1103  2.1067
 5692SOL    HW221924   2.261   8.777   8.275 -1.3411  0.9908  0.7167
 5693SOL     OW21925   1.435   0.089   7.915 -0.5647  0.1595  0.7615
 5693SOL    HW121926   1.483   0.035   7.978  0.8207 -0.0613 -0.4185
 5693SOL    HW221927   1.354   0.040   7.898 -0.5006 -0.2595  1.6202
 5694SOL     OW21928   7.347   0.244   0.438  0.2874  0.7010 -0.9705
 5694SOL    HW121929   7.380   0.321   0.485  2.4417  0.7387 -2.3945
 5694SOL    HW221930   7.306   0.280   0.360 -0.0854  0.4642 -0.8856
 5695SOL     OW21931   1.014   0.072   5.811  0.0213  0.2542  0.6705
 5695SOL    HW121932   0.991   0.090   5.902  0.5471  1.9685  0.5068
 5695SOL    HW221933   0.981   0.147   5.762  1.2222  0.1967 -0.2985
 5696SOL     OW21934   0.463   9.067   7.074  0.2902 -0.1463  0.0494
 5696SOL    HW121935   0.395   9.057   7.007 -1.1880  1.2025  1.2639
 5696SOL    HW221936   0.414   9.067   7.157  1.7313  1.2568  0.9403
 5697SOL     OW21937   9.827   9.652   7.947  0.6850  0.4072  0.0040
 5697SOL    HW121938   9.836   9.697   7.863  2.2523  0.3072  0.0754
 5697SOL    HW221939   9.745   9.684   7.984  0.6042  1.4051 -1.0019
 5698SOL     OW21940   9.261   0.963   1.378 -0.3421  0.7041  0.1236
 5698SOL    HW121941   9.352   0.941   1.399 -0.5381 -0.5364 -0.2197
 5698SOL    HW221942   9.210   0.921   1.448 -0.6799  1.0098  0.0654
 5699SOL     OW21943   2.770   9.122   7.191  0.5709 -0.0091 -0.2303
 5699SOL    HW121944   2.865   9.120   7.194  0.6588  2.4425  1.9040
 5699SOL    HW221945   2.742   9.061   7.259  0.7888  1.8110  1.5825
 5700SOL     OW21946   0.122   1.348   8.921 -0.1585  0.2718  0.2237
 5700SOL    HW121947   0.060   1.420   8.909  1.8527  2.3485  1.4364
 5700SOL    HW221948   0.129   1.339   9.016 -0.2417 -1.4657  0.0891
 5701SOL     OW21949   2.000   9.316   6.762  0.3065  0.1818  0.3490
 5701SOL    HW121950   2.007   9.380   6.833 -0.3350  0.0466  0.5352
 5701SOL    HW221951   1.907   9.300   6.752  0.3133  0.7776 -1.0501
 5702SOL     OW21952   9.760   9.618   9.243  0.7194 -0.7041 -0.3300
 5702SOL    HW121953   9.821   9.691   9.256  0.7768 -1.0445  1.6346
 5702SOL    HW221954   9.699   9.649   9.176  0.5608  1.3032  0.6650
 5703SOL     OW21955   0.151   5.869   9.361  0.0868  0.0640  0.9489
 5703SOL    HW121956   0.159   5.963   9.377 -0.7717  0.3444 -0.2113
 5703SOL    HW221957   0.078   5.841   9.417 -2.1741  0.8380 -1.4229
 5704SOL     OW21958   0.121   0.158   9.461 -0.1745 -0.4544  0.0179
 5704SOL    HW121959   0.089   0.245   9.484  1.5798  0.2033  0.1369
 5704SOL    HW221960   0.128   0.112   9.544  2.2393  0.5369  0.4593
 5705SOL     OW21961   9.801   0.182   7.642  0.1147  0.2096 -0.3210
 5705SOL    HW121962   9.777   0.194   7.550 -0.2971 -0.1137 -0.2558
 5705SOL    HW221963   9.723   0.206   7.691  0.8166  1.9431  0.0447
 5706SOL     OW21964   1.489   7.196   6.018 -0.8129  0.1739  0.6240
 5706SOL    HW121965   1.551   7.162   5.953 -0.7324 -2.8354  2.1396
 5706SOL    HW221966   1.514   7.288   6.028  0.4543  0.2175 -2.0821
 5707SOL     OW21967   2.087   9.474   6.289  0.0751 -0.3053  0.5014
 5707SOL    HW121968   2.150   9.428   6.233  0.8108  0.1586  0.9306
 5707SOL    HW221969   2.127   9.472   6.376 -0.6203 -0.2058  0.8314
 5708SOL     OW21970   0.626   2.235   0.954  0.1174  0.2931  0.0408
 5708SOL    HW121971   0.679   2.313   0.939 -0.1593  0.4225 -0.2652
 5708SOL    HW221972   0.672   2.188   1.025  0.5484  0.4850 -0.1088
 5709SOL     OW21973   3.181   9.170   7.244  0.5164 -0.0185 -0.7308
 5709SOL    HW121974   3.204   9.185   7.152  2.0774  2.2761 -0.0814
 5709SOL    HW221975   3.179   9.075   7.254  0.9836 -0.3109 -2.9788
 5710SOL     OW21976   9.833   1.054   9.176  0.2959 -0.3472 -0.0291
 5710SOL    HW121977   9.884   1.107   9.238  0.1770 -1.9260  1.4945
 5710SOL    HW221978   9.892   0.983   9.151 -0.1408 -0.5002 -0.6260
 5711SOL     OW21979   9.050   0.407   9.660  0.2063  0.5140  0.3550
 5711SOL    HW121980   9.094   0.490   9.645 -3.2824  2.4013 -0.3907
 5711SOL    HW221981   9.082   0.350   9.590  2.9313  1.0245  1.0877
 5712SOL     OW21982   8.570   0.567   0.022  0.1413 -0.2926  0.1531
 5712SOL    HW121983   8.653   0.600   0.054  0.4280 -0.6855 -0.1770
 5712SOL    HW221984   8.539   0.509   0.092 -0.6343  1.0621  0.9840
 5713SOL     OW21985   1.017   1.529   9.470  0.1922 -0.2635  0.6781
 5713SOL    HW121986   0.943   1.543   9.529 -0.4441 -0.3711 -0.0735
 5713SOL    HW221987   0.988   1.459   9.411  0.8511 -0.2384  0.3113
 5714SOL     OW21988   2.628   0.764   7.424  0.7867  0.2864 -0.2403
 5714SOL    HW121989   2.684   0.824   7.474  0.6987  1.6132 -1.6437
 5714SOL    HW221990   2.673   0.755   7.340  0.4869 -1.1872 -0.2554
 5715SOL     OW21991   9.189   8.941   7.661  0.9232  0.0953 -0.5075
 5715SOL    HW121992   9.202   8.982   7.747 -1.3636 -0.3291  0.1071
 5715SOL    HW221993   9.100   8.907   7.664  0.7659  0.0888 -3.0971
 5716SOL     OW21994   0.147   7.301   7.756 -0.3777 -0.0362 -0.0141
 5716SOL    HW121995   0.154   7.250   7.676  0.0806  0.0033 -0.0034
 5716SOL    HW221996   0.092   7.248   7.814 -3.0693  1.1672 -1.3073
 5717SOL     OW21997   1.104   7.935   2.357 -0.2913 -0.1751  0.4782
 5717SOL    HW121998   1.161   8.004   2.325 -0.4258  0.7581  2.1423
 5717SOL    HW221999   1.039   7.981   2.411 -2.8498 -1.1311 -1.5408
 5718SOL     OW22000   1.019   8.007   8.267 -0.1080  0.4584 -0.0459
 5718SOL    HW122001   0.976   8.080   8.312 -1.3469 -0.1222 -0.2446
 5718SOL    HW222002   1.053   7.952   8.337  0.0072  0.7483  0.1259
 5719SOL     OW22003   2.570   0.655   0.535 -0.3547 -0.2670 -0.3462
 5719SOL    HW122004   2.482   0.629   0.562 -0.5678  0.9805  0.2510
 5719SOL    HW222005   2.626   0.628   0.607 -0.2591 -0.8753 -0.6361
 5720SOL     OW22006   1.927   8.355   2.139 -0.2138 -0.4398  0.5530
 5720SOL    HW122007   1.909   8.292   2.208  0.1818  0.0695  1.1342
 5720SOL    HW222008   2.018   8.340   2.116 -0.4277 -0.8082 -0.0753
 5721SOL     OW22009   0.699   9.503   9.338 -0.5778  0.0395  0.1078
 5721SOL    HW122010   0.605   9.506   9.321 -0.8342  0.9745  1.5191
 5721SOL    HW222011   0.709   9.444   9.412 -0.3475  1.6910  1.4625
 5722SOL     OW22012   2.104   1.621   7.743  0.3435  0.2061 -0.2856
 5722SOL    HW122013   2.124   1.628   7.649  0.9197 -2.9759 -0.5382
 5722SOL    HW222014   2.011   1.646   7.749  0.2119  0.2096 -1.7615
 5723SOL     OW22015   9.578   8.550   7.708  0.1308 -0.1294 -0.5414
 5723SOL    HW122016   9.599   8.641   7.686  1.6673  0.0162  1.3193
 5723SOL    HW222017   9.653   8.500   7.677  0.4611 -0.4232  0.7018
 5724SOL     OW22018   8.638   8.944   9.835 -0.0254 -0.5989 -0.1471
 5724SOL    HW122019   8.648   9.027   9.881 -1.0484  0.5659 -1.8901
 5724SOL    HW222020   8.605   8.883   9.901 -0.0314  0.6013  0.9833
 5725SOL     OW22021   0.229   0.155   7.657  0.1046  0.0433  0.4551
 5725SOL    HW122022   0.207   0.109   7.576  0.0390 -0.3336  0.6848
 5725SOL    HW222023   0.157   0.217   7.670 -0.4085 -0.5997  0.7591
 5726SOL     OW22024   1.230   9.596   5.840 -0.1442  0.1293  0.4581
 5726SOL    HW122025   1.271   9.629   5.920  0.5701  0.3133  0.0281
 5726SOL    HW222026   1.257   9.659   5.772 -0.4639 -0.2086  0.0149
 5727SOL     OW22027   9.129   9.327   5.875 -0.1141 -0.3279 -0.2029
 5727SOL    HW122028   9.188   9.354   5.804  0.5274 -1.2929 -0.0644
 5727SOL    HW222029   9.121   9.404   5.931  1.4155 -0.2992  0.0289
 5728SOL     OW22030   0.599   7.226   0.341  0.7295  0.0401 -0.3070
 5728SOL    HW122031   0.629   7.144   0.381 -0.3237 -0.7553 -1.0886
 5728SOL    HW222032   0.513   7.204   0.304  0.7778  1.3019 -1.2103
 5729SOL     OW22033   0.226   0.516   8.466 -0.2732 -0.0923 -0.0353
 5729SOL    HW122034   0.242   0.549   8.554  0.4741  0.6402 -0.4237
 5729SOL    HW222035   0.226   0.594   8.411 -1.1769 -0.4967 -0.6289
 5730SOL     OW22036   1.605   8.528   8.261  0.3229 -0.0387 -0.4669
 5730SOL    HW122037   1.533   8.551   8.203 -0.4558 -1.1242  0.0244
 5730SOL    HW222038   1.563   8.514   8.346  0.7576 -2.7349 -0.6236
 5731SOL     OW22039   9.234   9.245   0.299  0.6733 -1.0333 -0.0348
 5731SOL    HW122040   9.140   9.259   0.291  0.9242  1.2717  0.2178
 5731SOL    HW222041   9.247   9.215   0.389  0.3240  0.9953  0.7537
 5732SOL     OW22042   9.478   8.924   0.423 -0.3076 -0.0805  0.3898
 5732SOL    HW122043   9.454   8.953   0.335 -0.0037  1.1783  0.6965
 5732SOL    HW222044   9.487   9.005   0.473  0.7044 -0.7168  1.2793
 5733SOL     OW22045   0.083   1.321   9.508 -0.7486  0.9336  0.4125
 5733SOL    HW122046   0.005   1.316   9.453 -0.5490  0.1139  0.1806
 5733SOL    HW222047   0.053   1.294   9.595 -0.8803  1.3556  0.4982
 5734SOL     OW22048   9.455   0.059   7.198 -0.3113 -0.1353 -0.5043
 5734SOL    HW122049   9.452   0.077   7.292  0.7012 -3.4699  0.3148
 5734SOL    HW222050   9.420  -0.030   7.189  1.7277 -0.8242 -2.9423
 5735SOL     OW22051   0.068   7.679   9.804 -0.3400 -0.2263 -0.0537
 5735SOL    HW122052   0.126   7.720   9.868  0.0651  0.4940 -0.8676
 5735SOL    HW222053  -0.018   7.678   9.847  0.0351 -0.2528  0.7109
 5736SOL     OW22054   9.265   8.634   9.347 -0.2522 -0.1319 -0.0959
 5736SOL    HW122055   9.222   8.668   9.426 -0.6209  1.0633 -0.7843
 5736SOL    HW222056   9.313   8.557   9.378 -0.4079  0.2876  1.2936
 5737SOL     OW22057   8.981   8.239   7.209  0.1586  0.4755 -0.1728
 5737SOL    HW122058   9.074   8.229   7.190 -0.1036 -3.2184 -0.1671
 5737SOL    HW222059   8.937   8.201   7.133 -1.1450 -2.4192  1.8589
 5738SOL     OW22060   0.328   8.338   8.288  0.3849  0.3148  0.3443
 5738SOL    HW122061   0.400   8.295   8.333  0.5663 -0.0379 -0.2662
 5738SOL    HW222062   0.320   8.290   8.205  0.0171  0.9045  0.0351
 5739SOL     OW22063   2.343   0.852   8.836  0.0951  0.2674 -0.1865
 5739SOL    HW122064   2.310   0.850   8.746 -0.6133  0.0216  0.0751
 5739SOL    HW222065   2.284   0.795   8.885  0.7744 -0.0005  0.3414
 5740SOL     OW22066   0.997   8.493   1.087  0.3217 -0.0054  0.0781
 5740SOL    HW122067   1.057   8.564   1.063 -0.8920  0.7325 -0.9001
 5740SOL    HW222068   0.965   8.460   1.003 -0.1719 -0.8034  0.5654
 5741SOL     OW22069   0.432   2.164   5.913  0.7024  0.7748  0.3417
 5741SOL    HW122070   0.517   2.162   5.957  0.0699 -0.0371  1.5937
 5741SOL    HW222071   0.410   2.257   5.909  1.9446  1.0455 -0.6299
 5742SOL     OW22072   6.671   0.749   8.471 -0.0493 -0.3664 -0.0194
 5742SOL    HW122073   6.668   0.790   8.558 -1.3838 -0.9160  0.2173
 5742SOL    HW222074   6.713   0.664   8.486  0.7181 -0.0170 -0.1240
 5743SOL     OW22075   1.195   0.424   8.576  0.0470 -0.2047  0.4277
 5743SOL    HW122076   1.190   0.379   8.660  1.5600  1.7762  1.6615
 5743SOL    HW222077   1.283   0.404   8.543  0.2957  0.8377  0.4221
 5744SOL     OW22078   2.275   8.203   9.569  0.2521  0.0237 -0.0797
 5744SOL    HW122079   2.241   8.116   9.550 -1.7052  0.3401  1.6506
 5744SOL    HW222080   2.363   8.204   9.529 -0.5336 -1.9244 -2.0580
 5745SOL     OW22081   1.026   9.060   9.839  0.9246 -0.9065  0.4721
 5745SOL    HW122082   1.081   9.028   9.767  0.5932 -1.5442  0.4963
 5745SOL    HW222083   0.994   8.981   9.882 -0.6010 -0.5695  0.0068
 5746SOL     OW22084   4.950   1.280   7.631  0.1621 -0.5166  0.0277
 5746SOL    HW122085   4.958   1.359   7.684  1.4533 -0.6138  0.0218
 5746SOL    HW222086   4.860   1.251   7.642 -0.3580  1.0225 -0.0607
 5747SOL     OW22087   1.443   0.606   8.588  0.7490 -0.2683 -0.5201
 5747SOL    HW122088   1.362   0.636   8.628  0.2712 -1.2744 -0.6879
 5747SOL    HW222089   1.415   0.565   8.506  1.4620 -0.3411 -0.7329
 5748SOL     OW22090   9.396   1.837   9.826 -0.0739  0.1362 -0.1689
 5748SOL    HW122091   9.308   1.852   9.792 -0.1640  2.7946  0.9722
 5748SOL    HW222092   9.447   1.911   9.794  1.5542 -0.9141 -0.1233
 5749SOL     OW22093   0.803   7.705   0.938  0.3798 -0.4885  0.5224
 5749SOL    HW122094   0.810   7.759   0.859 -1.7656 -1.4705 -0.4238
 5749SOL    HW222095   0.813   7.615   0.907 -1.7243 -0.9753  1.1170
 5750SOL     OW22096   8.596   0.004   9.204  0.0905 -0.0936  0.3766
 5750SOL    HW122097   8.519   0.037   9.248  0.2988  2.2958 -0.8946
 5750SOL    HW222098   8.669   0.023   9.264 -0.0810 -0.6927  0.7837
 5751SOL     OW22099   0.189   9.167   8.593 -0.1549  0.3120 -0.0939
 5751SOL    HW122100   0.268   9.116   8.575 -1.3262 -1.0235 -1.7984
 5751SOL    HW222101   0.154   9.130   8.674  0.4823  0.3433  0.2043
 5752SOL     OW22102   0.068   1.690   8.424 -0.4544  0.4052  0.2814
 5752SOL    HW122103   0.156   1.656   8.407 -1.0574 -2.1604  1.7517
 5752SOL    HW222104   0.083   1.764   8.484  0.7287  0.6533 -0.2768
 5753SOL     OW22105   0.761   8.976   7.391 -0.3816  0.2195 -0.0576
 5753SOL    HW122106   0.751   8.903   7.331 -1.1879 -0.4390  0.8406
 5753SOL    HW222107   0.707   9.046   7.354 -1.5234 -0.4506  0.2903
 5754SOL     OW22108   0.445   1.771   9.459  0.1217  0.5606 -0.2202
 5754SOL    HW122109   0.358   1.776   9.419 -0.6459 -0.6872  1.1493
 5754SOL    HW222110   0.494   1.712   9.402 -0.0027  1.0510 -0.8510
 5755SOL     OW22111   0.276   9.327   0.578 -0.5250 -0.6858  1.0855
 5755SOL    HW122112   0.201   9.316   0.519  0.5348 -0.6843 -0.3188
 5755SOL    HW222113   0.256   9.407   0.627 -2.3637 -1.7587  2.2292
 5756SOL     OW22114   4.440   7.500   2.829 -0.1965 -0.1821 -0.1307
 5756SOL    HW122115   4.348   7.498   2.801  0.1894  2.7521 -2.0726
 5756SOL    HW222116   4.488   7.459   2.757  0.2124  1.0787 -0.6136
 5757SOL     OW22117   1.940   0.001   9.518  0.9936 -0.0813  0.0727
 5757SOL    HW122118   1.955   0.072   9.456 -0.8777  0.7280  0.5042
 5757SOL    HW222119   2.025  -0.010   9.561  1.8461  0.5384 -1.3644
 5758SOL     OW22120   1.800   7.575   0.383  0.0127 -0.0203  0.0609
 5758SOL    HW122121   1.859   7.629   0.330 -1.5292  0.1728 -1.5362
 5758SOL    HW222122   1.722   7.629   0.394 -0.0402 -0.4076  1.8474
 5759SOL     OW22123   0.210   0.596   9.190 -0.7377  0.5857 -0.0879
 5759SOL    HW122124   0.173   0.508   9.192 -0.7578  0.4612 -2.6294
 5759SOL    HW222125   0.297   0.585   9.151 -0.9464  1.7413 -0.9149
 5760SOL     OW22126   1.345   8.090   9.039 -0.5445  0.6262 -0.0714
 5760SOL    HW122127   1.308   8.139   9.112  0.0890  2.7451 -1.1042
 5760SOL    HW222128   1.309   8.132   8.961 -0.9392 -1.3582 -1.0372
 5761SOL     OW22129   2.215   9.350   8.384  0.7927  0.0109  0.8096
 5761SOL    HW122130   2.189   9.360   8.475 -3.0988  1.8882 -0.2835
 5761SOL    HW222131   2.234   9.440   8.355 -3.4978  0.4498 -1.4143
 5762SOL     OW22132   8.252   8.988   9.435 -0.0337 -1.0879 -0.4903
 5762SOL    HW122133   8.327   9.027   9.480  1.3566  0.3791 -3.7042
 5762SOL    HW222134   8.262   8.894   9.449 -0.6016 -0.7395  3.3165
 5763SOL     OW22135   9.045   9.277   1.480  0.0846 -0.1941 -0.0871
 5763SOL    HW122136   9.029   9.184   1.463 -0.6577 -0.4157  1.5799
 5763SOL    HW222137   9.137   9.281   1.507  0.8973 -0.0135 -2.6549
 5764SOL     OW22138   0.717   7.403   2.124 -0.0242  0.3095  0.2184
 5764SOL    HW122139   0.734   7.326   2.180 -0.5771  0.7654  1.0348
 5764SOL    HW222140   0.744   7.477   2.178 -0.1074  0.7285 -0.3185
 5765SOL     OW22141   2.462   9.704   0.417 -0.1877 -0.1449 -0.0706
 5765SOL    HW122142   2.464   9.718   0.322 -1.2164  1.2204  0.0657
 5765SOL    HW222143   2.379   9.658   0.432  0.4137 -1.1954  0.0877
 5766SOL     OW22144   8.925   8.769   9.360 -0.3689  0.5483  0.6934
 5766SOL    HW122145   8.868   8.845   9.368 -1.3631  0.0635 -1.2597
 5766SOL    HW222146   8.998   8.799   9.306 -1.6372 -0.2491 -1.6146
 5767SOL     OW22147   2.999   9.124   9.250  0.4330 -0.1347  0.3703
 5767SOL    HW122148   3.057   9.115   9.174  0.9089 -1.7225  0.8962
 5767SOL    HW222149   2.946   9.045   9.250  0.9157 -0.4988  2.0854
 5768SOL     OW22150   2.123   0.613   8.459  0.1843 -0.9979  0.3984
 5768SOL    HW122151   2.082   0.657   8.384  0.6043 -0.2862  0.5709
 5768SOL    HW222152   2.120   0.679   8.529  3.0144 -0.3182 -0.0199
 5769SOL     OW22153   1.388   9.713   0.040  0.3027 -0.2867  0.4363
 5769SOL    HW122154   1.393   9.767   0.119  1.3650 -1.1413  0.9815
 5769SOL    HW222155   1.370   9.625   0.072  1.0199 -0.6881 -0.2398
 5770SOL     OW22156   9.385   7.019   1.187 -0.4120 -0.2892 -0.3785
 5770SOL    HW122157   9.382   6.948   1.252 -0.2363  0.9057  0.9802
 5770SOL    HW222158   9.312   6.999   1.128 -0.3067 -1.6493 -0.0942
 5771SOL     OW22159   1.558   0.966   7.139  0.2243 -0.0407 -0.0575
 5771SOL    HW122160   1.509   0.892   7.176  0.0035 -0.2095 -0.6775
 5771SOL    HW222161   1.510   1.043   7.167 -1.0514 -0.2424 -1.5587
 5772SOL     OW22162   2.737   0.304   9.343  0.2996  0.2428 -0.0627
 5772SOL    HW122163   2.793   0.381   9.350  1.3430 -0.4591 -0.5022
 5772SOL    HW222164   2.753   0.256   9.424  0.6508 -0.1660 -0.3725
 5773SOL     OW22165   1.464   1.585   9.600 -0.3216 -0.4003 -0.4625
 5773SOL    HW122166   1.411   1.646   9.549 -0.9884 -0.8643 -0.3323
 5773SOL    HW222167   1.455   1.501   9.555 -1.5834 -1.0058  0.8442
 5774SOL     OW22168   1.728   9.566   9.512  0.1733 -0.2834 -0.6837
 5774SOL    HW122169   1.675   9.525   9.581  0.1403  0.4174 -0.2727
 5774SOL    HW222170   1.726   9.504   9.440 -1.4151 -0.1861 -0.7701
 5775SOL     OW22171   9.423   7.645   1.100 -0.4897 -0.2388  0.2674
 5775SOL    HW122172   9.399   7.662   1.191 -1.8329  0.7026 -0.2308
 5775SOL    HW222173   9.507   7.599   1.106  0.5362  1.6610  1.9347
 5776SOL     OW22174   0.765   1.560   9.613  0.5180 -0.1964 -0.0407
 5776SOL    HW122175   0.751   1.476   9.656 -0.0283 -0.4614 -0.7155
 5776SOL    HW222176   0.692   1.615   9.644  0.7026 -0.0651  0.1634
 5777SOL     OW22177   8.405   8.277   0.553 -0.5835  0.4185 -0.1528
 5777SOL    HW122178   8.496   8.271   0.523 -0.7071  1.2396 -0.7311
 5777SOL    HW222179   8.356   8.220   0.494 -0.6259  0.9996 -0.6984
 5778SOL     OW22180   9.663   8.380   0.527 -0.0929  0.2175  0.8550
 5778SOL    HW122181   9.727   8.350   0.591  1.6555 -0.4652 -1.1025
 5778SOL    HW222182   9.637   8.467   0.557  0.6562 -0.0902  2.4591
 5779SOL     OW22183   8.085   0.402   0.224  0.0658 -0.2820 -0.3925
 5779SOL    HW122184   8.023   0.435   0.159  0.9676  0.5446 -0.8406
 5779SOL    HW222185   8.114   0.318   0.189  0.7570  0.2846 -1.2089
 5780SOL     OW22186   8.391   8.093   1.871  0.4736 -0.1844  0.5914
 5780SOL    HW122187   8.300   8.076   1.848  1.0050 -0.2362 -1.7643
 5780SOL    HW222188   8.391   8.104   1.966 -1.7355 -1.6351  0.8158
 5781SOL     OW22189   1.650   7.111   1.058  0.1928 -0.0946 -0.3298
 5781SOL    HW122190   1.572   7.102   1.112  1.2518  0.1574  1.3255
 5781SOL    HW222191   1.702   7.178   1.103  2.6373 -2.2300  0.2494
 5782SOL     OW22192   0.924   0.350   0.139 -0.1789  0.3948  0.0356
 5782SOL    HW122193   0.862   0.422   0.124  0.1492  0.9160  1.1086
 5782SOL    HW222194   0.873   0.284   0.186  0.1607  1.0106  1.3194
 5783SOL     OW22195   1.461   9.772   9.355 -0.0226 -0.7531  0.3863
 5783SOL    HW122196   1.551   9.776   9.323  0.0779  1.0080  0.7782
 5783SOL    HW222197   1.469   9.769   9.450 -0.3610  0.6505  0.4795
 5784SOL     OW22198   1.560   1.044   1.923 -0.0659 -0.3172  0.0327
 5784SOL    HW122199   1.530   1.028   1.834  0.4282 -1.1547  0.0043
 5784SOL    HW222200   1.637   1.100   1.913 -0.4387  0.1937 -0.0149
 5785SOL     OW22201   1.504   0.360   0.789 -0.6964  0.4569  0.1155
 5785SOL    HW122202   1.571   0.391   0.728 -0.7780 -0.1177 -0.2769
 5785SOL    HW222203   1.534   0.272   0.815  0.6998  1.6085  2.9233
 5786SOL     OW22204   3.716   8.549   1.479 -0.6087  0.4426  0.1845
 5786SOL    HW122205   3.648   8.604   1.440 -1.3819 -0.5923  0.0217
 5786SOL    HW222206   3.712   8.570   1.573  0.5713  2.1920 -0.0997
 5787SOL     OW22207   3.996   1.691   9.331  0.8643 -0.7247  0.3168
 5787SOL    HW122208   3.971   1.598   9.332  0.4867 -0.6258  0.3638
 5787SOL    HW222209   3.918   1.737   9.362  0.9256 -0.3626 -0.0559
 5788SOL     OW22210   3.989   2.632   9.395 -0.2129 -0.2935  0.4645
 5788SOL    HW122211   4.080   2.603   9.398 -0.3029 -0.6216  0.1665
 5788SOL    HW222212   3.945   2.581   9.463 -0.0926  0.1670  0.8906
 5789SOL     OW22213   1.775   2.111   1.459  0.2775 -0.0911 -0.0537
 5789SOL    HW122214   1.696   2.081   1.503 -0.2828 -0.1867 -1.0902
 5789SOL    HW222215   1.788   2.049   1.387  1.1894  0.0366 -0.0136
 5790SOL     OW22216   1.782   8.482   0.549  0.3390  0.0297 -0.3543
 5790SOL    HW122217   1.788   8.387   0.548 -0.2565 -0.0337 -1.9280
 5790SOL    HW222218   1.823   8.509   0.631 -2.1024 -1.7379  1.6253
 5791SOL     OW22219   1.976   2.390   4.615 -0.4254  0.1811  0.2907
 5791SOL    HW122220   1.892   2.391   4.661 -0.2174 -1.5197  0.7704
 5791SOL    HW222221   2.005   2.299   4.621  1.3432  0.6958 -0.0894
 5792SOL     OW22222   2.824   0.788   9.266 -0.1078  0.0569  0.0923
 5792SOL    HW122223   2.812   0.697   9.240 -0.7359  0.2053 -0.1371
 5792SOL    HW222224   2.774   0.796   9.347 -0.3199  0.2862 -0.0631
 5793SOL     OW22225   1.639   3.970   0.282  0.4940 -0.1548 -0.2816
 5793SOL    HW122226   1.731   3.996   0.286 -0.0148  1.5607  1.7774
 5793SOL    HW222227   1.632   3.895   0.341  0.5427 -0.2471 -0.3915
 5794SOL     OW22228   1.643   1.303   0.993 -0.6068 -0.4019  0.8188
 5794SOL    HW122229   1.557   1.306   0.951  0.0663  0.9096 -0.5589
 5794SOL    HW222230   1.641   1.375   1.056 -0.0025  0.6823 -0.3540
 5795SOL     OW22231   3.129   1.441   0.757  0.1062  0.3900  0.2419
 5795SOL    HW122232   3.150   1.357   0.798  0.0354  0.5433  0.6001
 5795SOL    HW222233   3.045   1.466   0.797 -1.1032 -0.5029 -1.5965
 5796SOL     OW22234   0.044   3.037   1.917 -0.3244 -0.1405 -0.3494
 5796SOL    HW122235   0.042   3.006   2.008 -0.4842  1.2271  0.1454
 5796SOL    HW222236  -0.037   3.003   1.878 -0.2844 -0.6918  0.0395
 5797SOL     OW22237   2.312   2.368   0.902  0.1350 -0.9931 -0.0319
 5797SOL    HW122238   2.358   2.320   0.832  0.1826 -0.6290 -0.2543
 5797SOL    HW222239   2.223   2.333   0.900 -0.4333  0.3995 -1.6321
 5798SOL     OW22240   2.144   0.742   9.824 -0.3525  0.1903 -0.4954
 5798SOL    HW122241   2.231   0.711   9.802 -0.6803  0.7028 -2.7027
 5798SOL    HW222242   2.120   0.691   9.902  1.0186 -1.5938 -1.1623
 5799SOL     OW22243   3.347   1.822   1.984  0.0998 -0.0477  0.2880
 5799SOL    HW122244   3.255   1.802   1.964 -0.8034  1.8449  2.1967
 5799SOL    HW222245   3.365   1.770   2.062  0.6942 -0.4608 -0.1196
 5800SOL     OW22246   2.129   2.750   2.416 -0.4656 -0.0455  0.0719
 5800SOL    HW122247   2.122   2.668   2.366  1.1732 -0.2271  0.0873
 5800SOL    HW222248   2.143   2.817   2.349  0.7539 -0.1551  0.1946
 5801SOL     OW22249   3.612   0.466   1.657 -0.2093  0.0430 -0.5823
 5801SOL    HW122250   3.663   0.388   1.638 -1.0726 -0.4091 -1.0975
 5801SOL    HW222251   3.537   0.462   1.596 -0.5095  1.0235 -0.3047
 5802SOL     OW22252   2.669   2.324   2.180  0.3388 -0.7173 -0.0045
 5802SOL    HW122253   2.598   2.332   2.243  1.1154 -1.5692  1.0257
 5802SOL    HW222254   2.632   2.273   2.108 -1.0397  1.6032 -1.0528
 5803SOL     OW22255   2.510   0.681   9.096 -0.2916  0.8143 -0.6727
 5803SOL    HW122256   2.468   0.608   9.141 -0.3407  1.6023  0.6084
 5803SOL    HW222257   2.507   0.657   9.004 -3.1974  0.6420 -0.6258
 5804SOL     OW22258   3.568   3.103   0.230  0.0061 -0.6035 -0.0010
 5804SOL    HW122259   3.649   3.153   0.240 -1.0166  1.2880 -0.7137
 5804SOL    HW222260   3.597   3.016   0.202  1.8314 -0.3841  1.0620
 5805SOL     OW22261   0.403   0.138   1.951  0.4760 -0.1929 -0.2517
 5805SOL    HW122262   0.482   0.105   1.909  0.2872 -0.3507 -0.4818
 5805SOL    HW222263   0.332   0.087   1.913  0.4918 -2.0284  1.9307
 5806SOL     OW22264   0.210   0.710   0.229  0.0629 -0.0070  0.0868
 5806SOL    HW122265   0.292   0.712   0.279  1.7666 -2.8525 -2.2178
 5806SOL    HW222266   0.215   0.628   0.179 -2.7693  1.2372 -2.5370
 5807SOL     OW22267   2.888   1.049   9.468 -0.1465  0.2891 -0.4161
 5807SOL    HW122268   2.963   1.082   9.519  0.5577  2.4018 -2.6160
 5807SOL    HW222269   2.923   0.974   9.420  0.2724  0.5795 -0.5772
 5808SOL     OW22270   2.742   7.974   0.550 -0.4887  0.4449 -0.0408
 5808SOL    HW122271   2.685   7.993   0.475  1.2128 -1.0806 -1.8546
 5808SOL    HW222272   2.732   7.880   0.565  0.2367  0.4782  0.7438
 5809SOL     OW22273   2.790   1.976   0.868 -0.3729  0.2070 -0.0788
 5809SOL    HW122274   2.864   1.987   0.809 -0.4305 -2.2860 -0.7023
 5809SOL    HW222275   2.830   1.963   0.954 -0.1398  0.2286 -0.1834
 5810SOL     OW22276   2.731   0.038   9.621 -0.0664 -0.7639  0.2128
 5810SOL    HW122277   2.672  -0.020   9.669 -1.3297  0.5933  0.3669
 5810SOL    HW222278   2.711   0.022   9.528 -1.0257 -0.0122  0.2692
 5811SOL     OW22279   2.102   1.679   0.647  0.4151 -0.4971  0.2622
 5811SOL    HW122280   2.156   1.619   0.697  0.2992 -0.3670  0.5465
 5811SOL    HW222281   2.012   1.649   0.662  0.4232 -0.8754 -0.4239
 5812SOL     OW22282   9.742   0.501   0.621 -0.1779  0.9039 -0.0184
 5812SOL    HW122283   9.709   0.538   0.539 -1.0522  1.3781  0.5334
 5812SOL    HW222284   9.721   0.567   0.687 -0.2508  0.1537  0.7224
 5813SOL     OW22285   3.408   0.893   1.465 -0.2133 -0.0553  0.2526
 5813SOL    HW122286   3.470   0.966   1.468  0.3164 -0.4685 -0.3050
 5813SOL    HW222287   3.347   0.910   1.536  0.6123  0.3102  0.8969
 5814SOL     OW22288   2.748   4.766   7.900 -0.5056 -0.2066  0.3485
 5814SOL    HW122289   2.753   4.671   7.907 -1.6534 -0.2952  0.0584
 5814SOL    HW222290   2.833   4.792   7.862 -0.2094 -1.1063  0.3797
 5815SOL     OW22291   2.533   9.226   1.210 -0.0237 -0.0762  0.5259
 5815SOL    HW122292   2.578   9.246   1.128 -0.2878  0.6424  0.5488
 5815SOL    HW222293   2.549   9.133   1.224 -0.6713 -0.4070 -0.7763
 5816SOL     OW22294   1.002   1.238   1.314 -0.0462  0.0829  1.4243
 5816SOL    HW122295   1.079   1.191   1.347 -0.3377 -1.7939 -0.3242
 5816SOL    HW222296   0.941   1.168   1.289 -0.5428  1.3552 -1.2853
 5817SOL     OW22297   3.112   0.302   1.333 -0.1413  0.2891  0.4364
 5817SOL    HW122298   3.018   0.308   1.317 -0.1625  0.8279  0.7397
 5817SOL    HW222299   3.146   0.388   1.309  0.5554 -0.4538 -1.4311
 5818SOL     OW22300   2.145   1.597   0.958  0.0231 -0.4377  0.3266
 5818SOL    HW122301   2.229   1.560   0.931 -0.1780  0.9726 -2.7664
 5818SOL    HW222302   2.081   1.528   0.940  0.1593 -0.2604 -0.9886
 5819SOL     OW22303   4.976   1.578   1.258  0.3153  0.7231  0.3206
 5819SOL    HW122304   5.014   1.490   1.263 -2.4512 -0.4827  2.1285
 5819SOL    HW222305   4.981   1.611   1.347 -0.0815  1.7983 -0.0465
 5820SOL     OW22306   0.835   1.441   3.541  0.2324 -0.2135 -1.1489
 5820SOL    HW122307   0.875   1.526   3.560  3.3034 -1.7919  0.1807
 5820SOL    HW222308   0.746   1.448   3.573  1.6064  1.2263  2.9084
 5821SOL     OW22309   2.996   0.404   9.297  0.1256 -0.1606 -0.2612
 5821SOL    HW122310   3.080   0.427   9.257  0.4097  2.1215  1.4353
 5821SOL    HW222311   2.931   0.454   9.248  0.2620  1.1858  0.8786
 5822SOL     OW22312   3.529   0.337   1.325 -0.0024 -0.7953 -0.4197
 5822SOL    HW122313   3.492   0.354   1.238 -0.1952 -2.0093 -0.5906
 5822SOL    HW222314   3.469   0.381   1.385 -0.4516 -0.8277 -0.8391
 5823SOL     OW22315   3.649   8.916   1.951  0.8712 -0.5917 -0.3672
 5823SOL    HW122316   3.618   8.989   1.897  0.6447 -1.2851 -1.1954
 5823SOL    HW222317   3.627   8.942   2.040  0.0994  0.0201 -0.7148
 5824SOL     OW22318   4.809   1.150   9.188 -0.4257  0.0609 -0.0022
 5824SOL    HW122319   4.870   1.150   9.114  0.1901  0.5145  0.4978
 5824SOL    HW222320   4.782   1.059   9.197  1.1187 -0.3650  0.5283
 5825SOL     OW22321   1.623   1.105   2.400  0.3445 -0.2291 -0.1964
 5825SOL    HW122322   1.597   1.039   2.463 -0.3022 -0.0917 -0.3134
 5825SOL    HW222323   1.712   1.080   2.375  1.7820  1.2990  2.8658
 5826SOL     OW22324   1.299   3.153   1.644  0.1055 -0.2342  0.3438
 5826SOL    HW122325   1.251   3.079   1.682 -2.5573  1.0047 -0.3742
 5826SOL    HW222326   1.295   3.139   1.549  0.3026  0.3918  0.2352
 5827SOL     OW22327   0.622   9.730   2.439  0.1110  0.4075 -0.2091
 5827SOL    HW122328   0.649   9.638   2.443  0.8386  0.5257 -1.6053
 5827SOL    HW222329   0.693   9.773   2.392  0.3371  1.9258  1.4251
 5828SOL     OW22330   2.876   1.078   1.879  0.3594  0.2062 -0.5943
 5828SOL    HW122331   2.859   1.094   1.972 -1.5090 -1.7160 -0.5365
 5828SOL    HW222332   2.962   1.035   1.878  0.9957  1.4165  0.0915
 5829SOL     OW22333   2.637   8.849   0.555 -0.0428  0.6004 -0.1645
 5829SOL    HW122334   2.580   8.874   0.627  0.3927  0.1459  0.3438
 5829SOL    HW222335   2.622   8.756   0.543 -0.3720  0.7367 -0.9014
 5830SOL     OW22336   3.398   0.303   0.078 -1.1088 -0.0177 -0.2177
 5830SOL    HW122337   3.425   0.391   0.051 -0.8152 -0.4073 -1.2477
 5830SOL    HW222338   3.456   0.244   0.030 -0.5381 -0.7638  1.3542
 5831SOL     OW22339   0.630   9.372   1.138 -0.2717 -0.5254 -0.6285
 5831SOL    HW122340   0.690   9.301   1.160 -0.7935 -1.0744 -0.9342
 5831SOL    HW222341   0.650   9.393   1.046 -1.3776 -1.5790 -1.1396
 5832SOL     OW22342   4.461   0.796   0.154  0.4334 -0.1450  0.2276
 5832SOL    HW122343   4.367   0.801   0.133  0.0941 -1.3037  1.3562
 5832SOL    HW222344   4.465   0.740   0.231  1.8876  1.5007  1.4385
 5833SOL     OW22345   2.511   2.808   2.166  0.0585  0.2024  0.0817
 5833SOL    HW122346   2.601   2.833   2.144 -0.5427  2.8998  0.3605
 5833SOL    HW222347   2.461   2.825   2.086  0.0498 -3.5489 -0.8910
 5834SOL     OW22348   2.280   1.678   9.065 -0.0066  0.6682 -0.2406
 5834SOL    HW122349   2.245   1.729   9.137  1.3041  0.7525  0.3594
 5834SOL    HW222350   2.207   1.669   9.004 -0.5701  2.3060  0.1509
 5835SOL     OW22351   3.100   2.883   2.737 -0.4035 -0.8629 -0.0802
 5835SOL    HW122352   3.135   2.851   2.820 -0.3800  1.4575  0.8682
 5835SOL    HW222353   3.174   2.924   2.694 -0.7276 -0.8397 -0.6183
 5836SOL     OW22354   1.197   0.270   8.820  0.0802  0.4152 -0.0325
 5836SOL    HW122355   1.259   0.260   8.891  1.0106 -1.0385 -1.0094
 5836SOL    HW222356   1.150   0.186   8.816 -0.8749  0.9403 -0.3026
 5837SOL     OW22357   3.582   9.747   3.152  0.3788 -0.1661  0.0932
 5837SOL    HW122358   3.519   9.790   3.210  1.0318 -0.7647  1.2819
 5837SOL    HW222359   3.538   9.666   3.125 -0.3008  0.5575 -1.0370
 5838SOL     OW22360   2.155   2.864   4.256 -0.5051  0.1805 -0.0077
 5838SOL    HW122361   2.221   2.824   4.199 -1.7413  0.3703 -1.6398
 5838SOL    HW222362   2.201   2.937   4.298  0.2234  0.6402 -1.5121
 5839SOL     OW22363   4.908   1.158   1.780 -0.2986 -0.3913  0.7072
 5839SOL    HW122364   4.819   1.127   1.796 -0.4066 -0.5026 -0.0814
 5839SOL    HW222365   4.900   1.222   1.709  0.1029  0.4502  1.4031
 5840SOL     OW22366   3.317   1.391   9.049 -0.0222 -0.3511 -1.0203
 5840SOL    HW122367   3.407   1.397   9.017  1.9528  1.6028  3.8421
 5840SOL    HW222368   3.306   1.299   9.072  1.2856 -0.4047 -0.4995
 5841SOL     OW22369   0.239   4.060   0.445 -0.1170  0.1414 -0.2219
 5841SOL    HW122370   0.311   4.103   0.492  0.5931 -1.0638 -0.1844
 5841SOL    HW222371   0.225   3.978   0.491 -0.7273 -0.1718 -0.9467
 5842SOL     OW22372   2.766   0.765   8.916 -0.9141  0.0402 -0.1481
 5842SOL    HW122373   2.793   0.675   8.935 -0.8005  0.3666  1.4306
 5842SOL    HW222374   2.696   0.756   8.851 -1.8574 -1.3102  0.9801
 5843SOL     OW22375   3.346   9.174   0.489  0.0233  0.4847 -0.3821
 5843SOL    HW122376   3.262   9.221   0.486  0.8857  2.0904 -0.8354
 5843SOL    HW222377   3.375   9.182   0.580 -1.0605 -1.5555  0.2047
 5844SOL     OW22378   4.329   3.164   0.346  0.3271 -0.8315 -0.1132
 5844SOL    HW122379   4.290   3.243   0.384  0.8600 -1.1430  1.1309
 5844SOL    HW222380   4.317   3.174   0.251  3.2500  2.3232 -0.3558
 5845SOL     OW22381   2.572   7.748   5.516  0.1631  0.0288  1.3004
 5845SOL    HW122382   2.542   7.713   5.600 -0.3797 -0.1034  1.0569
 5845SOL    HW222383   2.641   7.810   5.539  2.0485 -2.0709  1.6835
 5846SOL     OW22384   4.070   9.511   2.810 -0.0145  0.2432  0.1227
 5846SOL    HW122385   4.107   9.426   2.785 -0.7148  0.2090 -0.8742
 5846SOL    HW222386   4.133   9.575   2.779 -0.1683  0.1326 -0.4438
 5847SOL     OW22387   2.552   0.959   0.595  0.0606  0.7177 -0.1282
 5847SOL    HW122388   2.634   0.910   0.601 -0.3145  0.1063  0.0022
 5847SOL    HW222389   2.542   0.978   0.502  0.0988  0.3694 -0.2042
 5848SOL     OW22390   2.651   0.506   1.195 -0.6431  0.0992  0.1768
 5848SOL    HW122391   2.585   0.574   1.184  0.4757  1.1169 -0.5091
 5848SOL    HW222392   2.661   0.496   1.289  0.6006  2.3537  0.3308
 5849SOL     OW22393   1.905   2.754   9.664 -0.2341 -0.1591  0.0332
 5849SOL    HW122394   1.990   2.752   9.620  1.4184 -0.2813  2.9869
 5849SOL    HW222395   1.847   2.798   9.601  2.2920  1.1142 -1.5933
 5850SOL     OW22396   1.065   2.130   7.805 -0.0130  0.1477  0.2712
 5850SOL    HW122397   1.072   2.039   7.778  0.0980  0.3348 -0.3690
 5850SOL    HW222398   1.092   2.180   7.727 -0.1638  0.7231  0.5789
 5851SOL     OW22399   0.276   0.979   0.479  0.7504  0.5066 -0.0470
 5851SOL    HW122400   0.189   1.001   0.444  0.2415 -0.8850  0.2926
 5851SOL    HW222401   0.326   1.060   0.470 -0.1287  0.9178 -1.6372
 5852SOL     OW22402   2.476   0.162   1.743 -0.1183 -0.0156  0.1520
 5852SOL    HW122403   2.526   0.081   1.755  0.3142  0.3761  1.0900
 5852SOL    HW222404   2.534   0.218   1.691 -0.5794 -0.4350 -0.8463
 5853SOL     OW22405   1.056   9.472   1.326  0.3971  0.2820 -0.1532
 5853SOL    HW122406   1.055   9.547   1.386 -1.9392 -1.0542  1.6761
 5853SOL    HW222407   1.004   9.405   1.371  0.1866 -1.5262 -2.8594
 5854SOL     OW22408   2.417   0.417   9.116 -1.0068 -0.5605  0.0353
 5854SOL    HW122409   2.327   0.382   9.119 -0.9653 -0.9272 -1.9917
 5854SOL    HW222410   2.454   0.381   9.036 -0.2974  2.6184 -1.2069
 5855SOL     OW22411   3.636   1.625   3.293 -0.1998  0.1704 -0.3150
 5855SOL    HW122412   3.546   1.597   3.281  0.3930 -1.0819 -2.4177
 5855SOL    HW222413   3.660   1.666   3.210  1.6998 -1.3190 -0.5883
 5856SOL     OW22414   2.750   1.800   1.759  0.0512  0.1538  0.4416
 5856SOL    HW122415   2.808   1.755   1.820 -0.6197 -0.3326  0.7278
 5856SOL    HW222416   2.779   1.770   1.672 -2.1510 -3.1245  0.6861
 5857SOL     OW22417   3.920   0.360   9.730 -0.0667  0.6210  0.1823
 5857SOL    HW122418   3.970   0.288   9.692  1.2803  1.5367  0.1560
 5857SOL    HW222419   3.909   0.336   9.822 -0.9674 -0.3209 -0.1502
 5858SOL     OW22420   2.495   1.744   9.208  0.3347 -0.6075  0.3333
 5858SOL    HW122421   2.544   1.663   9.224 -0.8741 -1.4913 -0.2652
 5858SOL    HW222422   2.445   1.726   9.128  1.2011  1.2921 -0.7042
 5859SOL     OW22423   2.859   1.392   0.031  0.3130 -0.4234  0.0092
 5859SOL    HW122424   2.871   1.404   0.125  0.1604 -1.1012  0.1257
 5859SOL    HW222425   2.785   1.331   0.024  0.8536 -1.0394 -0.5181
 5860SOL     OW22426   2.425   2.697   0.039  0.1806  0.4759  0.6686
 5860SOL    HW122427   2.378   2.667   0.116 -0.4226  1.6688  0.7919
 5860SOL    HW222428   2.360   2.694  -0.032  0.4205  0.4168  0.4507
 5861SOL     OW22429   3.472   2.531   2.268 -0.5150 -0.1114  0.2401
 5861SOL    HW122430   3.387   2.504   2.232 -1.3633  1.2714  1.1295
 5861SOL    HW222431   3.536   2.501   2.203 -1.7139 -0.7658 -0.6755
 5862SOL     OW22432   0.473   0.790   0.566 -0.2602 -0.2371  0.1505
 5862SOL    HW122433   0.417   0.717   0.593  0.9841 -0.6831  1.6271
 5862SOL    HW222434   0.411   0.860   0.543 -1.4543 -0.6436  1.9516
 5863SOL     OW22435   2.348   1.500   0.711  0.9138 -0.6124 -0.2337
 5863SOL    HW122436   2.330   1.443   0.637 -1.2644 -0.1724 -0.1257
 5863SOL    HW222437   2.392   1.444   0.775 -3.4197 -3.0889  0.9561
 5864SOL     OW22438   2.333   8.390   9.300 -0.1070  0.4463  0.4782
 5864SOL    HW122439   2.262   8.338   9.262  0.7919 -1.0511  0.7433
 5864SOL    HW222440   2.320   8.478   9.265 -1.5771  0.0112 -0.1558
 5865SOL     OW22441   2.756   1.357   1.863  0.0202 -0.0039 -0.3686
 5865SOL    HW122442   2.771   1.297   1.935  1.1494  1.8470  1.0068
 5865SOL    HW222443   2.662   1.377   1.867  0.1526  0.4263  0.9121
 5866SOL     OW22444   3.538   2.102   8.208  0.6063  0.1533 -0.0866
 5866SOL    HW122445   3.527   2.183   8.256 -0.0053 -0.2818  0.5213
 5866SOL    HW222446   3.521   2.033   8.272 -0.9820 -0.4378 -1.0739
 5867SOL     OW22447   5.774   0.615   1.074 -0.2131 -0.2252 -0.2351
 5867SOL    HW122448   5.826   0.662   1.009  1.4515 -2.3596 -0.5825
 5867SOL    HW222449   5.696   0.587   1.026  1.0893 -1.9538 -1.5006
 5868SOL     OW22450   4.691   3.807   0.128 -0.4279 -0.3047 -0.0140
 5868SOL    HW122451   4.775   3.765   0.111 -0.6591 -0.7897  0.0275
 5868SOL    HW222452   4.641   3.793   0.048 -1.2462 -1.9262  0.7404
 5869SOL     OW22453   3.059   9.566   0.463  0.2571 -0.2280 -0.0102
 5869SOL    HW122454   3.127   9.598   0.404 -2.3372  1.1104 -2.5182
 5869SOL    HW222455   3.048   9.637   0.526  0.0129  0.3023 -0.6450
 5870SOL     OW22456   2.309   0.579   0.575  0.0381 -0.1381 -0.5136
 5870SOL    HW122457   2.290   0.610   0.486 -0.7253 -0.4878 -0.4866
 5870SOL    HW222458   2.299   0.484   0.570  1.1771 -0.2728 -0.3226
 5871SOL     OW22459   2.272   2.959   0.884 -0.2269  0.7424 -0.4246
 5871SOL    HW122460   2.241   2.925   0.801  0.5912  1.5177 -1.0740
 5871SOL    HW222461   2.207   3.026   0.908  0.2813  1.5254 -1.1766
 5872SOL     OW22462   3.478   8.562   1.930 -0.6836  0.3346  0.1851
 5872SOL    HW122463   3.549   8.508   1.894 -0.7297  0.6010 -0.3220
 5872SOL    HW222464   3.507   8.584   2.018 -0.3499  0.0565  0.1494
 5873SOL     OW22465   3.737   3.109   7.918 -0.8226  0.1909 -0.2589
 5873SOL    HW122466   3.661   3.058   7.894  0.6313 -1.5913 -1.3135
 5873SOL    HW222467   3.749   3.171   7.846 -0.4765 -0.4959 -0.8069
 5874SOL     OW22468   1.860   1.536   1.707  0.1128  0.2896 -0.0390
 5874SOL    HW122469   1.806   1.476   1.656  0.8457 -1.5480  1.1936
 5874SOL    HW222470   1.800   1.603   1.738 -1.5899 -1.7588  1.4274
 5875SOL     OW22471   2.269   9.855   1.797  0.3015  0.0420  0.3625
 5875SOL    HW122472   2.296   9.809   1.876 -0.8361 -1.3346 -0.0157
 5875SOL    HW222473   2.340   9.917   1.780  0.8613 -0.0630  2.0896
 5876SOL     OW22474   3.411   0.633   0.314 -0.6377 -0.1872  0.3498
 5876SOL    HW122475   3.462   0.713   0.306  0.7289 -1.1301 -0.8234
 5876SOL    HW222476   3.387   0.628   0.407 -0.8219  1.5884  0.4320
 5877SOL     OW22477   2.508   0.822   2.660  0.7663  0.7962  0.9857
 5877SOL    HW122478   2.518   0.892   2.596  0.6450 -0.3375 -0.3066
 5877SOL    HW222479   2.544   0.859   2.741  1.1878  2.1619  0.2079
 5878SOL     OW22480   3.016   1.293   2.712  0.7456 -0.0085 -0.2653
 5878SOL    HW122481   3.072   1.268   2.639 -0.8658 -1.8408 -0.9674
 5878SOL    HW222482   2.929   1.304   2.673  0.2760  1.1834  1.0308
 5879SOL     OW22483   5.015   9.036   0.831  0.2143 -0.5330 -0.0083
 5879SOL    HW122484   5.059   8.951   0.823 -1.0638 -1.5034  2.3599
 5879SOL    HW222485   5.002   9.048   0.925 -0.0002  2.1510 -0.2837
 5880SOL     OW22486   3.957   2.205   9.650  0.0288 -0.6977 -0.1438
 5880SOL    HW122487   3.937   2.270   9.718  0.9752 -0.3272 -0.2026
 5880SOL    HW222488   3.894   2.135   9.665  1.0070 -1.2309  1.9560
 5881SOL     OW22489   1.178   9.797   2.247 -0.2323 -0.2426  0.0219
 5881SOL    HW122490   1.229   9.872   2.280  0.8182 -0.7687 -0.3405
 5881SOL    HW222491   1.166   9.741   2.323 -0.6268  0.0836  0.1988
 5882SOL     OW22492   1.114   8.954   9.602  0.4273  0.0030 -0.1129
 5882SOL    HW122493   1.107   9.036   9.552  0.5731 -0.1307 -0.3542
 5882SOL    HW222494   1.089   8.886   9.540 -0.0502 -0.1060  0.1916
 5883SOL     OW22495   3.681   1.123   0.410  0.1447  0.2145 -0.5308
 5883SOL    HW122496   3.657   1.200   0.359 -0.0820 -0.5475 -1.6019
 5883SOL    HW222497   3.713   1.159   0.493  1.4747  1.5527 -1.5511
 5884SOL     OW22498   2.311   1.778   2.143  0.4612  0.4774 -0.2321
 5884SOL    HW122499   2.335   1.699   2.094  0.3240  0.8493 -0.9064
 5884SOL    HW222500   2.300   1.747   2.233  0.4244 -0.2708 -0.4823
 5885SOL     OW22501   2.076   9.098   1.257  0.1055  0.3582  0.1050
 5885SOL    HW122502   2.099   9.163   1.190  0.7356 -1.2461 -1.3114
 5885SOL    HW222503   2.148   9.035   1.255 -0.1948 -0.0843  1.8711
 5886SOL     OW22504   4.101   8.453   0.770 -0.2481  0.0262  0.8889
 5886SOL    HW122505   4.051   8.513   0.714  0.3919 -1.2900 -1.2262
 5886SOL    HW222506   4.106   8.497   0.855 -1.7207  1.8998  0.0683
 5887SOL     OW22507   2.468   2.300   2.377 -0.2194 -0.5484  0.0927
 5887SOL    HW122508   2.486   2.208   2.395  1.9740 -0.7297 -2.4346
 5887SOL    HW222509   2.451   2.338   2.464  0.6310 -2.9386  1.4059
 5888SOL     OW22510   2.309   1.634   2.700 -0.2264  0.4332  0.1157
 5888SOL    HW122511   2.253   1.683   2.639 -0.8353  0.6259  0.8129
 5888SOL    HW222512   2.269   1.547   2.703 -0.3417  0.4951  0.4163
 5889SOL     OW22513   4.107   9.126   2.936 -0.1255 -0.4432 -0.1185
 5889SOL    HW122514   4.056   9.082   3.005 -0.8367  0.2499 -0.1896
 5889SOL    HW222515   4.058   9.109   2.856 -0.7241  0.9474 -0.0625
 5890SOL     OW22516   3.898   1.250   8.871 -0.0830  0.6652  0.1044
 5890SOL    HW122517   3.899   1.165   8.914 -1.7033  1.5865  2.1358
 5890SOL    HW222518   3.925   1.232   8.781  0.7897 -1.7810  0.7795
 5891SOL     OW22519   2.375   0.890   1.566  0.2553 -0.3479  0.2158
 5891SOL    HW122520   2.378   0.885   1.470 -3.8123 -0.8594 -0.0673
 5891SOL    HW222521   2.320   0.815   1.592  1.5913 -0.4748  3.0309
 5892SOL     OW22522   3.275   0.670   9.434  0.4753  0.9883  0.2389
 5892SOL    HW122523   3.193   0.703   9.470 -0.6177 -1.0447 -0.2722
 5892SOL    HW222524   3.295   0.592   9.486  1.0688  0.3769 -0.8648
 5893SOL     OW22525   4.659   1.140   2.247  0.5726  0.0614 -0.1102
 5893SOL    HW122526   4.638   1.142   2.153 -1.3253  0.1156  0.2716
 5893SOL    HW222527   4.625   1.056   2.277 -0.1378  0.6573  0.7861
 5894SOL     OW22528   3.361   9.688   1.619  0.1217 -0.0594  0.4660
 5894SOL    HW122529   3.336   9.770   1.660  0.3851  0.4007 -0.2691
 5894SOL    HW222530   3.393   9.634   1.691  0.2750  0.6049  0.9068
 5895SOL     OW22531   3.100   2.496   3.942  0.1378 -0.1776 -0.2794
 5895SOL    HW122532   3.150   2.423   3.977 -2.2191 -1.5127  0.5131
 5895SOL    HW222533   3.102   2.562   4.010 -0.0896 -0.6786  0.2214
 5896SOL     OW22534   1.263   5.366   0.135  0.6220 -0.2152 -0.3136
 5896SOL    HW122535   1.271   5.460   0.151  0.5707 -0.1320 -0.7715
 5896SOL    HW222536   1.217   5.333   0.212 -1.7877  0.5480 -1.3078
 5897SOL     OW22537   3.391   2.204   7.995  0.5181  0.7029 -0.3431
 5897SOL    HW122538   3.408   2.177   7.905  0.3485  2.6265 -0.9955
 5897SOL    HW222539   3.449   2.149   8.048  2.4254  1.1962 -1.8208
 5898SOL     OW22540   3.782   0.356   9.347  0.2314  0.5322  0.1038
 5898SOL    HW122541   3.719   0.356   9.275 -0.1938  2.2530  0.4241
 5898SOL    HW222542   3.867   0.356   9.304 -0.0036 -0.3099 -0.3641
 5899SOL     OW22543   1.873   1.448   0.941  0.5783  0.1016 -0.0952
 5899SOL    HW122544   1.929   1.411   0.873  0.8401  0.4806 -0.0870
 5899SOL    HW222545   1.815   1.376   0.965  1.3264 -0.4293  0.1832
 5900SOL     OW22546   1.317   8.074   1.301  0.1705  0.1868 -0.5227
 5900SOL    HW122547   1.266   8.003   1.261  1.3851 -0.8040 -0.3920
 5900SOL    HW222548   1.337   8.133   1.229 -2.2222  1.3242 -0.3566
 5901SOL     OW22549   3.223   1.034   0.555 -0.5828  0.3167 -0.1419
 5901SOL    HW122550   3.255   0.945   0.538  1.1945  0.5982  1.3782
 5901SOL    HW222551   3.189   1.064   0.471  1.3825 -0.7894 -1.4085
 5902SOL     OW22552   3.413   9.222   3.389 -0.6468  0.1188  0.1963
 5902SOL    HW122553   3.318   9.235   3.396 -0.6353 -0.1720  0.8827
 5902SOL    HW222554   3.451   9.286   3.449 -0.4726 -0.8573  1.1493
 5903SOL     OW22555   3.379   3.192   8.604 -0.0877  0.0729 -0.1899
 5903SOL    HW122556   3.400   3.114   8.553  0.8781 -1.3609  2.2226
 5903SOL    HW222557   3.284   3.190   8.614 -0.0272 -1.1870  0.3576
 5904SOL     OW22558   1.845   2.561   0.009  0.2783 -0.1483  0.5004
 5904SOL    HW122559   1.929   2.579   0.051  0.0797  1.6161  0.2191
 5904SOL    HW222560   1.845   2.616  -0.069 -0.5847 -1.1579 -0.2342
 5905SOL     OW22561   2.426   1.324   9.506  0.1983 -0.3499 -0.3924
 5905SOL    HW122562   2.516   1.354   9.518  0.3379 -1.0263  0.3720
 5905SOL    HW222563   2.433   1.228   9.505 -0.4509 -0.3947 -0.8277
 5906SOL     OW22564   2.924   1.611   9.184 -0.1151 -0.0929 -0.2772
 5906SOL    HW122565   3.001   1.609   9.127 -0.8547  1.7302 -1.4273
 5906SOL    HW222566   2.959   1.608   9.273  1.2318  0.0984 -0.7808
 5907SOL     OW22567   3.027   0.958   2.376 -0.5429  1.1613 -0.3544
 5907SOL    HW122568   3.032   1.038   2.324  0.4725  1.4535  0.1643
 5907SOL    HW222569   2.995   0.892   2.315 -0.2275  1.6914 -1.1121
 5908SOL     OW22570   2.990   1.733   2.407 -0.5814 -0.2809  0.5280
 5908SOL    HW122571   2.950   1.775   2.330 -1.2624  0.4957  1.2930
 5908SOL    HW222572   3.084   1.740   2.392 -0.7014 -0.2955 -0.3114
 5909SOL     OW22573   1.801   1.154   1.960  0.1792 -0.0289 -0.0466
 5909SOL    HW122574   1.759   1.171   2.044 -1.8688 -3.4683 -0.2143
 5909SOL    HW222575   1.874   1.096   1.981 -0.4147 -1.0027 -0.6057
 5910SOL     OW22576   1.525   2.255   1.092  0.0173 -0.3529  0.0818
 5910SOL    HW122577   1.466   2.307   1.036 -0.3316  0.6499  1.3388
 5910SOL    HW222578   1.501   2.164   1.073 -1.6428  0.0168  0.2176
 5911SOL     OW22579   3.174   9.517   0.198  0.1424  0.5803  0.0124
 5911SOL    HW122580   3.224   9.506   0.117 -0.1005 -0.2958 -0.0251
 5911SOL    HW222581   3.235   9.488   0.267 -0.3843 -0.7455 -0.0560
 5912SOL     OW22582   3.304   0.566   9.695  0.5838 -0.0820 -0.4610
 5912SOL    HW122583   3.244   0.512   9.747  0.6782  2.9219  3.2176
 5912SOL    HW222584   3.377   0.584   9.754  1.9643  1.6553 -2.5547
 5913SOL     OW22585   3.321   1.514   9.315 -0.1264 -0.2664 -0.2703
 5913SOL    HW122586   3.341   1.460   9.239  2.5187  0.0836  0.0952
 5913SOL    HW222587   3.310   1.602   9.279  1.6629  0.0004 -0.2537
 5914SOL     OW22588   1.195   1.488   0.859 -0.0207  0.4685  0.3765
 5914SOL    HW122589   1.197   1.584   0.851  2.1058  0.4514  0.0650
 5914SOL    HW222590   1.103   1.467   0.875 -0.7297  2.4735 -0.6849
 5915SOL     OW22591   2.209   1.986   9.148  0.2572  0.2097  0.4605
 5915SOL    HW122592   2.163   1.906   9.175  1.9617 -1.3076 -0.8532
 5915SOL    HW222593   2.258   2.014   9.225 -0.0091 -0.2852  0.8120
 5916SOL     OW22594   1.029   1.505   3.841 -0.3271  0.0373  0.0821
 5916SOL    HW122595   0.952   1.561   3.846  0.1958  0.6552  1.4790
 5916SOL    HW222596   0.997   1.419   3.870 -0.0177  0.8329  3.0392
 5917SOL     OW22597   2.001   1.311   8.887  0.2726 -0.6552  0.4774
 5917SOL    HW122598   1.925   1.337   8.940  0.5467 -0.6071  0.8483
 5917SOL    HW222599   2.017   1.387   8.831  1.2637  0.1257  1.7791
 5918SOL     OW22600   2.199   9.624   9.769  0.4761  0.5799  0.3585
 5918SOL    HW122601   2.216   9.713   9.799  2.6584 -0.0315  1.1145
 5918SOL    HW222602   2.270   9.605   9.708  0.7008 -1.0467  1.0924
 5919SOL     OW22603   5.087   1.798   1.151 -0.0372  0.1785 -0.3843
 5919SOL    HW122604   5.027   1.841   1.091 -1.1395  0.0196  0.5685
 5919SOL    HW222605   5.042   1.718   1.176  1.7611 -1.3609 -1.7450
 5920SOL     OW22606   1.471   1.995   0.960  0.5709 -0.4095  0.1536
 5920SOL    HW122607   1.421   1.956   1.031  0.7620 -0.8455  0.0467
 5920SOL    HW222608   1.420   1.977   0.881  0.9709 -0.9858  0.0252
 5921SOL     OW22609   2.786   9.471   9.118  0.1932 -0.2947  0.3138
 5921SOL    HW122610   2.851   9.505   9.056 -1.2244  0.3282 -0.8918
 5921SOL    HW222611   2.821   9.492   9.204  1.9388 -0.6471 -0.2709
 5922SOL     OW22612   2.513   2.216   1.956  0.0688 -0.0761  0.3976
 5922SOL    HW122613   2.448   2.193   1.889 -0.5665  0.2618  0.8858
 5922SOL    HW222614   2.578   2.145   1.952 -0.9538 -1.0699  0.7063
 5923SOL     OW22615   1.069   0.623   8.320  0.0262  0.0568 -0.3312
 5923SOL    HW122616   0.990   0.580   8.288  0.7290 -0.9471 -0.7758
 5923SOL    HW222617   1.087   0.691   8.255 -0.6124  0.4700 -0.0846
 5924SOL     OW22618   3.031   0.566   0.388 -0.7146 -0.4273  0.2988
 5924SOL    HW122619   3.055   0.650   0.350 -2.6754 -0.0532 -0.2102
 5924SOL    HW222620   3.031   0.582   0.483 -2.1739  0.5045  0.1724
 5925SOL     OW22621   3.795   2.436   1.502  0.0651  0.4102 -0.7162
 5925SOL    HW122622   3.721   2.487   1.467 -0.8376 -0.5871 -0.3290
 5925SOL    HW222623   3.850   2.419   1.425  1.3348  3.3802 -0.6021
 5926SOL     OW22624   1.347   2.766   1.565 -0.1332  0.3471  0.4822
 5926SOL    HW122625   1.384   2.735   1.482  2.5732  0.3783  1.5890
 5926SOL    HW222626   1.254   2.748   1.557  0.2170 -0.8073 -2.0620
 5927SOL     OW22627   2.920   1.448   0.556  0.0049 -0.7031 -0.1652
 5927SOL    HW122628   2.873   1.375   0.596  1.4659 -1.1743  0.8012
 5927SOL    HW222629   2.983   1.475   0.623 -1.8923  2.9084  0.4014
 5928SOL     OW22630   1.224   2.738   0.479  0.5771 -0.6653  0.2904
 5928SOL    HW122631   1.185   2.695   0.555  2.1058 -2.6443  0.0451
 5928SOL    HW222632   1.164   2.718   0.407 -0.2058  0.1106  0.7117
 5929SOL     OW22633   4.290   1.022   3.015  0.4440 -0.4497 -0.1803
 5929SOL    HW122634   4.347   0.978   2.951  0.0676  1.5029 -1.9685
 5929SOL    HW222635   4.208   0.972   3.013  0.8625 -1.1467 -0.2732
 5930SOL     OW22636   2.429   9.340   9.252  0.5910 -0.4175  0.0160
 5930SOL    HW122637   2.468   9.305   9.173 -0.6470  2.0887 -1.8688
 5930SOL    HW222638   2.472   9.425   9.265 -1.3148  0.5983  0.1721
 5931SOL     OW22639   0.879   2.482   9.327  0.7077  0.2501 -0.0700
 5931SOL    HW122640   0.941   2.428   9.276  0.9785  0.3757  0.1208
 5931SOL    HW222641   0.914   2.571   9.320 -1.1627  0.9169 -2.5975
 5932SOL     OW22642   2.308   9.340   2.728  0.1504  0.3027 -0.0153
 5932SOL    HW122643   2.280   9.407   2.666 -0.9357 -0.2427 -0.1400
 5932SOL    HW222644   2.230   9.287   2.743  1.1361 -1.3054 -0.3969
 5933SOL     OW22645   3.801   0.083   9.292  0.1984  0.4086 -0.5089
 5933SOL    HW122646   3.809   0.121   9.205  0.6951  0.8867 -0.2622
 5933SOL    HW222647   3.745   0.145   9.340 -0.9404 -0.3794 -0.7785
 5934SOL     OW22648   4.028   1.181   0.308 -0.3876 -0.7310 -0.0125
 5934SOL    HW122649   3.952   1.123   0.319  0.9776 -2.3853  1.3856
 5934SOL    HW222650   4.025   1.239   0.383 -0.9712  0.1030 -0.6637
 5935SOL     OW22651   5.934   0.642   0.843 -0.8629  0.0437  0.9239
 5935SOL    HW122652   5.991   0.684   0.779  0.1689  1.2887  2.5736
 5935SOL    HW222653   5.943   0.549   0.827 -0.9793  0.3233 -0.9880
 5936SOL     OW22654   3.333   9.124   9.319 -0.3163 -0.0890  0.5068
 5936SOL    HW122655   3.301   9.187   9.384  0.1349  1.1791 -0.4674
 5936SOL    HW222656   3.254   9.096   9.273 -0.6210 -0.8810  1.4703
 5937SOL     OW22657   2.981   1.051   1.018 -0.2680 -0.1572 -0.6438
 5937SOL    HW122658   2.950   0.972   1.062  0.6194 -1.1728 -1.7738
 5937SOL    HW222659   2.956   1.122   1.077 -2.3629 -1.1228 -0.2704
 5938SOL     OW22660   4.098   3.231   2.186 -0.2730  0.6206 -0.4985
 5938SOL    HW122661   4.055   3.161   2.136  0.9281 -2.1080  1.9617
 5938SOL    HW222662   4.028   3.269   2.239 -0.3098 -2.0223  1.5561
 5939SOL     OW22663   4.364   8.971   2.898  0.4868 -0.3773  0.1871
 5939SOL    HW122664   4.287   9.029   2.898 -0.0457 -1.0691  0.8497
 5939SOL    HW222665   4.434   9.024   2.937  0.4088  0.3181 -0.5804
 5940SOL     OW22666   3.122   2.912   0.244 -0.0980  0.3301  0.1976
 5940SOL    HW122667   3.051   2.877   0.299  0.2301 -1.0437 -0.1990
 5940SOL    HW222668   3.099   2.884   0.155  0.9323 -0.1339  0.0658
 5941SOL     OW22669   2.837   1.339   3.036 -0.0430 -0.0815 -0.1509
 5941SOL    HW122670   2.894   1.369   2.965  0.4706 -1.7140 -0.4653
 5941SOL    HW222671   2.775   1.411   3.049  1.3906  1.2646 -0.5565
 5942SOL     OW22672   1.985   9.289   2.053 -0.4083  0.1455  1.3044
 5942SOL    HW122673   1.902   9.337   2.056 -1.3268 -1.2874  0.0506
 5942SOL    HW222674   2.050   9.356   2.030 -1.4756  1.0164  0.6988
 5943SOL     OW22675   2.871   9.438   8.480  0.3496 -0.1158 -0.0509
 5943SOL    HW122676   2.947   9.416   8.533  0.8001 -3.5720 -1.8490
 5943SOL    HW222677   2.905   9.444   8.391 -1.2512 -0.1542 -0.7004
 5944SOL     OW22678   2.533   2.437   9.294 -0.0006 -0.0822 -0.1978
 5944SOL    HW122679   2.496   2.435   9.206 -0.1381 -2.5480 -0.1538
 5944SOL    HW222680   2.456   2.441   9.352  0.0930  1.7692 -0.1210
 5945SOL     OW22681   2.539   1.298   0.789 -0.4567 -0.1819 -0.1126
 5945SOL    HW122682   2.615   1.254   0.751 -0.0677  1.1967 -0.9976
 5945SOL    HW222683   2.497   1.231   0.843  1.6112 -0.8798  0.7434
 5946SOL     OW22684   3.766   2.017   0.640 -0.3581  0.3914 -0.7478
 5946SOL    HW122685   3.857   1.999   0.616 -0.3824 -1.3965  0.2705
 5946SOL    HW222686   3.772   2.067   0.721 -0.2579 -0.0516 -0.4746
 5947SOL     OW22687   3.554   0.593   2.216  0.0734 -0.1100 -0.1579
 5947SOL    HW122688   3.624   0.638   2.169  0.1996  0.4797  0.5830
 5947SOL    HW222689   3.580   0.597   2.308 -0.0826 -1.3961 -0.0371
 5948SOL     OW22690   2.616   1.099   9.503  0.1908  0.0871  0.4352
 5948SOL    HW122691   2.709   1.108   9.525  0.2029  0.1892  0.3416
 5948SOL    HW222692   2.602   1.004   9.498  0.0606  0.0446  1.4162
 5949SOL     OW22693   4.222   9.469   1.067 -0.1468 -0.3355 -0.5836
 5949SOL    HW122694   4.135   9.507   1.073 -0.3312 -0.7441 -0.6587
 5949SOL    HW222695   4.281   9.539   1.094 -0.3922  0.3693 -1.7997
 5950SOL     OW22696   1.439   0.077   1.494 -0.0002 -0.5720  0.0509
 5950SOL    HW122697   1.388   0.028   1.429  1.0077 -0.6419 -0.7065
 5950SOL    HW222698   1.530   0.058   1.472  0.3603 -1.2594  2.0040
 5951SOL     OW22699   0.710   1.533   1.402 -0.2959  0.4399 -0.5181
 5951SOL    HW122700   0.786   1.567   1.449  0.1330 -2.2899  0.9846
 5951SOL    HW222701   0.741   1.524   1.312 -0.3668  3.4985 -0.9610
 5952SOL     OW22702   4.199   1.585   1.195  0.0758  0.2044 -0.5439
 5952SOL    HW122703   4.123   1.581   1.253  0.1923  1.5311 -0.2677
 5952SOL    HW222704   4.162   1.575   1.107 -0.1710 -1.1815 -0.3034
 5953SOL     OW22705   8.926   0.685   9.456 -0.6777 -0.0272 -0.4899
 5953SOL    HW122706   8.948   0.635   9.378  3.4944  1.5355 -0.5743
 5953SOL    HW222707   8.919   0.619   9.525  3.2860 -1.0831 -0.8486
 5954SOL     OW22708   6.253   9.765   9.510 -0.2461  0.2324 -0.2034
 5954SOL    HW122709   6.241   9.842   9.566  0.5943 -0.2863  0.7191
 5954SOL    HW222710   6.174   9.763   9.455 -0.5131  1.4520  0.1133
 5955SOL     OW22711   1.129   1.473   3.343  0.0770  0.6824 -0.2542
 5955SOL    HW122712   1.108   1.384   3.315  1.3160  0.1503  0.4289
 5955SOL    HW222713   1.140   1.466   3.438  0.1665  1.5653 -0.1966
 5956SOL     OW22714   2.007   1.953   9.853  0.3461 -0.2734 -0.3787
 5956SOL    HW122715   2.058   1.986   9.927  0.8589 -0.1047 -0.7975
 5956SOL    HW222716   2.044   1.998   9.777 -1.7957  1.4851 -0.4897
 5957SOL     OW22717   2.872   2.064   1.315  0.2648 -0.3238  0.2743
 5957SOL    HW122718   2.782   2.043   1.290 -0.4796  1.9918  0.7865
 5957SOL    HW222719   2.877   2.043   1.408 -0.8986  2.6809  1.1329
 5958SOL     OW22720   3.661   7.790   1.106  0.0054  0.4623 -0.2645
 5958SOL    HW122721   3.691   7.852   1.040  1.6553 -0.4029 -0.3925
 5958SOL    HW222722   3.577   7.759   1.073  0.2097  0.9905 -1.3336
 5959SOL     OW22723   1.634   8.581   2.916 -0.0704  0.0988  0.0159
 5959SOL    HW122724   1.551   8.543   2.945  1.1323 -0.2471  3.4253
 5959SOL    HW222725   1.626   8.674   2.936  0.6733 -0.0891  1.2328
 5960SOL     OW22726   1.879   8.723   3.044 -0.1875 -0.0859  0.5303
 5960SOL    HW122727   1.834   8.685   3.120  0.4295  0.7533  1.3349
 5960SOL    HW222728   1.861   8.662   2.973 -0.8596 -0.8449  1.3252
 5961SOL     OW22729   2.117   8.722   1.895  0.5933 -0.5076  0.6777
 5961SOL    HW122730   2.200   8.685   1.865  1.2637 -1.2509  3.1836
 5961SOL    HW222731   2.127   8.816   1.880  0.8218 -0.7953 -1.3322
 5962SOL     OW22732   3.572   2.086   2.288 -0.3697  0.0113  0.0423
 5962SOL    HW122733   3.567   2.133   2.371 -0.5483  1.7468 -0.9146
 5962SOL    HW222734   3.483   2.055   2.272  0.0998 -2.4419  1.6032
 5963SOL     OW22735   1.710   8.525   1.801  0.1281 -0.0307 -0.2436
 5963SOL    HW122736   1.797   8.558   1.780 -0.1302  0.4894 -0.5129
 5963SOL    HW222737   1.725   8.435   1.831  0.9861  0.6734  1.6346
 5964SOL     OW22738   2.645   3.149   2.352 -0.3347  0.2555 -0.0328
 5964SOL    HW122739   2.612   3.115   2.435 -0.8248  0.3378 -0.1904
 5964SOL    HW222740   2.677   3.072   2.305 -2.7492 -0.2622 -0.9989
 5965SOL     OW22741   3.371   1.129   2.383  0.2379 -0.0163 -0.4112
 5965SOL    HW122742   3.456   1.136   2.428  0.5114 -0.1321 -0.9088
 5965SOL    HW222743   3.385   1.065   2.314  0.0917  0.8896 -1.3005
 5966SOL     OW22744   0.267   0.921   2.634  0.1438  0.2509 -0.4631
 5966SOL    HW122745   0.305   0.847   2.682 -0.1212 -0.7391 -1.7258
 5966SOL    HW222746   0.338   0.985   2.629 -0.1068  0.8169  2.0491
 5967SOL     OW22747   2.278   1.921   3.101  0.1987  0.3207  0.2705
 5967SOL    HW122748   2.265   1.979   3.176 -0.5845  0.0323  0.3727
 5967SOL    HW222749   2.359   1.951   3.060 -0.2577  1.5654  0.2490
 5968SOL     OW22750   3.465   1.420   2.130 -0.1117  0.4955 -0.5673
 5968SOL    HW122751   3.516   1.345   2.160 -0.3149  0.2188 -0.9043
 5968SOL    HW222752   3.481   1.488   2.195  0.4920  0.3330 -0.5427
 5969SOL     OW22753   1.633   0.040   1.977  0.0743 -0.1062  0.2081
 5969SOL    HW122754   1.629   0.104   1.906  0.1785  0.7437  0.9560
 5969SOL    HW222755   1.541   0.019   1.995  0.0611 -0.8449 -0.6143
 5970SOL     OW22756   2.258   1.087   6.015  0.1854 -0.3053  0.6020
 5970SOL    HW122757   2.285   1.108   6.105  0.9722 -2.1043  0.8212
 5970SOL    HW222758   2.252   0.991   6.014 -1.7134 -0.2142 -0.7493
 5971SOL     OW22759   0.998   1.596   1.962 -0.7791 -0.0580  0.2744
 5971SOL    HW122760   1.080   1.631   1.927 -0.6701 -1.3564 -0.8834
 5971SOL    HW222761   0.930   1.651   1.923 -0.5137  0.2371  0.2243
 5972SOL     OW22762   2.482   8.743   5.773 -0.1917  0.3411  0.1157
 5972SOL    HW122763   2.569   8.703   5.766 -0.2036  0.4244 -0.5397
 5972SOL    HW222764   2.429   8.697   5.708 -1.2809 -1.3264  2.0557
 5973SOL     OW22765   2.420   0.891   2.000  0.2227  0.0975  0.5240
 5973SOL    HW122766   2.424   0.818   1.939 -0.3186  0.1205  0.4500
 5973SOL    HW222767   2.366   0.957   1.954 -0.7253 -0.1336  1.2767
 5974SOL     OW22768   1.048   0.054   0.900  0.5801  0.1445  0.5469
 5974SOL    HW122769   0.963   0.091   0.923 -0.6366 -0.7016 -2.1390
 5974SOL    HW222770   1.111   0.103   0.953 -1.3641  2.4863  0.8689
 5975SOL     OW22771   3.937   0.239   4.784  0.0222 -0.3850 -0.0089
 5975SOL    HW122772   3.928   0.294   4.862  0.0794 -1.9368  1.1446
 5975SOL    HW222773   4.028   0.251   4.757  0.1041 -0.1023  0.3811
 5976SOL     OW22774   3.999   1.266   2.130 -0.6812  0.0134  0.6342
 5976SOL    HW122775   4.038   1.235   2.212 -2.1036 -0.9153  0.9950
 5976SOL    HW222776   3.950   1.190   2.097 -0.2887  0.4390 -0.9793
 5977SOL     OW22777   2.612   9.826   2.956 -0.2182 -0.1165 -0.4991
 5977SOL    HW122778   2.589   9.733   2.959  1.6494 -0.6458 -0.8709
 5977SOL    HW222779   2.579   9.856   2.871 -2.7663  0.1746  0.5203
 5978SOL     OW22780   2.421   8.945   3.012 -0.2300 -0.0969 -0.4002
 5978SOL    HW122781   2.352   9.011   3.018  0.1890  0.2591  0.8244
 5978SOL    HW222782   2.461   8.959   2.926 -1.7552 -0.4030 -1.1916
 5979SOL     OW22783   2.001   1.419   1.984  0.3900 -0.0505  0.4978
 5979SOL    HW122784   2.086   1.377   1.975  0.5319  0.2323  0.5248
 5979SOL    HW222785   1.979   1.449   1.896  0.1541 -0.4417  0.4224
 5980SOL     OW22786   1.400   0.623   1.383  0.6963  0.1282  0.3181
 5980SOL    HW122787   1.390   0.530   1.362  0.9280  0.2802 -0.4997
 5980SOL    HW222788   1.314   0.651   1.413  0.0132  0.1776 -1.5716
 5981SOL     OW22789   4.257   4.208   2.284 -0.2346  0.7929  0.1497
 5981SOL    HW122790   4.241   4.212   2.379 -0.8881  0.4153  0.0612
 5981SOL    HW222791   4.324   4.140   2.274 -0.5349  0.4670  0.3055
 5982SOL     OW22792   3.799   9.239   1.143 -0.2662 -0.0846  1.1531
 5982SOL    HW122793   3.730   9.281   1.091 -0.4287  0.4267  1.7711
 5982SOL    HW222794   3.782   9.145   1.133  0.2381 -0.0478 -0.4364
 5983SOL     OW22795   1.649   9.548   3.327  0.0399 -0.3048 -0.1152
 5983SOL    HW122796   1.588   9.523   3.257  1.1163 -1.2727 -0.7395
 5983SOL    HW222797   1.595   9.549   3.406 -0.7973 -1.1163 -0.6518
 5984SOL     OW22798   2.717   1.313   1.442  0.2323 -0.2347 -0.0990
 5984SOL    HW122799   2.785   1.325   1.509 -0.7978 -1.1005  1.1514
 5984SOL    HW222800   2.643   1.277   1.490 -1.0238  0.4152 -1.4892
 5985SOL     OW22801   2.843   2.959   2.789 -0.1333 -0.1454 -0.2552
 5985SOL    HW122802   2.921   2.938   2.738 -0.7619  0.9019 -1.6913
 5985SOL    HW222803   2.823   2.877   2.835  1.1367 -0.7651 -0.7356
 5986SOL     OW22804   3.095   9.737   2.815  0.3903  0.2634  0.3403
 5986SOL    HW122805   3.164   9.676   2.843  0.9662  0.8202  0.1624
 5986SOL    HW222806   3.143   9.810   2.776 -0.3603 -0.0233 -1.1634
 5987SOL     OW22807   2.444   9.377   3.707 -0.3194 -0.4470  0.8183
 5987SOL    HW122808   2.482   9.457   3.671  0.6944 -0.9712  0.6836
 5987SOL    HW222809   2.368   9.360   3.652 -0.1248  0.0324  0.3908
 5988SOL     OW22810   3.308   3.487   5.556  0.5088  0.8717  0.1844
 5988SOL    HW122811   3.252   3.544   5.503 -0.7684  0.0198  0.5655
 5988SOL    HW222812   3.299   3.400   5.516 -0.1870  0.2921  1.5355
 5989SOL     OW22813   3.088   0.493   3.897  0.1569 -0.1849  1.1746
 5989SOL    HW122814   3.058   0.537   3.977  1.0182  0.1794  1.3143
 5989SOL    HW222815   3.157   0.550   3.863  0.8223 -1.0841  0.9780
 5990SOL     OW22816   3.051   1.335   3.219 -0.2347 -0.0421 -0.0546
 5990SOL    HW122817   3.009   1.358   3.136  1.1762 -0.9361 -1.0714
 5990SOL    HW222818   3.141   1.312   3.195 -0.7364 -4.0912  1.0668
 5991SOL     OW22819   3.383   4.299   5.578 -0.1081 -0.0930  0.0998
 5991SOL    HW122820   3.294   4.326   5.554 -0.0672  0.3367  0.4374
 5991SOL    HW222821   3.434   4.313   5.498 -0.0096  1.1840  0.3683
 5992SOL     OW22822   2.621   0.600   3.524  0.3607 -0.2787  0.2523
 5992SOL    HW122823   2.527   0.603   3.506  0.2366  0.0712  0.9146
 5992SOL    HW222824   2.636   0.671   3.586  0.8910 -0.9358  0.8982
 5993SOL     OW22825   1.822   9.673   2.069 -0.0427 -0.3229  0.0890
 5993SOL    HW122826   1.759   9.735   2.032 -0.2476 -0.1379  0.7450
 5993SOL    HW222827   1.776   9.588   2.067 -0.3353 -0.1805  0.6098
 5994SOL     OW22828   3.015   3.526   9.655 -0.1028  0.4223  0.3198
 5994SOL    HW122829   2.950   3.542   9.586  0.7212 -2.7699 -1.4125
 5994SOL    HW222830   2.972   3.464   9.714  1.2398 -1.9283 -0.9810
 5995SOL     OW22831   2.698   9.108   3.807  0.4928  0.3146  0.4324
 5995SOL    HW122832   2.611   9.132   3.838  0.9899  0.1438  2.0907
 5995SOL    HW222833   2.753   9.184   3.829  0.6689  0.6575 -1.1147
 5996SOL     OW22834   3.867   1.089   1.764 -0.0889  0.3769  0.0755
 5996SOL    HW122835   3.848   1.144   1.689 -0.2733  0.3050  0.0674
 5996SOL    HW222836   3.828   1.004   1.742 -1.6602  0.8165  0.9463
 5997SOL     OW22837   0.289   9.260   3.584 -0.3237  0.6626 -0.0610
 5997SOL    HW122838   0.226   9.307   3.639 -1.5732  0.0922 -0.9619
 5997SOL    HW222839   0.243   9.180   3.558  0.1624  0.9899 -2.0732
 5998SOL     OW22840   5.365   2.444   3.073 -0.4604  0.1526 -0.2058
 5998SOL    HW122841   5.441   2.408   3.029  0.3205 -0.8634  1.8493
 5998SOL    HW222842   5.332   2.373   3.128 -3.2983  0.3539 -1.4413
 5999SOL     OW22843   1.657   0.268   2.972 -0.2608  0.1283 -0.0944
 5999SOL    HW122844   1.596   0.229   2.910  0.8911 -0.7253 -0.7248
 5999SOL    HW222845   1.715   0.322   2.918 -1.3422  2.1785  0.6719
 6000SOL     OW22846   1.530   2.828   1.885  0.1233  0.2332 -0.2171
 6000SOL    HW122847   1.567   2.894   1.944  1.0670  1.0490 -1.6486
 6000SOL    HW222848   1.534   2.747   1.935  3.2575  0.3939  0.0461
 6001SOL     OW22849   0.779   1.115   0.962 -0.3607 -0.0421 -0.1387
 6001SOL    HW122850   0.720   1.190   0.973  0.4464  0.8940 -1.7164
 6001SOL    HW222851   0.722   1.039   0.959 -1.5597  0.8493 -1.8300
 6002SOL     OW22852   1.397   9.842   4.937 -0.2617  0.2704  0.3322
 6002SOL    HW122853   1.337   9.914   4.957  0.8432  1.1982  0.4248
 6002SOL    HW222854   1.472   9.857   4.994  0.6452 -0.0978 -0.7300
 6003SOL     OW22855   1.316   9.852   2.622  0.1274  0.2622  0.3114
 6003SOL    HW122856   1.307   9.895   2.536  0.5283 -0.4667 -0.1044
 6003SOL    HW222857   1.266   9.771   2.613  0.4211  0.0425  0.6688
 6004SOL     OW22858   0.546   6.504   4.128 -0.6244 -0.0291 -0.6217
 6004SOL    HW122859   0.636   6.506   4.160 -1.6081 -0.4770  2.5232
 6004SOL    HW222860   0.546   6.563   4.053  2.0864  0.6853 -0.1701
 6005SOL     OW22861   2.506   4.019   0.408 -0.5519 -0.2498 -0.3915
 6005SOL    HW122862   2.466   4.072   0.339 -0.1060 -1.0976 -1.3299
 6005SOL    HW222863   2.433   3.971   0.447 -0.7681  0.0111 -0.4723
 6006SOL     OW22864   2.974   2.352   2.945 -0.6863 -0.6216 -0.3809
 6006SOL    HW122865   3.023   2.362   2.863 -2.0806 -0.9025 -1.2842
 6006SOL    HW222866   3.017   2.280   2.990  1.0073  0.4803 -0.1587
 6007SOL     OW22867   4.928   2.279   1.784  0.0067  0.2947  0.1328
 6007SOL    HW122868   5.024   2.283   1.781  0.1064 -1.7034 -2.0470
 6007SOL    HW222869   4.903   2.233   1.704 -2.7598  0.2121  0.9396
 6008SOL     OW22870   4.263   3.344   3.355  0.7995  0.3376 -0.2910
 6008SOL    HW122871   4.218   3.263   3.380  0.9140 -0.0678 -1.3379
 6008SOL    HW222872   4.353   3.332   3.387  1.0698 -0.3786 -1.2675
 6009SOL     OW22873   2.526   1.218   1.986 -0.0228  0.1411  0.3009
 6009SOL    HW122874   2.466   1.255   1.921 -0.7138 -0.4125  0.6028
 6009SOL    HW222875   2.533   1.126   1.962  0.8858  0.2405  0.1484
 6010SOL     OW22876   1.630   8.536   1.501 -0.4789 -0.0637  0.2095
 6010SOL    HW122877   1.622   8.629   1.479  0.8675  0.2704  1.0065
 6010SOL    HW222878   1.706   8.506   1.450 -0.7655 -0.6742  0.1326
 6011SOL     OW22879   2.609   1.073   1.757 -0.8312 -0.3789 -0.1369
 6011SOL    HW122880   2.576   1.145   1.704  0.0648 -0.1574 -0.4121
 6011SOL    HW222881   2.699   1.098   1.779  0.4565 -2.5101 -2.4120
 6012SOL     OW22882   2.640   0.333   2.596 -0.0798  0.2034 -0.1305
 6012SOL    HW122883   2.716   0.355   2.542  0.4351  0.8529  0.8334
 6012SOL    HW222884   2.666   0.253   2.642 -0.0533  0.3074  0.0379
 6013SOL     OW22885   3.468   1.291   3.912  0.1787 -0.9617  0.2308
 6013SOL    HW122886   3.540   1.332   3.961 -0.6211 -0.5372  1.0790
 6013SOL    HW222887   3.389   1.332   3.947 -0.4438 -0.7141 -1.3464
 6014SOL     OW22888   5.594   1.228   0.509  0.5001  0.0853  0.3879
 6014SOL    HW122889   5.518   1.202   0.457  0.3101  1.7866 -0.2362
 6014SOL    HW222890   5.657   1.262   0.446  0.7040  1.1691  1.1414
 6015SOL     OW22891   9.136   0.706   1.099  0.0170  0.2568 -0.3643
 6015SOL    HW122892   9.184   0.767   1.044  1.2509 -1.5603 -1.3914
 6015SOL    HW222893   9.163   0.727   1.188  0.3901  1.2173 -0.6958
 6016SOL     OW22894   3.100   0.712   4.067 -0.0989  0.5044 -0.2225
 6016SOL    HW122895   3.103   0.789   4.010 -2.6954  1.7075  1.1059
 6016SOL    HW222896   3.114   0.746   4.155 -0.2836 -0.6992  0.2967
 6017SOL     OW22897   2.170   9.743   3.672 -0.0395  0.1962  0.0469
 6017SOL    HW122898   2.222   9.710   3.599  0.2729 -0.5982  0.6187
 6017SOL    HW222899   2.181   9.838   3.668  0.1535  0.1458 -0.7976
 6018SOL     OW22900   2.949   2.621   4.685  0.6447 -0.2351  0.6816
 6018SOL    HW122901   2.975   2.538   4.726  3.9113  1.0240  1.4823
 6018SOL    HW222902   3.000   2.625   4.604 -2.4431 -0.6726 -1.4427
 6019SOL     OW22903   2.071   0.015   1.212  0.2220  0.3258 -0.6954
 6019SOL    HW122904   1.979   0.018   1.237 -0.0058  1.2300 -1.5850
 6019SOL    HW222905   2.093  -0.078   1.209 -0.5500  0.1189 -0.1010
 6020SOL     OW22906   5.277   7.779   4.527  0.4944 -0.2547 -0.3643
 6020SOL    HW122907   5.307   7.777   4.618  0.1346  2.6308 -0.0775
 6020SOL    HW222908   5.189   7.743   4.530  1.2116 -2.0685  0.0305
 6021SOL     OW22909   1.600   2.111   4.257 -0.2684  0.0128 -0.2479
 6021SOL    HW122910   1.584   2.104   4.351  0.5462 -1.3973 -0.1800
 6021SOL    HW222911   1.542   2.046   4.217 -1.4751  1.4202 -0.8536
 6022SOL     OW22912   1.689   9.430   2.074 -0.7387 -0.5550  0.6201
 6022SOL    HW122913   1.620   9.368   2.051 -1.1709  0.3881 -0.7894
 6022SOL    HW222914   1.667   9.459   2.162 -3.1843  0.9752 -0.3642
 6023SOL     OW22915   2.860   1.964   4.961  0.0084 -0.2232  0.2689
 6023SOL    HW122916   2.779   1.971   5.012  0.1473 -2.3193  0.8831
 6023SOL    HW222917   2.917   1.909   5.015  1.4853  0.4206 -0.5918
 6024SOL     OW22918   3.766   0.996   3.256 -0.2098 -0.0612 -0.2394
 6024SOL    HW122919   3.689   0.948   3.287  1.2814 -2.2236  0.3740
 6024SOL    HW222920   3.743   1.024   3.168 -2.9145  2.3430  1.0485
 6025SOL     OW22921   0.754   8.235   3.245 -0.2015  0.4277 -0.1646
 6025SOL    HW122922   0.772   8.184   3.166  2.6490  2.6903 -1.1568
 6025SOL    HW222923   0.751   8.170   3.315 -0.8734 -1.4523 -1.8347
 6026SOL     OW22924   1.955   8.686   1.254  0.6423  0.5039 -0.8510
 6026SOL    HW122925   1.955   8.618   1.321  1.7867  0.3796 -0.9648
 6026SOL    HW222926   1.944   8.768   1.303 -1.6982  0.2244 -0.7812
 6027SOL     OW22927   3.995   9.097   0.899  0.2759 -0.3071 -0.1574
 6027SOL    HW122928   3.939   9.066   0.970  0.6764  2.7008  1.6716
 6027SOL    HW222929   3.934   9.134   0.835 -0.0591 -2.6037 -1.2582
 6028SOL     OW22930   3.372   0.473   1.527  0.1566  0.7517  0.2475
 6028SOL    HW122931   3.303   0.538   1.535  1.4532  2.0455  1.6571
 6028SOL    HW222932   3.327   0.389   1.540 -1.0377  1.6128  2.2065
 6029SOL     OW22933   0.164   2.240   2.732  0.4557  0.4450  0.4516
 6029SOL    HW122934   0.212   2.262   2.812 -1.3784 -0.9974  2.0693
 6029SOL    HW222935   0.116   2.160   2.755  0.5865 -0.5690 -2.4329
 6030SOL     OW22936   1.072   0.130   2.742 -0.4303  0.0974 -0.2868
 6030SOL    HW122937   1.118   0.088   2.815 -2.6903 -1.7941  0.1718
 6030SOL    HW222938   1.133   0.122   2.669  0.7340 -0.6105  0.7101
 6031SOL     OW22939   4.316   1.482   1.961  0.4760  0.4064  0.1855
 6031SOL    HW122940   4.393   1.477   1.904  0.3017  1.8725 -0.2103
 6031SOL    HW222941   4.305   1.392   1.993  1.9576  0.0283 -0.2535
 6032SOL     OW22942   4.745   2.085   1.190  0.2262 -0.2101  0.1039
 6032SOL    HW122943   4.787   2.018   1.137 -0.6957 -0.5513 -0.2189
 6032SOL    HW222944   4.713   2.038   1.267  0.8971  0.1431  0.6057
 6033SOL     OW22945   1.594   2.268   4.896 -0.2634 -0.0177 -0.0416
 6033SOL    HW122946   1.661   2.321   4.853  0.1130 -0.0546  0.4846
 6033SOL    HW222947   1.512   2.293   4.854  0.1382 -0.3234 -1.0277
 6034SOL     OW22948   1.432   1.300   3.380  0.3499  0.1535 -0.4714
 6034SOL    HW122949   1.444   1.395   3.388  0.4805  0.1559 -0.6925
 6034SOL    HW222950   1.371   1.278   3.450 -0.7332  0.5959 -1.2431
 6035SOL     OW22951   0.492   1.116   2.657  0.5206  0.2418 -0.2213
 6035SOL    HW122952   0.553   1.074   2.597 -0.5821  0.2297 -1.3788
 6035SOL    HW222953   0.547   1.168   2.716  1.5463  2.1281 -2.6706
 6036SOL     OW22954   0.500   1.046   1.408  0.5744 -0.2704  0.0995
 6036SOL    HW122955   0.486   1.141   1.415  2.5629  0.1799 -1.1719
 6036SOL    HW222956   0.420   1.014   1.365  0.2835  0.9885 -0.3757
 6037SOL     OW22957   3.804   3.178   3.281 -0.0425 -0.1806 -0.0134
 6037SOL    HW122958   3.768   3.139   3.360 -0.1917  1.5651  0.8332
 6037SOL    HW222959   3.732   3.229   3.244  0.0157 -1.0054 -1.3121
 6038SOL     OW22960   1.867   0.345   2.783 -0.1449  0.0855 -0.1272
 6038SOL    HW122961   1.919   0.314   2.709 -0.2621  2.7902 -1.4925
 6038SOL    HW222962   1.778   0.351   2.750 -0.8964 -1.9045  1.3531
 6039SOL     OW22963   2.531   0.583   2.203 -0.4266  0.2191 -0.1008
 6039SOL    HW122964   2.590   0.627   2.141 -2.4795  1.8318 -0.9934
 6039SOL    HW222965   2.590   0.532   2.259  1.9815  2.9222  0.0506
 6040SOL     OW22966   1.248   1.510   3.080 -0.3577 -0.0860  0.2733
 6040SOL    HW122967   1.210   1.484   3.164  0.0126  0.7130  0.6861
 6040SOL    HW222968   1.251   1.605   3.082 -0.5534 -0.0361 -0.7429
 6041SOL     OW22969   5.526   7.306   3.837  0.0624 -0.7253 -0.4060
 6041SOL    HW122970   5.589   7.346   3.777  1.0292 -3.0341 -1.0360
 6041SOL    HW222971   5.489   7.233   3.787 -1.8832 -0.4581  0.5627
 6042SOL     OW22972   0.982   8.609   1.403 -0.0143 -0.6542 -0.9136
 6042SOL    HW122973   0.905   8.608   1.460 -1.0592 -1.2824 -2.3010
 6042SOL    HW222974   1.046   8.554   1.448 -0.3142 -0.0504  0.2931
 6043SOL     OW22975   3.436   6.367   5.566 -0.2123 -0.0300 -0.1187
 6043SOL    HW122976   3.374   6.340   5.634  1.1095 -2.1620  0.3329
 6043SOL    HW222977   3.398   6.335   5.484  0.5313 -1.9066  0.2271
 6044SOL     OW22978   4.806   4.998   3.717 -0.2448 -0.2709  0.5165
 6044SOL    HW122979   4.882   4.984   3.661 -0.0489  0.4656  0.5980
 6044SOL    HW222980   4.842   5.023   3.802 -0.5777 -0.1060  0.6110
 6045SOL     OW22981   4.784   2.226   2.852  0.1484 -0.3358  0.0488
 6045SOL    HW122982   4.820   2.137   2.851 -0.7832 -0.7455  0.8584
 6045SOL    HW222983   4.700   2.218   2.805 -0.6208 -0.2183  1.3532
 6046SOL     OW22984   0.524   9.406   2.138 -0.0327 -0.1300 -0.7038
 6046SOL    HW122985   0.489   9.490   2.167 -0.6415 -0.5655 -0.1509
 6046SOL    HW222986   0.603   9.429   2.089  2.9674  0.5378  3.8820
 6047SOL     OW22987   3.398   2.726   4.751 -0.2511  0.4311 -0.0530
 6047SOL    HW122988   3.319   2.702   4.798  0.0967  1.2989  0.9994
 6047SOL    HW222989   3.465   2.668   4.786  0.2001  1.6596  1.2004
 6048SOL     OW22990   6.856   2.512   3.956 -0.1060 -0.0480 -0.0500
 6048SOL    HW122991   6.828   2.551   4.039 -2.5974 -0.1754 -0.7424
 6048SOL    HW222992   6.880   2.422   3.978  1.3854  0.5200  0.8315
 6049SOL     OW22993   1.363   2.282   4.795 -0.2134 -0.2546  0.1752
 6049SOL    HW122994   1.316   2.362   4.772  0.0422  0.0803  0.8223
 6049SOL    HW222995   1.294   2.215   4.800 -0.1808 -0.6812 -2.8715
 6050SOL     OW22996   0.615   0.725   1.708 -0.2023  0.3830 -0.5420
 6050SOL    HW122997   0.651   0.643   1.675 -0.0897  0.4140 -0.4966
 6050SOL    HW222998   0.527   0.703   1.736  0.6744 -0.3042  1.8874
 6051SOL     OW22999   8.013   0.134   2.453 -0.1191  0.1674  0.4878
 6051SOL    HW123000   8.072   0.088   2.513 -1.0862  0.0932  1.4028
 6051SOL    HW223001   8.003   0.074   2.379  1.8467  0.6696 -0.2383
 6052SOL     OW23002   3.785   2.887   3.002 -0.8212 -0.7127  0.1235
 6052SOL    HW123003   3.807   2.886   3.095 -2.6457  0.9621  0.6226
 6052SOL    HW223004   3.805   2.976   2.973 -1.0665 -0.9666 -0.8802
 6053SOL     OW23005   9.376   2.618   3.310  0.1719  0.1622 -0.8840
 6053SOL    HW123006   9.295   2.604   3.261  0.6701  0.5078 -1.8311
 6053SOL    HW223007   9.353   2.681   3.378 -0.5103 -0.2387 -0.7425
 6054SOL     OW23008   2.254   0.612   2.038 -0.2517 -0.4664  0.2978
 6054SOL    HW123009   2.258   0.668   2.115  0.4334 -2.1944  1.5953
 6054SOL    HW223010   2.314   0.652   1.975 -1.3227  1.3372  0.3674
 6055SOL     OW23011   2.490   1.160   3.898 -0.3699  0.3185  0.2721
 6055SOL    HW123012   2.523   1.193   3.982  0.6147  0.4642 -0.1649
 6055SOL    HW223013   2.411   1.112   3.922 -1.3226  2.1650  1.0388
 6056SOL     OW23014   4.612   1.924   1.838 -0.4257 -0.5319 -0.0153
 6056SOL    HW123015   4.653   1.842   1.865 -0.5287 -0.3354  0.7813
 6056SOL    HW223016   4.520   1.901   1.821 -0.6760 -0.4219  1.1142
 6057SOL     OW23017   3.568   8.285   1.569  0.0287 -0.1347 -0.4209
 6057SOL    HW123018   3.496   8.274   1.632  1.7948 -0.9580  1.5933
 6057SOL    HW223019   3.525   8.310   1.488 -2.3638  1.6034  1.2302
 6058SOL     OW23020   2.187   1.701   2.959 -0.3404  1.1515 -0.1376
 6058SOL    HW123021   2.238   1.749   3.024  1.5621  0.1090 -0.7849
 6058SOL    HW223022   2.244   1.697   2.882 -0.3849 -2.0345 -0.1424
 6059SOL     OW23023   3.542   0.827   3.628  0.4500 -0.3991  0.0054
 6059SOL    HW123024   3.599   0.772   3.681  0.1287 -0.7284  0.0071
 6059SOL    HW223025   3.521   0.902   3.684  0.8372 -0.2998  0.0221
 6060SOL     OW23026   2.557   2.554   4.743 -0.1197  0.2387  0.4994
 6060SOL    HW123027   2.491   2.521   4.804 -0.3970 -0.4867 -0.1746
 6060SOL    HW223028   2.584   2.477   4.693 -0.6831  0.9854 -1.0329
 6061SOL     OW23029   3.903   9.493   3.479 -0.2410 -0.3876  0.8330
 6061SOL    HW123030   3.917   9.530   3.567  0.9179  0.6730  0.2334
 6061SOL    HW223031   3.882   9.569   3.424 -0.2003 -0.9361  0.0505
 6062SOL     OW23032   3.464   9.628   2.425  0.4412  0.2807  0.3889
 6062SOL    HW123033   3.447   9.716   2.391 -0.5666 -0.5512 -1.3906
 6062SOL    HW223034   3.515   9.643   2.505  1.2387  2.4261 -0.4469
 6063SOL     OW23035   3.342   3.099   1.140  0.0297  0.0626  0.2249
 6063SOL    HW123036   3.277   3.037   1.107  1.0156 -1.3340  0.8190
 6063SOL    HW223037   3.394   3.122   1.063  0.2800 -0.6268  0.1876
 6064SOL     OW23038   2.823   9.772   2.355  0.1113 -0.0983 -0.3578
 6064SOL    HW123039   2.814   9.863   2.327  0.5473  0.7594  2.0379
 6064SOL    HW223040   2.764   9.723   2.298 -1.4161  1.9196 -0.6008
 6065SOL     OW23041   3.037   9.469   4.080  0.1974 -0.0655  0.0120
 6065SOL    HW123042   3.042   9.537   4.147 -1.8233  0.0521  0.1045
 6065SOL    HW223043   3.006   9.514   4.002  2.3920 -0.2326 -1.0251
 6066SOL     OW23044   3.321   0.329   4.007  0.2295  0.0718 -0.3909
 6066SOL    HW123045   3.311   0.367   4.094  1.3533 -0.1178 -0.1647
 6066SOL    HW223046   3.410   0.293   4.006 -0.3348 -1.4178 -1.0402
 6067SOL     OW23047   2.814   9.611   2.140  0.2680  0.3764 -0.2858
 6067SOL    HW123048   2.756   9.539   2.164  0.2671 -0.0594 -1.5279
 6067SOL    HW223049   2.901   9.571   2.131  0.2678  0.5112 -0.9837
 6068SOL     OW23050   1.844   2.826   3.177 -0.8586 -0.2586 -0.0060
 6068SOL    HW123051   1.878   2.740   3.203  1.2903 -0.0261 -1.8022
 6068SOL    HW223052   1.895   2.889   3.227 -0.1578  0.0280 -1.0478
 6069SOL     OW23053   2.910   1.608   1.879  0.1242 -0.1116 -0.1350
 6069SOL    HW123054   2.892   1.515   1.867 -0.6348 -0.0291  0.3189
 6069SOL    HW223055   2.969   1.611   1.955 -1.8113 -0.0947  1.4584
 6070SOL     OW23056   1.523   1.421   2.921  0.1909 -0.1997  0.1039
 6070SOL    HW123057   1.439   1.466   2.913  0.4267  0.5140  1.3652
 6070SOL    HW223058   1.513   1.343   2.866  0.0153  1.6401 -2.6399
 6071SOL     OW23059   3.245   2.272   3.140 -0.0929 -0.6264  0.5364
 6071SOL    HW123060   3.259   2.344   3.078  0.2678 -0.8959  0.3027
 6071SOL    HW223061   3.267   2.193   3.090 -1.2516 -0.9752  0.5340
 6072SOL     OW23062   4.878   1.979   2.824 -0.1979 -0.7460  0.4818
 6072SOL    HW123063   4.949   1.949   2.880 -0.7029  0.0470  1.5716
 6072SOL    HW223064   4.820   1.903   2.815  0.3092 -1.1222  0.3198
 6073SOL     OW23065   3.921   1.501   4.197  0.1940 -0.4230 -0.6545
 6073SOL    HW123066   3.837   1.464   4.168  0.1261 -0.9540  0.1848
 6073SOL    HW223067   3.975   1.502   4.118  0.2412 -2.4595 -0.6909
 6074SOL     OW23068   4.988   3.211   0.378  0.0082  0.0179 -0.1545
 6074SOL    HW123069   4.939   3.244   0.453  1.0668  0.3025  0.4248
 6074SOL    HW223070   5.006   3.288   0.324  1.3638  0.2172  0.5493
 6075SOL     OW23071   3.199   2.639   0.453 -0.0908 -0.3779 -0.6436
 6075SOL    HW123072   3.234   2.584   0.523 -0.3668  0.4406  0.1443
 6075SOL    HW223073   3.113   2.600   0.433  0.1582 -0.8517 -0.8167
 6076SOL     OW23074   1.121   9.716   1.074 -0.2023 -0.3531 -0.0425
 6076SOL    HW123075   1.028   9.713   1.095 -0.2521 -0.2427 -0.2462
 6076SOL    HW223076   1.125   9.739   0.981  0.0293 -0.2699 -0.0148
 6077SOL     OW23077   2.942   0.544   3.222 -0.5420  0.0748 -0.0541
 6077SOL    HW123078   2.918   0.631   3.189 -1.2210 -0.6376 -1.5147
 6077SOL    HW223079   2.982   0.500   3.147  0.8550 -0.4972  0.9866
 6078SOL     OW23080   2.773   2.673   4.055 -0.0153  0.5367 -0.3788
 6078SOL    HW123081   2.707   2.605   4.069  1.7705 -1.7504 -2.0743
 6078SOL    HW223082   2.789   2.671   3.961  1.8279  1.6177 -0.1287
 6079SOL     OW23083   3.161   9.709   3.931 -0.1191 -0.1392  0.2457
 6079SOL    HW123084   3.080   9.664   3.904 -0.0407 -1.8276  2.5548
 6079SOL    HW223085   3.133   9.766   4.002  0.6501 -0.4152  0.7707
 6080SOL     OW23086   3.099   0.395   3.020  0.1034 -0.1541  0.0908
 6080SOL    HW123087   3.079   0.319   3.075  1.2657  0.2238  1.0917
 6080SOL    HW223088   3.194   0.394   3.012 -0.0309 -0.1686 -1.9378
 6081SOL     OW23089   9.642   1.273   0.936 -0.0056 -0.1345  0.5711
 6081SOL    HW123090   9.734   1.297   0.926  0.2293 -0.9328  0.7937
 6081SOL    HW223091   9.627   1.272   1.031  0.2495 -1.7871  0.6212
 6082SOL     OW23092   2.172   1.278   4.916  0.5267  0.1782  0.1429
 6082SOL    HW123093   2.208   1.366   4.928 -0.7733  0.9864 -1.5339
 6082SOL    HW223094   2.125   1.282   4.833 -0.2428 -1.8879  0.4208
 6083SOL     OW23095   2.411   1.934   4.809 -0.3762  0.4835 -0.3342
 6083SOL    HW123096   2.472   1.958   4.738  0.2401  2.4248  0.7750
 6083SOL    HW223097   2.462   1.877   4.866 -0.4631 -0.0312 -0.7605
 6084SOL     OW23098   1.183   2.111   4.170  0.1518 -0.1692  0.3886
 6084SOL    HW123099   1.100   2.066   4.186 -0.8722  1.1915 -0.8517
 6084SOL    HW223100   1.250   2.048   4.197 -1.2207 -1.9923 -0.2649
 6085SOL     OW23101   3.519   1.037   3.793 -0.4208 -0.2506 -0.4191
 6085SOL    HW123102   3.490   1.129   3.788 -1.2915 -0.5285 -0.5915
 6085SOL    HW223103   3.612   1.043   3.814 -0.0533  0.7188 -2.0803
 6086SOL     OW23104   1.351   3.267   3.039 -0.2202  0.1517  0.0785
 6086SOL    HW123105   1.323   3.264   2.948  1.4515  0.5354 -0.4771
 6086SOL    HW223106   1.440   3.232   3.038  0.5175  1.8638  1.2607
 6087SOL     OW23107   2.671   1.544   3.117  0.2336  0.1939  0.4808
 6087SOL    HW123108   2.697   1.575   3.204  0.1657 -0.7755  0.8609
 6087SOL    HW223109   2.603   1.478   3.134 -0.8878  1.0742 -0.3854
 6088SOL     OW23110   2.030   0.990   2.031 -0.3949  0.2515 -0.5908
 6088SOL    HW123111   2.019   0.926   1.960  0.8396  1.0269 -1.5180
 6088SOL    HW223112   2.111   1.037   2.008  0.2485  0.2650  1.5363
 6089SOL     OW23113   4.914   9.137   1.150 -0.5154  0.0325 -0.4590
 6089SOL    HW123114   4.893   9.045   1.136  1.8346 -0.5093 -0.8708
 6089SOL    HW223115   4.938   9.143   1.242  3.0878 -0.7302 -1.1795
 6090SOL     OW23116   2.434   1.846   4.377  0.1345  0.0536  0.2264
 6090SOL    HW123117   2.393   1.760   4.366  1.2450 -0.5853  0.8944
 6090SOL    HW223118   2.395   1.881   4.457 -2.7619  1.6653 -1.7181
 6091SOL     OW23119   1.203   9.782   2.897 -0.6481  0.1303  0.0556
 6091SOL    HW123120   1.287   9.827   2.909  0.5665 -2.0195  0.1085
 6091SOL    HW223121   1.161   9.787   2.983 -0.9098  1.7653 -0.1299
 6092SOL     OW23122   1.956   1.289   2.846 -0.5857 -0.2165  0.1075
 6092SOL    HW123123   1.880   1.237   2.820 -2.5621  2.1256  0.7246
 6092SOL    HW223124   1.988   1.246   2.926 -1.9607 -0.6833  0.4393
 6093SOL     OW23125   1.384   9.270   2.001 -0.1104 -0.6051 -0.2651
 6093SOL    HW123126   1.332   9.350   2.006  1.3782  0.4017 -0.1687
 6093SOL    HW223127   1.448   9.288   1.933 -1.3379 -2.7362 -2.1180
 6094SOL     OW23128   0.510   0.860   3.606 -0.1902  0.0568  0.2496
 6094SOL    HW123129   0.585   0.875   3.547  0.8152  0.7334  1.6344
 6094SOL    HW223130   0.463   0.943   3.606 -0.4443 -0.0853  0.0716
 6095SOL     OW23131   2.045   0.836   3.268  0.1167 -0.3097 -0.6276
 6095SOL    HW123132   1.958   0.870   3.245 -0.5265 -1.4855 -0.0196
 6095SOL    HW223133   2.093   0.913   3.298 -1.0808  0.1851  0.0941
 6096SOL     OW23134   2.733   2.524   3.711  0.2470  0.2053  0.1406
 6096SOL    HW123135   2.641   2.500   3.700  0.1752 -0.3829  1.7800
 6096SOL    HW223136   2.770   2.456   3.767  1.8815  0.0477 -1.0544
 6097SOL     OW23137   3.149   2.247   1.493  0.0756  0.3453 -0.3176
 6097SOL    HW123138   3.207   2.241   1.568 -1.5960  0.5160  1.0572
 6097SOL    HW223139   3.066   2.279   1.529 -0.6168  1.0082 -2.3305
 6098SOL     OW23140   1.837   0.564   3.814 -0.0754 -1.0993  0.5325
 6098SOL    HW123141   1.744   0.573   3.795  0.0892 -1.8009 -0.6991
 6098SOL    HW223142   1.873   0.652   3.804 -0.6715 -0.7352  1.4793
 6099SOL     OW23143   1.781   1.122   2.745  0.8300  0.2953  0.2503
 6099SOL    HW123144   1.822   1.037   2.756 -2.0315 -0.9414  2.3683
 6099SOL    HW223145   1.743   1.120   2.657  1.3016 -0.3271  0.0571
 6100SOL     OW23146   3.633   0.172   2.017  0.1952 -0.3736 -0.4072
 6100SOL    HW123147   3.579   0.215   2.083 -0.1845 -0.4634 -0.6594
 6100SOL    HW223148   3.571   0.130   1.958  0.5467 -0.8569 -0.4435
 6101SOL     OW23149   2.805   2.778   3.010  0.0765 -0.7069 -0.0211
 6101SOL    HW123150   2.876   2.751   3.067 -0.2829 -2.9963 -0.5333
 6101SOL    HW223151   2.755   2.697   2.994 -2.0949  0.6182 -0.4319
 6102SOL     OW23152   0.484   1.110   2.312 -0.0185  0.0900  0.3040
 6102SOL    HW123153   0.569   1.105   2.356  0.1244 -1.4338 -0.0939
 6102SOL    HW223154   0.474   1.202   2.289  0.3691  0.7567  2.5788
 6103SOL     OW23155   3.704   1.352   3.270  0.3627 -0.1357  0.0261
 6103SOL    HW123156   3.736   1.442   3.278 -0.8952  0.3212  0.1141
 6103SOL    HW223157   3.712   1.316   3.358 -0.6743  0.4404  0.3682
 6104SOL     OW23158   3.644   1.908   4.640 -0.3178  0.3768 -0.0856
 6104SOL    HW123159   3.608   1.827   4.604 -0.4868  1.0718 -1.5717
 6104SOL    HW223160   3.653   1.891   4.733 -1.2391 -1.0259 -0.2192
 6105SOL     OW23161   3.961   2.371   0.595 -0.3263 -0.1533 -0.1714
 6105SOL    HW123162   3.874   2.331   0.596 -1.3738  1.6834 -3.5200
 6105SOL    HW223163   4.009   2.321   0.528  1.0018 -0.6261  1.0745
 6106SOL     OW23164   4.409   1.561   3.852 -0.0873  0.6313  0.6129
 6106SOL    HW123165   4.480   1.509   3.816 -0.8287 -0.4744  0.7038
 6106SOL    HW223166   4.427   1.650   3.822  0.7424  0.1849 -0.2733
 6107SOL     OW23167   3.158   2.603   3.689  0.0106 -0.0471  0.1319
 6107SOL    HW123168   3.156   2.620   3.783  1.6435 -2.3384  0.6690
 6107SOL    HW223169   3.081   2.549   3.672 -1.4633  2.0779 -0.3200
 6108SOL     OW23170   2.735   2.076   2.715  0.1014  0.1530  0.3846
 6108SOL    HW123171   2.707   2.167   2.720 -1.7946 -0.4286  1.4265
 6108SOL    HW223172   2.724   2.052   2.623 -0.3467  0.7060  0.2919
 6109SOL     OW23173   2.048   9.802   2.261 -0.6117 -0.3933  0.6642
 6109SOL    HW123174   1.995   9.782   2.184 -0.6253  0.4510  0.4509
 6109SOL    HW223175   2.130   9.837   2.226 -0.5244 -0.2299  1.0257
 6110SOL     OW23176   0.720   1.160   2.774 -0.4368  0.0653 -0.9200
 6110SOL    HW123177   0.768   1.126   2.849 -1.8696 -1.5755 -0.6907
 6110SOL    HW223178   0.787   1.199   2.718  0.7847  0.3977  0.6944
 6111SOL     OW23179   2.015   0.678   2.411  0.4085 -0.3606 -0.0018
 6111SOL    HW123180   2.037   0.765   2.377 -0.6901  0.3864  1.1145
 6111SOL    HW223181   1.920   0.673   2.404  0.5695 -2.4073 -2.1238
 6112SOL     OW23182   3.338   1.998   1.764  0.3629 -0.4016 -0.5542
 6112SOL    HW123183   3.386   1.939   1.705 -0.6390 -0.4249 -1.3744
 6112SOL    HW223184   3.313   1.942   1.838  0.1776 -0.8030 -0.9104
 6113SOL     OW23185   3.870   0.626   3.287  0.2770 -0.2282  0.1314
 6113SOL    HW123186   3.951   0.678   3.293 -0.5791  1.2495 -0.4735
 6113SOL    HW223187   3.900   0.537   3.272  1.8426 -0.1740  2.4332
 6114SOL     OW23188   2.225   0.296   1.938  0.2645 -0.1056  0.1011
 6114SOL    HW123189   2.307   0.301   1.986  0.3884 -0.1653 -0.1036
 6114SOL    HW223190   2.207   0.202   1.930  1.9823 -0.2836 -2.8950
 6115SOL     OW23191   2.791   0.380   0.762  0.3813 -0.0823  0.3495
 6115SOL    HW123192   2.826   0.309   0.816  2.9783  0.8233  0.0219
 6115SOL    HW223193   2.771   0.339   0.678  1.0080 -0.5989  0.4450
 6116SOL     OW23194   3.430   9.213   1.592  0.4813 -0.1807  0.1975
 6116SOL    HW123195   3.384   9.134   1.563 -0.4856  1.2686 -2.5617
 6116SOL    HW223196   3.362   9.266   1.633  0.1020  0.9522 -1.7664
 6117SOL     OW23197   9.722   1.576   2.286  0.5081  0.7426 -0.2248
 6117SOL    HW123198   9.648   1.526   2.250  1.0028 -0.1865  0.0215
 6117SOL    HW223199   9.759   1.621   2.211  0.4384  0.2281 -0.5765
 6118SOL     OW23200   9.439   1.229   3.690 -0.5001 -0.4093 -0.5717
 6118SOL    HW123201   9.464   1.164   3.625  0.8672 -1.8413  1.2858
 6118SOL    HW223202   9.514   1.288   3.695  0.8576 -2.1452  1.8403
 6119SOL     OW23203   1.009   2.339   2.897 -0.2300 -0.2603 -0.0128
 6119SOL    HW123204   0.927   2.299   2.866 -0.2821 -0.4835  0.4177
 6119SOL    HW223205   1.047   2.379   2.818 -1.3541  0.9048 -0.0052
 6120SOL     OW23206   2.368   0.239   0.730 -0.2335  0.4115  0.4306
 6120SOL    HW123207   2.304   0.171   0.749 -0.8811  1.0481  0.5874
 6120SOL    HW223208   2.382   0.234   0.635  1.1625 -1.1687  0.6824
 6121SOL     OW23209   4.753   0.249   3.824  0.1478  0.4863 -0.8313
 6121SOL    HW123210   4.822   0.313   3.838 -0.0457  0.3498  0.9793
 6121SOL    HW223211   4.672   0.300   3.826  0.0936  0.4447 -1.5018
 6122SOL     OW23212   9.685   9.855   2.433  0.2426 -0.4280  0.5859
 6122SOL    HW123213   9.655   9.849   2.343 -0.1794  1.2898  0.5734
 6122SOL    HW223214   9.776   9.886   2.426 -0.3061  1.3225  0.7440
 6123SOL     OW23215   3.303   9.552   1.910  0.7084 -0.2794  0.4793
 6123SOL    HW123216   3.241   9.608   1.957 -0.8529 -0.6060 -1.0633
 6123SOL    HW223217   3.293   9.466   1.952  0.7664 -0.1280  0.8064
 6124SOL     OW23218   1.223   1.026   3.033 -0.1887 -0.5897 -0.4968
 6124SOL    HW123219   1.283   0.956   3.009  1.5099  1.1425 -1.6499
 6124SOL    HW223220   1.278   1.090   3.079 -1.8115 -0.2935  1.1152
 6125SOL     OW23221   4.172   3.361   4.975 -0.3756  0.1351  0.4099
 6125SOL    HW123222   4.196   3.344   4.884 -0.3253  1.7758  0.0911
 6125SOL    HW223223   4.251   3.340   5.025  0.7079  2.3285 -0.2904
 6126SOL     OW23224   2.942   2.199   5.589 -0.2689  0.3588 -0.6180
 6126SOL    HW123225   2.901   2.133   5.645  0.8197  0.9670  0.9520
 6126SOL    HW223226   2.948   2.157   5.503 -5.4344  0.6960 -1.4620
 6127SOL     OW23227   0.699   1.936   2.072 -0.1799  0.3268  0.2548
 6127SOL    HW123228   0.790   1.950   2.045 -0.6583  0.1003 -1.6325
 6127SOL    HW223229   0.700   1.853   2.118  0.3517 -0.4244 -1.0565
 6128SOL     OW23230   3.416   2.060   4.726 -0.1323  0.0985 -0.1491
 6128SOL    HW123231   3.450   2.140   4.685 -2.7374  0.6347 -1.4985
 6128SOL    HW223232   3.416   1.995   4.656  0.4923 -0.6406  0.5191
 6129SOL     OW23233   2.404   8.524   3.171 -0.0042 -0.3379  0.2543
 6129SOL    HW123234   2.317   8.565   3.174  0.2884  0.3763 -0.6659
 6129SOL    HW223235   2.440   8.549   3.086  0.1496 -2.6525 -0.4308
 6130SOL     OW23236   2.206   1.122   3.638  0.0386 -0.2115  0.6925
 6130SOL    HW123237   2.277   1.060   3.648 -1.5928 -2.0450  1.5027
 6130SOL    HW223238   2.235   1.200   3.685  1.1147 -1.2856  1.8703
 6131SOL     OW23239   3.063   1.585   2.107 -0.3900  0.3182 -0.0928
 6131SOL    HW123240   3.136   1.618   2.160 -0.1143  1.5631 -1.1808
 6131SOL    HW223241   3.054   1.494   2.134  0.5519  0.5581  1.1763
 6132SOL     OW23242   2.010   2.027   1.577  0.0824  0.7267 -0.2065
 6132SOL    HW123243   1.945   2.058   1.514 -3.4284 -1.8714  1.7903
 6132SOL    HW223244   2.020   2.100   1.638 -1.3040  1.1041 -0.3859
 6133SOL     OW23245   3.987   3.515   3.695  0.0179 -0.6175  0.0448
 6133SOL    HW123246   4.051   3.479   3.756  0.2097  1.1361  0.9627
 6133SOL    HW223247   3.903   3.511   3.742 -0.0480 -0.3743 -0.0458
 6134SOL     OW23248   3.460   0.514   1.886  0.1997 -0.6384  0.4527
 6134SOL    HW123249   3.510   0.474   1.815  3.0881  0.2762  1.8073
 6134SOL    HW223250   3.450   0.606   1.860  0.8073 -0.4203  0.9648
 6135SOL     OW23251   3.571   2.239   1.513 -0.2269 -0.2380 -0.2734
 6135SOL    HW123252   3.599   2.313   1.459 -1.9232  0.3391 -0.4255
 6135SOL    HW223253   3.545   2.172   1.450  2.2778 -1.4523 -0.1556
 6136SOL     OW23254   1.634   1.122   3.057 -0.0710  0.7140 -0.5214
 6136SOL    HW123255   1.615   1.174   2.978  1.5454  1.5861 -0.3728
 6136SOL    HW223256   1.548   1.105   3.095 -0.7241  2.6180 -1.0181
 6137SOL     OW23257   2.682   1.704   5.705  0.4079 -0.0770  0.2323
 6137SOL    HW123258   2.663   1.612   5.689  0.8042 -0.1180 -0.0079
 6137SOL    HW223259   2.735   1.704   5.785  0.3690 -0.0546  0.2579
 6138SOL     OW23260   2.776   3.383   4.446  0.5997  0.0922  0.1401
 6138SOL    HW123261   2.699   3.350   4.492 -0.5296  1.6484 -0.5542
 6138SOL    HW223262   2.805   3.458   4.497  2.3420 -1.1036  0.9815
 6139SOL     OW23263   3.120   8.928   2.338 -0.1353 -0.1627  0.4249
 6139SOL    HW123264   3.179   8.935   2.263  0.1058  1.2659  0.7273
 6139SOL    HW223265   3.043   8.978   2.313 -0.3470 -0.2638  0.8676
 6140SOL     OW23266   2.345   1.081   2.227  0.2765  0.5924  0.0051
 6140SOL    HW123267   2.272   1.142   2.234  1.8003  2.3651  1.2111
 6140SOL    HW223268   2.359   1.070   2.133  0.6187  2.9949 -0.2790
 6141SOL     OW23269   2.762   3.016   3.598 -0.4301  0.1342  0.0680
 6141SOL    HW123270   2.699   3.087   3.597 -0.8217 -0.2163 -0.4874
 6141SOL    HW223271   2.730   2.954   3.533 -1.2756 -1.5741  2.0162
 6142SOL     OW23272   1.946   2.300   3.259 -0.2047  0.1134 -0.0332
 6142SOL    HW123273   1.850   2.295   3.259 -0.2338  0.1759 -1.6462
 6142SOL    HW223274   1.972   2.263   3.175  1.2198 -0.2628  0.5488
 6143SOL     OW23275   2.448   9.854   3.227  0.4634 -0.1553 -0.2972
 6143SOL    HW123276   2.395   9.865   3.149  0.2046  0.8921  0.0139
 6143SOL    HW223277   2.393   9.803   3.287 -0.5719  1.6603  0.3558
 6144SOL     OW23278   2.234   7.653   2.128  0.4412 -0.0312  0.5727
 6144SOL    HW123279   2.183   7.680   2.051  0.8470 -2.0559 -0.4614
 6144SOL    HW223280   2.188   7.577   2.162  1.0223  0.0400  1.5478
 6145SOL     OW23281   2.804   8.822   1.868 -0.5591 -0.0948  0.0202
 6145SOL    HW123282   2.844   8.902   1.833 -0.4671  1.1208  2.6480
 6145SOL    HW223283   2.714   8.848   1.890 -1.6421 -1.7103 -2.1718
 6146SOL     OW23284   1.792   1.953   2.529  0.1920  0.2606 -0.1732
 6146SOL    HW123285   1.858   1.885   2.514  0.9334  1.3453 -2.5108
 6146SOL    HW223286   1.823   2.000   2.607  0.1265 -1.5064  0.9514
 6147SOL     OW23287   2.825   9.194   2.005 -0.5548  0.1134 -0.1014
 6147SOL    HW123288   2.781   9.194   1.920  2.0242  3.5058 -1.6611
 6147SOL    HW223289   2.779   9.261   2.055  0.4560  1.0829 -0.4226
 6148SOL     OW23290   4.055   8.864   3.451 -0.3092 -0.0217  0.1948
 6148SOL    HW123291   4.098   8.799   3.395 -1.4160 -1.2924  0.7496
 6148SOL    HW223292   3.964   8.864   3.421 -0.9587 -0.8208  2.0123
 6149SOL     OW23293   8.137   9.625   3.947  0.1215 -0.4242  0.1040
 6149SOL    HW123294   8.063   9.671   3.907  0.8990  0.9824  0.2193
 6149SOL    HW223295   8.111   9.614   4.039  0.4104  0.9307  0.3774
 6150SOL     OW23296   2.031   0.750   2.671 -0.2589 -0.3627  0.1061
 6150SOL    HW123297   2.061   0.676   2.724  2.2113 -0.1424 -0.8572
 6150SOL    HW223298   2.024   0.715   2.582  0.1637  0.3369 -0.2111
 6151SOL     OW23299   2.313   9.815   4.153 -0.1319  0.5220 -0.3096
 6151SOL    HW123300   2.237   9.872   4.142 -0.9620 -0.0892  1.7239
 6151SOL    HW223301   2.277   9.736   4.193  1.6139  0.3938  1.1058
 6152SOL     OW23302   2.281   1.041   6.276  0.3189 -0.0928 -0.0751
 6152SOL    HW123303   2.218   0.977   6.308 -0.2299  1.6388  2.6927
 6152SOL    HW223304   2.365   0.995   6.278  0.1141 -0.5678  2.8517
 6153SOL     OW23305   4.233   9.720   2.825  0.1319  0.4051 -0.2716
 6153SOL    HW123306   4.157   9.765   2.862 -0.5186 -0.1212 -0.9223
 6153SOL    HW223307   4.293   9.790   2.800 -0.4583  0.8699 -0.4038
 6154SOL     OW23308   1.596   1.522   3.665 -0.1568  0.0151 -0.1329
 6154SOL    HW123309   1.617   1.607   3.627 -0.1140 -0.4103 -1.0758
 6154SOL    HW223310   1.505   1.530   3.694 -0.6311 -0.0742 -1.5426
 6155SOL     OW23311   3.493   4.402   2.514  0.7398  0.4024 -0.5187
 6155SOL    HW123312   3.584   4.431   2.520  1.0644 -0.5209 -0.8093
 6155SOL    HW223313   3.499   4.307   2.508 -0.2986  0.2365  0.6319
 6156SOL     OW23314   1.085   2.530   5.452 -0.3190  1.2803  0.1659
 6156SOL    HW123315   1.177   2.537   5.475 -0.0155  0.9038 -0.8784
 6156SOL    HW223316   1.079   2.449   5.401 -1.2429  1.2437  0.3124
 6157SOL     OW23317   2.885   9.583   5.320  0.1851  0.2315 -0.2418
 6157SOL    HW123318   2.953   9.516   5.317  0.0551  0.0495  0.7808
 6157SOL    HW223319   2.854   9.584   5.410  0.6895  2.1872 -0.0385
 6158SOL     OW23320   4.598   0.551   4.979  0.1760 -0.2778 -0.6548
 6158SOL    HW123321   4.685   0.576   5.008 -0.4874 -0.0489  1.3284
 6158SOL    HW223322   4.595   0.456   4.990  0.2531 -0.3113 -0.9305
 6159SOL     OW23323   4.917   1.954   4.014 -0.5159 -0.0651 -0.1827
 6159SOL    HW123324   4.832   1.933   3.975 -0.7226 -1.7495  1.0804
 6159SOL    HW223325   4.910   2.046   4.039 -2.9967 -0.7884  2.2637
 6160SOL     OW23326   2.633   9.620   5.197 -0.1978 -0.0063  0.0936
 6160SOL    HW123327   2.679   9.695   5.160  0.0049 -0.7268 -1.1603
 6160SOL    HW223328   2.698   9.575   5.250 -0.2926  0.6285  0.7688
 6161SOL     OW23329   2.483   1.733   8.065 -0.2732  0.6493  0.2813
 6161SOL    HW123330   2.508   1.773   7.982  1.5851  0.9747  0.9431
 6161SOL    HW223331   2.565   1.701   8.102 -0.9721  0.9836  2.2434
 6162SOL     OW23332   3.179   1.151   7.329  0.3653  0.0604  0.3163
 6162SOL    HW123333   3.238   1.195   7.389  0.6055 -0.0777  0.1852
 6162SOL    HW223334   3.222   1.158   7.244  0.9476 -1.3715  0.4685
 6163SOL     OW23335   2.982   8.521   2.850 -0.4011  0.3087  0.1463
 6163SOL    HW123336   2.948   8.546   2.764 -0.7891  0.6902  0.4016
 6163SOL    HW223337   3.000   8.605   2.893 -1.4720  0.1608  0.9301
 6164SOL     OW23338   0.135   0.676   3.974 -0.1059 -0.2590  0.1589
 6164SOL    HW123339   0.100   0.680   3.885  0.0102  0.0288  0.1239
 6164SOL    HW223340   0.142   0.583   3.994  3.3550 -0.4847 -1.5079
 6165SOL     OW23341   4.454   1.897   3.476 -0.4443  0.0631 -0.4713
 6165SOL    HW123342   4.491   1.980   3.445  4.2976 -1.8729 -0.8938
 6165SOL    HW223343   4.436   1.848   3.396 -0.3262 -0.3970 -0.2181
 6166SOL     OW23344   0.285   8.934   2.404 -0.0825 -0.4001  0.0351
 6166SOL    HW123345   0.272   8.850   2.448 -1.4770 -1.0233 -1.4438
 6166SOL    HW223346   0.207   8.985   2.425  1.3407  1.0995  2.0021
 6167SOL     OW23347   1.153   9.819   4.047 -0.0650 -0.6164  0.8026
 6167SOL    HW123348   1.106   9.834   4.129 -1.4666 -1.5869  0.2134
 6167SOL    HW223349   1.188   9.905   4.024  0.7602 -0.4145  2.6362
 6168SOL     OW23350   1.196   0.191   7.617 -0.4413  0.4977  0.0375
 6168SOL    HW123351   1.116   0.243   7.620 -1.2245 -0.6844  0.2717
 6168SOL    HW223352   1.267   0.255   7.624 -1.2740  1.7714 -2.1730
 6169SOL     OW23353   4.530   8.960   0.862  0.4849 -0.2372 -0.4565
 6169SOL    HW123354   4.578   9.043   0.863  0.5496 -0.2568  1.2521
 6169SOL    HW223355   4.491   8.954   0.949 -1.9956 -0.6075 -1.5003
 6170SOL     OW23356   3.467   0.087   6.742 -0.1899  0.1991 -0.4584
 6170SOL    HW123357   3.425   0.120   6.821  1.2453 -0.9632  0.8566
 6170SOL    HW223358   3.527   0.157   6.716 -0.6483  0.5769 -0.5182
 6171SOL     OW23359   4.240   0.970   3.954  0.1942  0.2267 -0.2770
 6171SOL    HW123360   4.234   0.876   3.941 -0.6772  0.3271 -0.6541
 6171SOL    HW223361   4.221   0.983   4.047 -1.1010  0.1346 -0.5047
 6172SOL     OW23362   3.720   1.326   4.876  0.0180 -0.0361  0.1764
 6172SOL    HW123363   3.691   1.396   4.935  0.1020  1.3260 -1.3394
 6172SOL    HW223364   3.780   1.273   4.929  1.2575  1.9931  0.9059
 6173SOL     OW23365   3.229   2.060   2.948  0.0708 -0.0695  0.5020
 6173SOL    HW123366   3.140   2.049   2.914 -0.4391  0.8672  1.4825
 6173SOL    HW223367   3.269   1.973   2.938  0.0322  0.1497 -2.6048
 6174SOL     OW23368   2.144   9.372   4.144  0.0203 -0.1709 -0.4647
 6174SOL    HW123369   2.138   9.466   4.165 -1.1181  0.4351 -3.1190
 6174SOL    HW223370   2.075   9.332   4.197 -0.4198  0.6926 -0.3579
 6175SOL     OW23371   2.100   9.085   6.226  0.6958 -0.5822  0.1311
 6175SOL    HW123372   2.182   9.107   6.269  0.7906 -1.1108  0.2321
 6175SOL    HW223373   2.032   9.111   6.289  0.7290  0.7739 -0.3585
 6176SOL     OW23374   3.131   1.010   3.120  0.3331  0.8632 -0.0827
 6176SOL    HW123375   3.130   1.038   3.029 -2.5614  1.5079  0.0408
 6176SOL    HW223376   3.091   0.923   3.119 -0.4550  1.2038  0.6316
 6177SOL     OW23377   5.076   1.720   4.101 -0.3228  0.1695  0.9046
 6177SOL    HW123378   5.018   1.750   4.031 -1.5499  0.1052  1.8643
 6177SOL    HW223379   5.161   1.710   4.058 -0.7258  1.4175 -0.2745
 6178SOL     OW23380   3.787   2.705   4.116  0.1239  0.3662 -1.1537
 6178SOL    HW123381   3.878   2.677   4.117  0.3272  1.0095 -1.3070
 6178SOL    HW223382   3.782   2.774   4.183 -0.4984 -0.4179 -0.3619
 6179SOL     OW23383   3.656   2.324   1.814  0.4467  0.8147 -0.2971
 6179SOL    HW123384   3.613   2.271   1.880  0.8423  0.3949 -0.3777
 6179SOL    HW223385   3.585   2.375   1.775  0.1788  0.9015  0.2903
 6180SOL     OW23386   2.986   9.801   3.535  0.0061 -0.1698 -0.1061
 6180SOL    HW123387   3.043   9.727   3.513  0.6538  0.2687  0.1065
 6180SOL    HW223388   2.941   9.773   3.615 -1.8871 -1.5070 -1.5416
 6181SOL     OW23389   2.662   0.978   5.223  0.6212 -0.1557  0.2625
 6181SOL    HW123390   2.685   1.068   5.204 -0.7874  0.0935 -0.3893
 6181SOL    HW223391   2.737   0.927   5.193  1.6603  0.8198  1.1412
 6182SOL     OW23392   6.243   3.439   2.723 -0.3937 -0.2573 -0.0378
 6182SOL    HW123393   6.224   3.372   2.657  1.7479 -1.2046  0.2190
 6182SOL    HW223394   6.335   3.462   2.709  0.0971 -0.3588  2.4246
 6183SOL     OW23395   2.072   0.844   4.798  0.4139  0.6413  0.2750
 6183SOL    HW123396   2.001   0.891   4.754  0.2650  0.1499 -0.0205
 6183SOL    HW223397   2.034   0.759   4.820  0.1628  1.1983  2.2335
 6184SOL     OW23398   5.716   0.030   1.871  0.5219 -0.6078  0.0757
 6184SOL    HW123399   5.708   0.104   1.931  0.7752  0.8295 -1.5753
 6184SOL    HW223400   5.809   0.027   1.849  0.3119 -0.5718 -0.8629
 6185SOL     OW23401   3.566   8.764   4.974  0.5819 -0.4755 -0.0270
 6185SOL    HW123402   3.533   8.839   5.023  0.1594 -1.2827  0.9556
 6185SOL    HW223403   3.519   8.767   4.891 -0.9266 -0.7838  0.7885
 6186SOL     OW23404   5.687   3.673   6.006 -0.3230 -0.3721 -0.5183
 6186SOL    HW123405   5.691   3.768   6.015  0.1442 -0.3076 -1.2868
 6186SOL    HW223406   5.746   3.653   5.932 -1.4077 -1.1246 -1.2151
 6187SOL     OW23407   1.776   0.923   3.189 -0.3302  0.4043 -0.8606
 6187SOL    HW123408   1.749   1.007   3.153 -2.1576 -0.0914 -0.7389
 6187SOL    HW223409   1.754   0.927   3.282  3.1676  1.1852  0.0892
 6188SOL     OW23410   3.511   2.631   2.615  0.4452 -0.1205  0.0691
 6188SOL    HW123411   3.528   2.586   2.698 -0.0865  0.5350  0.5421
 6188SOL    HW223412   3.505   2.560   2.550  0.4325 -0.6685  0.6588
 6189SOL     OW23413   2.913   2.058   4.266 -0.1203  0.7000 -0.5438
 6189SOL    HW123414   2.851   2.117   4.310  0.5992  0.1139  1.3785
 6189SOL    HW223415   2.913   2.087   4.175 -1.0473  2.5668 -0.0050
 6190SOL     OW23416   3.743   2.407   3.500 -0.0042 -0.2849 -0.4306
 6190SOL    HW123417   3.676   2.362   3.449 -1.6335  1.9932 -0.4561
 6190SOL    HW223418   3.808   2.434   3.436 -0.5319 -0.0369 -0.8692
 6191SOL     OW23419   3.280   0.774   5.886  0.3317  0.6035 -0.0288
 6191SOL    HW123420   3.233   0.788   5.803  1.4088  0.2845 -0.7216
 6191SOL    HW223421   3.355   0.720   5.861  0.5654  0.3469  1.2037
 6192SOL     OW23422   4.190   9.063   3.269  0.1835  0.2360 -0.1787
 6192SOL    HW123423   4.103   9.029   3.244  0.1048 -0.7119  1.2596
 6192SOL    HW223424   4.242   8.984   3.285  0.7197  0.8081  0.9322
 6193SOL     OW23425   1.610   4.058   3.629  0.1246  0.3403 -0.6190
 6193SOL    HW123426   1.694   4.076   3.673  0.0428  1.1092 -0.7602
 6193SOL    HW223427   1.575   4.145   3.610 -0.3342  0.0120 -1.2737
 6194SOL     OW23428   8.361   1.630   3.435 -0.0933 -0.3235  0.5138
 6194SOL    HW123429   8.443   1.583   3.448 -1.0153 -1.7109  1.6086
 6194SOL    HW223430   8.387   1.711   3.392  1.5983 -1.7815 -1.4710
 6195SOL     OW23431   3.136   1.367   4.780 -0.3894 -0.1408 -0.3380
 6195SOL    HW123432   3.231   1.379   4.772 -0.1769 -2.6202 -3.2852
 6195SOL    HW223433   3.101   1.456   4.777  1.7958  0.8394  0.7859
 6196SOL     OW23434   2.298   1.036   4.047  0.3715  0.3067  0.9326
 6196SOL    HW123435   2.307   1.075   4.134  0.6190  0.2990  0.9111
 6196SOL    HW223436   2.204   1.041   4.028  0.6333  3.5352 -0.2726
 6197SOL     OW23437   3.556   7.458   4.974 -0.6440  0.3064  0.1267
 6197SOL    HW123438   3.596   7.380   5.010 -2.3428 -0.7769 -0.1933
 6197SOL    HW223439   3.628   7.521   4.965  1.2915 -2.0187 -1.9433
 6198SOL     OW23440   1.473   0.288   7.194  0.4584  0.2728  0.0442
 6198SOL    HW123441   1.507   0.374   7.171  0.0157  0.1497 -1.1124
 6198SOL    HW223442   1.507   0.229   7.127  0.8819 -0.4958  0.9036
 6199SOL     OW23443   1.387   2.737   4.652 -0.1347 -0.1366 -0.2181
 6199SOL    HW123444   1.320   2.804   4.640  1.4654  1.8508  1.2486
 6199SOL    HW223445   1.346   2.671   4.708 -1.2974  0.2864 -0.5443
 6200SOL     OW23446   2.377   9.605   4.931 -0.5807 -0.4110 -0.2092
 6200SOL    HW123447   2.283   9.598   4.917 -0.5329  0.4960 -1.1173
 6200SOL    HW223448   2.405   9.674   4.871  0.4253  0.4098  1.1398
 6201SOL     OW23449   4.446   1.473   3.569  0.4486  0.6117 -0.3876
 6201SOL    HW123450   4.492   1.428   3.639  0.8939 -1.0247 -1.6544
 6201SOL    HW223451   4.510   1.535   3.534  0.1375  1.6186  0.7930
 6202SOL     OW23452   2.704   1.378   5.685 -0.0085 -0.5482 -0.1439
 6202SOL    HW123453   2.665   1.330   5.758  0.3206  1.0601  1.1227
 6202SOL    HW223454   2.785   1.331   5.667  1.3773  0.6363  2.4777
 6203SOL     OW23455   2.784   0.172   3.637  0.1676  0.2891  0.1966
 6203SOL    HW123456   2.869   0.129   3.645  1.6876  2.7513 -1.3883
 6203SOL    HW223457   2.733   0.113   3.581  0.4183 -1.6556  1.8745
 6204SOL     OW23458   2.905   0.567   4.345  0.4463 -0.3195  0.4450
 6204SOL    HW123459   2.935   0.494   4.290  0.1394  0.1673 -0.3882
 6204SOL    HW223460   2.863   0.524   4.420 -0.5554 -1.0235 -0.4867
 6205SOL     OW23461   2.362   2.331   5.123 -0.3110 -0.4437 -0.1758
 6205SOL    HW123462   2.458   2.328   5.131 -0.2779  2.3849  2.5937
 6205SOL    HW223463   2.346   2.387   5.047  0.2676 -0.3798 -0.2555
 6206SOL     OW23464   2.867   0.218   3.927  0.0915  0.2118 -0.5861
 6206SOL    HW123465   2.809   0.251   3.858 -1.5858 -0.7767  0.2903
 6206SOL    HW223466   2.809   0.174   3.988  1.6705  0.0822  0.8997
 6207SOL     OW23467   4.303   0.900   4.807 -0.1557  0.3032 -0.4296
 6207SOL    HW123468   4.392   0.867   4.796  0.2346  0.8200  0.9786
 6207SOL    HW223469   4.272   0.861   4.889 -0.8488  0.9471 -0.3692
 6208SOL     OW23470   1.548   2.895   4.455  0.6252 -0.5169 -0.2257
 6208SOL    HW123471   1.625   2.912   4.510  1.0205 -1.7072 -0.3768
 6208SOL    HW223472   1.482   2.864   4.517  0.4013  0.0823 -0.1573
 6209SOL     OW23473   3.358   1.185   5.099 -0.5743 -0.3962  0.0717
 6209SOL    HW123474   3.303   1.143   5.165  0.3830  0.4262  1.4460
 6209SOL    HW223475   3.436   1.213   5.147  0.6326 -0.6676 -1.6145
 6210SOL     OW23476   2.362   1.574   4.780  0.0941  0.0056 -0.3944
 6210SOL    HW123477   2.309   1.550   4.704 -1.8599  0.2131  0.8408
 6210SOL    HW223478   2.299   1.596   4.847  1.7841  1.4718  0.8020
 6211SOL     OW23479   2.192   0.162   4.299  0.4628 -0.2734 -0.0860
 6211SOL    HW123480   2.104   0.159   4.261 -0.0555 -0.7014  1.0953
 6211SOL    HW223481   2.187   0.104   4.375  1.7941 -0.3544 -0.0438
 6212SOL     OW23482   2.360   4.096   5.994 -0.2836 -0.1374  0.0518
 6212SOL    HW123483   2.335   4.068   5.906  0.5964 -0.9737  0.0582
 6212SOL    HW223484   2.453   4.118   5.987 -0.2534 -0.0230  0.7304
 6213SOL     OW23485   2.803   8.180   5.799 -0.0160  0.2231 -0.7777
 6213SOL    HW123486   2.729   8.212   5.748 -0.6202  0.5259  0.2568
 6213SOL    HW223487   2.784   8.209   5.889  2.2288  1.8860 -0.7531
 6214SOL     OW23488   2.367   0.353   3.093  0.3597 -0.3407  0.0777
 6214SOL    HW123489   2.421   0.390   3.162  1.5910 -0.3402 -0.8516
 6214SOL    HW223490   2.406   0.386   3.012 -1.3115  0.0256 -0.6228
 6215SOL     OW23491   4.843   2.419   4.624  0.3286 -0.4849  0.0546
 6215SOL    HW123492   4.851   2.514   4.631 -0.5158 -0.2752 -1.4316
 6215SOL    HW223493   4.790   2.394   4.700 -0.5281  0.3987 -0.2341
 6216SOL     OW23494   3.185   1.525   5.229  0.1766 -0.0801 -0.0277
 6216SOL    HW123495   3.114   1.588   5.241  0.1454 -0.2424  0.7174
 6216SOL    HW223496   3.245   1.568   5.169 -1.1879 -0.4892 -1.7607
 6217SOL     OW23497   2.498   0.115   3.837  0.5782 -0.3608  0.4821
 6217SOL    HW123498   2.477   0.059   3.762 -4.5328 -0.2166  1.4184
 6217SOL    HW223499   2.521   0.199   3.797  0.5771 -1.0011 -0.9569
 6218SOL     OW23500   2.093   9.724   6.159  0.1586 -0.0597  0.0919
 6218SOL    HW123501   2.021   9.785   6.178 -1.1598 -1.7424  0.8174
 6218SOL    HW223502   2.064   9.641   6.197  1.1585 -1.5535 -2.1649
 6219SOL     OW23503   4.916   0.916   3.900  0.5593 -0.9370  0.1893
 6219SOL    HW123504   4.965   0.836   3.878  1.6112 -0.0962 -0.6432
 6219SOL    HW223505   4.862   0.933   3.823  1.7030  0.1343 -0.4082
 6220SOL     OW23506   2.782   9.658   5.546  0.0940  0.0428 -0.1761
 6220SOL    HW123507   2.731   9.584   5.578 -1.9049  0.7439 -1.5358
 6220SOL    HW223508   2.753   9.732   5.598  0.2368  0.3202 -0.4858
 6221SOL     OW23509   1.793   2.355   5.639  0.5601 -0.0995 -0.3163
 6221SOL    HW123510   1.706   2.366   5.676  0.1230  0.6861 -1.5126
 6221SOL    HW223511   1.836   2.293   5.698 -0.7269 -0.3453  0.4152
 6222SOL     OW23512   0.969   0.886   3.042 -0.2097 -0.0928  0.0387
 6222SOL    HW123513   1.058   0.919   3.049 -0.2970  0.0105  0.8234
 6222SOL    HW223514   0.970   0.828   2.966  0.5986 -0.3111  0.2105
 6223SOL     OW23515   0.737   0.575   5.451  0.3119  0.1653  0.0411
 6223SOL    HW123516   0.735   0.551   5.358  0.3503  0.9465 -0.1657
 6223SOL    HW223517   0.752   0.492   5.496  0.7687 -0.1528 -0.6753
 6224SOL     OW23518   4.261   7.505   6.108 -0.1211  0.9180  0.0632
 6224SOL    HW123519   4.190   7.570   6.099  0.4463  1.5474  0.0730
 6224SOL    HW223520   4.283   7.507   6.201 -0.4572  0.3214  0.1604
 6225SOL     OW23521   2.660   1.865   3.895 -0.5369 -0.0954 -0.0791
 6225SOL    HW123522   2.650   1.772   3.873 -0.3468 -0.1978  0.2552
 6225SOL    HW223523   2.589   1.908   3.849 -1.7090 -0.6313  1.1547
 6226SOL     OW23524   4.017   2.628   4.886 -0.0896  0.3593  0.1014
 6226SOL    HW123525   4.072   2.562   4.927  0.0804  0.5414  0.1689
 6226SOL    HW223526   3.987   2.588   4.805  0.8907  0.5972 -0.3952
 6227SOL     OW23527   4.009   0.220   4.065 -0.6190  0.1696  0.2143
 6227SOL    HW123528   3.965   0.294   4.108 -0.8221  0.6519 -0.8009
 6227SOL    HW223529   3.939   0.158   4.046 -0.9236  0.9556 -1.4401
 6228SOL     OW23530   3.990   2.746   2.819 -0.4722  0.6741 -0.3869
 6228SOL    HW123531   4.012   2.782   2.734  0.4012 -0.8124 -0.8383
 6228SOL    HW223532   4.008   2.817   2.881  0.3996  1.2709 -1.2932
 6229SOL     OW23533   4.028   4.571   4.085  0.8322 -0.1831 -0.1157
 6229SOL    HW123534   4.069   4.509   4.145  2.3185 -0.7052 -1.6047
 6229SOL    HW223535   4.036   4.656   4.128  1.1983 -0.6451  0.7394
 6230SOL     OW23536   3.534   8.041   4.236 -0.4809 -0.2369  0.0677
 6230SOL    HW123537   3.476   8.115   4.216  0.0793  0.1955  0.0172
 6230SOL    HW223538   3.579   8.023   4.153 -0.5327 -0.5670  0.1088
 6231SOL     OW23539   3.361   1.276   3.469 -0.1767 -0.3078  0.4313
 6231SOL    HW123540   3.423   1.204   3.473 -1.3575 -1.2956  2.1580
 6231SOL    HW223541   3.279   1.236   3.440 -0.0041  1.0603 -2.3166
 6232SOL     OW23542   1.561   1.462   5.189  0.2786  0.0101 -0.6068
 6232SOL    HW123543   1.600   1.376   5.175  0.7075  0.3750 -1.7240
 6232SOL    HW223544   1.553   1.500   5.102  1.4426  1.7007 -0.0176
 6233SOL     OW23545   5.041   0.307   5.717 -0.4762 -0.1779 -0.1919
 6233SOL    HW123546   4.964   0.344   5.674  0.1920  1.0553 -0.3621
 6233SOL    HW223547   5.006   0.249   5.784 -1.5448 -0.4775 -0.9797
 6234SOL     OW23548   1.818   9.380   5.351  0.0902 -0.0171 -0.1063
 6234SOL    HW123549   1.860   9.294   5.342  0.2490  0.1996 -1.8499
 6234SOL    HW223550   1.733   9.361   5.389 -0.7535 -1.2577 -2.4348
 6235SOL     OW23551   4.873   0.393   4.149  0.1505  0.3883  0.1003
 6235SOL    HW123552   4.880   0.308   4.106 -0.2103  0.3107  0.1884
 6235SOL    HW223553   4.843   0.373   4.237  0.6164  0.5663  0.3024
 6236SOL     OW23554   4.227   0.945   6.723  0.3674 -0.0080 -0.3386
 6236SOL    HW123555   4.318   0.975   6.723  0.4064 -0.0795  1.3795
 6236SOL    HW223556   4.177   1.020   6.756  0.2625 -1.1331  2.2890
 6237SOL     OW23557   2.901   0.349   5.133  0.0357 -0.1009 -0.2681
 6237SOL    HW123558   2.957   0.328   5.207  0.0338  0.2887 -0.1521
 6237SOL    HW223559   2.821   0.298   5.147  0.2963 -0.5311 -0.3499
 6238SOL     OW23560   2.906   9.005   4.044 -0.1656 -0.6696  0.3194
 6238SOL    HW123561   2.851   8.950   3.988 -0.9199 -0.8996  1.2484
 6238SOL    HW223562   2.995   8.987   4.015 -0.5762  0.0562 -1.5349
 6239SOL     OW23563   3.479   1.037   3.440  0.0986  0.0134  0.6372
 6239SOL    HW123564   3.493   0.967   3.503  1.0430  0.5639  1.0604
 6239SOL    HW223565   3.422   0.999   3.373  0.6262 -1.1604  0.8391
 6240SOL     OW23566   3.571   2.360   5.435  0.9845  0.4037 -0.1037
 6240SOL    HW123567   3.600   2.321   5.353 -0.9240  0.3951 -0.8197
 6240SOL    HW223568   3.511   2.295   5.472 -1.1671  1.9569 -0.6295
 6241SOL     OW23569   4.397   0.485   3.586 -0.2649 -0.2962 -0.0308
 6241SOL    HW123570   4.306   0.458   3.590 -0.5056  0.0953 -1.8909
 6241SOL    HW223571   4.425   0.461   3.498  1.0325  0.8219  0.0429
 6242SOL     OW23572   1.028   1.945   4.707  0.3739 -0.2789 -0.0729
 6242SOL    HW123573   1.081   1.990   4.773  0.2523  1.5594 -1.1573
 6242SOL    HW223574   1.087   1.932   4.633  0.1439 -1.0871 -0.1255
 6243SOL     OW23575   0.333   2.139   3.732 -0.6141  0.5520 -0.5749
 6243SOL    HW123576   0.426   2.148   3.710 -0.5626  1.8562  0.1022
 6243SOL    HW223577   0.287   2.154   3.649 -0.2458  0.1632 -0.8560
 6244SOL     OW23578   2.058   0.064   4.086 -0.1466 -0.0001 -0.2407
 6244SOL    HW123579   2.002   0.055   4.162  1.7281 -1.9084  1.0215
 6244SOL    HW223580   2.022   0.002   4.022  0.2134 -0.8561  0.3754
 6245SOL     OW23581   2.763   1.145   2.133 -0.0926  0.2653 -0.2635
 6245SOL    HW123582   2.747   1.051   2.140 -0.0461  0.3966  2.4286
 6245SOL    HW223583   2.676   1.185   2.132 -0.1344  0.3386  2.2264
 6246SOL     OW23584   3.498   0.873   6.812  0.3980  0.2470 -0.6012
 6246SOL    HW123585   3.422   0.931   6.814 -1.1006 -1.6306 -0.7575
 6246SOL    HW223586   3.518   0.857   6.905 -0.2213 -0.2503 -0.5445
 6247SOL     OW23587   1.623   1.012   3.388  0.5554  0.4555  0.0685
 6247SOL    HW123588   1.617   1.078   3.458  1.8593  0.5131  0.1487
 6247SOL    HW223589   1.534   1.006   3.354  0.5533  3.0580 -0.6549
 6248SOL     OW23590   0.843   3.326   5.668 -0.3595 -0.1158 -0.3779
 6248SOL    HW123591   0.801   3.271   5.602  0.6145 -1.2436 -0.0886
 6248SOL    HW223592   0.916   3.273   5.701  0.8245  1.4821 -0.3178
 6249SOL     OW23593   0.624   9.677   6.399 -0.0640  0.5070  0.1731
 6249SOL    HW123594   0.716   9.654   6.413  0.2683  0.5443 -1.6295
 6249SOL    HW223595   0.602   9.635   6.316 -1.5958  0.7476  0.4353
 6250SOL     OW23596   2.328   0.457   4.294  0.0810  0.2170 -0.2177
 6250SOL    HW123597   2.292   0.438   4.380 -0.1062  0.8737 -0.1412
 6250SOL    HW223598   2.385   0.383   4.274 -0.0447 -0.0416  0.3755
 6251SOL     OW23599   2.253   8.223   5.146  0.3102 -0.4534 -0.3538
 6251SOL    HW123600   2.226   8.311   5.172  1.4063  0.1855 -1.2580
 6251SOL    HW223601   2.175   8.170   5.156  0.0193  0.2626  1.7360
 6252SOL     OW23602   2.817   0.481   3.778 -0.0633  0.7721 -0.1337
 6252SOL    HW123603   2.762   0.514   3.849  0.8852 -1.2235  1.6165
 6252SOL    HW223604   2.906   0.509   3.800 -0.0028  2.0148 -1.7453
 6253SOL     OW23605   1.182   9.626   4.845  0.5813  0.3896 -0.7002
 6253SOL    HW123606   1.236   9.588   4.776 -0.2943 -2.2019 -0.0598
 6253SOL    HW223607   1.140   9.702   4.804 -0.1878 -1.2614 -3.1424
 6254SOL     OW23608   3.874   2.055   7.511 -0.1090  0.5120  0.3515
 6254SOL    HW123609   3.789   2.097   7.497 -0.7557 -1.3705 -1.9973
 6254SOL    HW223610   3.866   2.013   7.597 -2.0351 -0.5730 -0.2978
 6255SOL     OW23611   4.249   8.680   3.382  0.6789  0.4573 -0.2680
 6255SOL    HW123612   4.338   8.701   3.410 -0.5943  2.2358  3.1297
 6255SOL    HW223613   4.258   8.641   3.295  4.7912 -0.3254  0.3503
 6256SOL     OW23614   3.462   0.696   4.866  0.1084 -0.4446 -0.4503
 6256SOL    HW123615   3.529   0.669   4.803 -0.2387 -2.2781 -0.0606
 6256SOL    HW223616   3.382   0.702   4.815  0.5434  2.0746 -0.9889
 6257SOL     OW23617   2.798   9.654   4.572  0.1894 -0.2028 -0.1642
 6257SOL    HW123618   2.805   9.747   4.550  0.7800 -0.4803 -1.2132
 6257SOL    HW223619   2.723   9.623   4.522  0.3463 -0.4174 -0.2685
 6258SOL     OW23620   5.582   0.372   7.012  0.2894  0.3781  0.4203
 6258SOL    HW123621   5.637   0.304   7.050  0.9914  1.3520  1.2083
 6258SOL    HW223622   5.554   0.336   6.928 -0.6351 -1.5026  1.4723
 6259SOL     OW23623   4.175   9.535   4.069 -0.2714 -0.5535 -0.0404
 6259SOL    HW123624   4.222   9.471   4.123 -1.1938  0.3428  1.9286
 6259SOL    HW223625   4.243   9.597   4.040  0.1034 -0.5076  0.9083
 6260SOL     OW23626   2.506   9.144   3.517 -0.4187 -0.2984 -0.3235
 6260SOL    HW123627   2.436   9.147   3.582 -0.1224  0.4959 -0.0329
 6260SOL    HW223628   2.586   9.158   3.567 -0.0853 -0.7810 -0.7134
 6261SOL     OW23629   3.742   9.022   2.983  0.5088  0.7445 -0.6073
 6261SOL    HW123630   3.650   9.023   3.009  0.3398  1.1530 -1.2074
 6261SOL    HW223631   3.751   9.096   2.923  1.3940  1.1636  0.0108
 6262SOL     OW23632   1.870   0.260   3.408  0.3013 -0.1493 -0.3274
 6262SOL    HW123633   1.801   0.304   3.358  0.0541  1.5892  1.4456
 6262SOL    HW223634   1.869   0.303   3.493  2.7525 -0.9500  0.1710
 6263SOL     OW23635   3.230   9.052   3.667  0.2340 -0.4789  0.5443
 6263SOL    HW123636   3.285   9.011   3.600 -1.1403  0.1910 -1.0629
 6263SOL    HW223637   3.203   9.136   3.629 -1.6445 -0.6467  1.3699
 6264SOL     OW23638   2.716   3.424   2.287 -0.4937 -0.0561 -0.5133
 6264SOL    HW123639   2.809   3.413   2.266 -0.1565 -0.3458  0.9609
 6264SOL    HW223640   2.700   3.362   2.358 -1.8126  0.0230 -0.7112
 6265SOL     OW23641   4.737   2.119   2.511 -0.5396  0.6345 -0.7347
 6265SOL    HW123642   4.766   2.032   2.482 -0.3688  0.7475 -0.9024
 6265SOL    HW223643   4.668   2.101   2.574 -0.1750  0.3599 -0.4046
 6266SOL     OW23644   1.091   0.412   4.044  0.1108  0.2871  0.3613
 6266SOL    HW123645   1.101   0.404   3.949  0.4568 -0.2011  0.4367
 6266SOL    HW223646   0.996   0.411   4.057  0.0657  0.0605  0.0433
 6267SOL     OW23647   1.489   0.455   6.162  0.0543  0.3219  0.0476
 6267SOL    HW123648   1.585   0.458   6.158 -0.0043  1.4219 -1.2140
 6267SOL    HW223649   1.463   0.420   6.077 -0.6329 -2.3731  1.2549
 6268SOL     OW23650   5.420   9.339   3.648 -0.0328 -0.1014  0.2432
 6268SOL    HW123651   5.429   9.367   3.558  0.5939 -2.0070 -0.3401
 6268SOL    HW223652   5.333   9.369   3.675 -0.4573 -0.0094 -1.1827
 6269SOL     OW23653   2.572   2.187   3.425 -0.5288  0.1517  0.0718
 6269SOL    HW123654   2.624   2.155   3.498 -2.4482 -1.5708  0.7699
 6269SOL    HW223655   2.529   2.265   3.459  1.3824  1.5189 -0.4726
 6270SOL     OW23656   0.935   0.260   5.024  0.3895 -0.7733  0.1390
 6270SOL    HW123657   0.870   0.290   4.961  0.6786 -0.8263 -0.1915
 6270SOL    HW223658   0.886   0.243   5.104 -0.0105 -0.8941 -0.1310
 6271SOL     OW23659   0.532   0.267   3.844  0.3164 -0.1341  0.5523
 6271SOL    HW123660   0.593   0.213   3.894  0.8548  0.2746  0.3471
 6271SOL    HW223661   0.446   0.239   3.874  0.6076 -0.5200  1.0546
 6272SOL     OW23662   2.155   9.655   4.336  0.6339  0.0505  0.5364
 6272SOL    HW123663   2.062   9.670   4.317  1.0501  0.8640 -0.9748
 6272SOL    HW223664   2.175   9.716   4.407  0.6748  1.9417 -1.0416
 6273SOL     OW23665   1.903   0.983   4.644 -0.7144  0.0455  0.0135
 6273SOL    HW123666   1.912   0.988   4.549 -0.0946 -1.3514 -0.0351
 6273SOL    HW223667   1.813   0.954   4.658 -2.1872  4.0436  0.0761
 6274SOL     OW23668   3.251   4.106   5.903 -0.8490 -0.6744  0.1765
 6274SOL    HW123669   3.334   4.150   5.886  0.2746 -2.8631 -0.4197
 6274SOL    HW223670   3.186   4.159   5.857  0.3906  0.4128 -0.3977
 6275SOL     OW23671   3.215   2.649   3.427  0.5436 -0.0399  0.6241
 6275SOL    HW123672   3.262   2.731   3.444 -1.2887  1.3807 -0.7255
 6275SOL    HW223673   3.197   2.613   3.513  3.0715 -0.0786  1.2109
 6276SOL     OW23674   4.871   0.359   4.833 -0.4164 -0.3756 -0.1158
 6276SOL    HW123675   4.877   0.424   4.903  0.1347 -0.8200  0.2715
 6276SOL    HW223676   4.841   0.407   4.756 -0.9392  0.1441  0.4003
 6277SOL     OW23677   0.391   9.725   6.081 -0.5639  1.0110  0.1065
 6277SOL    HW123678   0.304   9.687   6.092  0.5139 -1.6492  0.3647
 6277SOL    HW223679   0.385   9.779   6.002 -2.5174  1.2089  0.3582
 6278SOL     OW23680   2.950   1.058   4.348 -0.2357 -0.0691 -0.9632
 6278SOL    HW123681   3.038   1.023   4.362  0.3898  1.7869  0.0735
 6278SOL    HW223682   2.894   1.006   4.405  0.2459 -1.0148 -1.3425
 6279SOL     OW23683   3.887   1.766   7.132  0.3791 -0.1324  0.0587
 6279SOL    HW123684   3.902   1.674   7.109 -2.4685 -0.8729  0.8606
 6279SOL    HW223685   3.915   1.773   7.223 -2.2888 -1.0972  1.0360
 6280SOL     OW23686   2.061   9.043   1.944 -0.2813  0.2350  0.1677
 6280SOL    HW123687   2.079   8.992   2.023 -2.7455 -0.7659  0.1951
 6280SOL    HW223688   2.071   9.134   1.971  1.4293 -0.1350  0.8899
 6281SOL     OW23689   1.585   8.524   3.384  0.0781 -0.9138  0.0398
 6281SOL    HW123690   1.667   8.521   3.434  0.7580 -2.0436 -1.0555
 6281SOL    HW223691   1.516   8.531   3.450  0.9972 -1.1835  1.0585
 6282SOL     OW23692   1.357   0.597   5.309 -0.1358  0.2207  0.5079
 6282SOL    HW123693   1.408   0.627   5.234 -1.0764  1.0302  0.1679
 6282SOL    HW223694   1.316   0.516   5.280 -0.9513  0.8279 -0.0676
 6283SOL     OW23695   3.525   1.153   4.618  0.4137  0.0167  0.1181
 6283SOL    HW123696   3.525   1.057   4.620 -0.1044  0.0175  1.3939
 6283SOL    HW223697   3.610   1.177   4.655  1.0067  0.0595 -1.2440
 6284SOL     OW23698   3.170   2.697   5.413 -0.2775 -0.5526 -0.5868
 6284SOL    HW123699   3.122   2.772   5.446 -1.3510 -0.6293 -1.8798
 6284SOL    HW223700   3.164   2.631   5.482  1.0041  0.6322  0.7294
 6285SOL     OW23701   0.742   4.467   4.877  0.3720  0.5026 -0.4072
 6285SOL    HW123702   0.751   4.391   4.933 -1.4361  0.9390  0.5509
 6285SOL    HW223703   0.788   4.537   4.924  0.8300  0.3295 -0.5986
 6286SOL     OW23704   0.538   8.925   5.413  0.0793  0.6667 -0.4622
 6286SOL    HW123705   0.620   8.922   5.364  0.6921  0.7034  0.5229
 6286SOL    HW223706   0.564   8.949   5.502 -0.9506  0.2386 -0.0210
 6287SOL     OW23707   2.913   1.596   3.708 -0.2294  0.0294 -0.1887
 6287SOL    HW123708   2.937   1.643   3.629  2.0795  0.4620  0.7025
 6287SOL    HW223709   2.921   1.661   3.778  1.1740 -1.1833  0.8267
 6288SOL     OW23710   3.255   0.724   3.713  0.2216  0.1462  0.7190
 6288SOL    HW123711   3.190   0.730   3.642 -0.5529 -1.6737  1.2153
 6288SOL    HW223712   3.339   0.721   3.668 -0.3113 -2.5633 -0.3199
 6289SOL     OW23713   2.517   0.942   4.550 -0.0414  0.1258  0.0285
 6289SOL    HW123714   2.573   0.988   4.612  0.3487 -1.7958  1.1763
 6289SOL    HW223715   2.432   0.986   4.556  0.1226  0.2640  1.5902
 6290SOL     OW23716   1.435   0.641   6.356 -0.1113 -0.3236 -0.5506
 6290SOL    HW123717   1.455   0.567   6.299 -0.3896 -0.8935  0.0828
 6290SOL    HW223718   1.488   0.627   6.434  0.0924  0.3278 -0.5617
 6291SOL     OW23719   9.742   2.051   4.716 -0.0505 -0.1108  0.0134
 6291SOL    HW123720   9.713   2.062   4.626 -1.8030  2.0786  0.7476
 6291SOL    HW223721   9.680   1.989   4.755 -2.0699  2.1690  0.7325
 6292SOL     OW23722   1.877   1.573   5.039  0.4397 -0.4855  0.0915
 6292SOL    HW123723   1.884   1.617   5.124 -1.6178 -0.3211  0.2140
 6292SOL    HW223724   1.854   1.482   5.061 -2.9751  0.1648 -0.2320
 6293SOL     OW23725   4.140   1.435   3.885  0.2115 -0.0656 -0.4228
 6293SOL    HW123726   4.231   1.462   3.888  0.2514 -0.1033 -1.1153
 6293SOL    HW223727   4.091   1.515   3.905  0.4030 -0.2315  0.7928
 6294SOL     OW23728   4.420   2.923   5.504  0.2080 -0.1777  0.3937
 6294SOL    HW123729   4.467   3.004   5.517  0.1953  0.1567 -1.3678
 6294SOL    HW223730   4.413   2.914   5.409 -1.7039 -1.1180  0.5658
 6295SOL     OW23731   4.301   9.558   2.109  0.5741  0.3431 -0.7788
 6295SOL    HW123732   4.306   9.631   2.047  1.1579  0.6354 -0.3936
 6295SOL    HW223733   4.378   9.505   2.090 -0.0498 -0.4018 -1.3224
 6296SOL     OW23734   2.706   2.146   4.393  0.1183 -0.3746  0.2405
 6296SOL    HW123735   2.687   2.238   4.378  1.1163  0.0802  1.5333
 6296SOL    HW223736   2.695   2.104   4.308 -0.0791  0.9871 -0.4215
 6297SOL     OW23737   3.802   1.975   3.275 -0.0868  0.1759  0.5674
 6297SOL    HW123738   3.852   1.894   3.263 -0.3313  0.0996  0.0579
 6297SOL    HW223739   3.791   2.010   3.187 -2.9633 -1.0058  0.3732
 6298SOL     OW23740   3.103   0.555   3.507 -0.0166  0.3185  0.1245
 6298SOL    HW123741   3.135   0.582   3.421  1.5246  1.2540  0.9270
 6298SOL    HW223742   3.021   0.508   3.490 -1.0976  2.6799 -1.6353
 6299SOL     OW23743   1.645   1.912   5.891  0.0264 -0.3593 -0.9806
 6299SOL    HW123744   1.731   1.899   5.931  0.1810 -1.9678 -1.7383
 6299SOL    HW223745   1.614   1.823   5.871 -1.9256  0.1596 -0.5199
 6300SOL     OW23746   5.507   2.062   3.961  0.3021 -0.1360  0.1742
 6300SOL    HW123747   5.433   2.108   3.922  0.3590  0.1640  0.4144
 6300SOL    HW223748   5.516   2.099   4.049  1.3068  0.5044 -0.1748
 6301SOL     OW23749   2.590   0.753   5.828 -0.0054  0.9347  0.0213
 6301SOL    HW123750   2.560   0.662   5.823 -0.1091  0.9906 -0.3473
 6301SOL    HW223751   2.558   0.783   5.913 -2.0013  1.3415 -0.8247
 6302SOL     OW23752   1.908   0.011   5.687  0.1148 -0.2325  0.5111
 6302SOL    HW123753   1.899   0.038   5.779  0.1296 -0.3674  0.5521
 6302SOL    HW223754   1.821  -0.020   5.663 -0.5596  2.0771 -0.2586
 6303SOL     OW23755   3.484   0.520   6.080 -0.2014 -0.4221 -0.3895
 6303SOL    HW123756   3.567   0.472   6.070  0.1362 -0.4509  2.0037
 6303SOL    HW223757   3.451   0.529   5.990  1.6978 -1.6200 -1.2820
 6304SOL     OW23758   2.934   1.688   4.468 -0.0647  0.1574 -0.4010
 6304SOL    HW123759   2.902   1.737   4.544 -2.8040 -2.7267  0.5091
 6304SOL    HW223760   2.869   1.704   4.400 -0.5408 -1.4268 -0.3579
 6305SOL     OW23761   4.429   0.953   5.218 -0.1307  0.2569 -0.0654
 6305SOL    HW123762   4.412   1.021   5.283 -1.2742  0.3276 -0.4185
 6305SOL    HW223763   4.502   0.902   5.255  0.5866  1.5133  0.3034
 6306SOL     OW23764   2.751   8.080   4.109 -0.9210 -0.4120 -0.0863
 6306SOL    HW123765   2.755   7.985   4.105 -2.9533 -0.5164 -0.6724
 6306SOL    HW223766   2.787   8.102   4.195 -0.1908 -1.6688 -0.0477
 6307SOL     OW23767   0.745   9.111   4.588 -0.4433  0.1027  0.0997
 6307SOL    HW123768   0.725   9.018   4.583  0.9263 -0.2801  1.1448
 6307SOL    HW223769   0.828   9.120   4.540  0.2794  0.4773  1.3737
 6308SOL     OW23770   1.530   0.607   3.723 -0.2793 -0.4944  0.0435
 6308SOL    HW123771   1.556   0.696   3.698 -1.9473  0.0690  0.1370
 6308SOL    HW223772   1.461   0.584   3.660 -2.0548 -0.4624  1.8600
 6309SOL     OW23773   3.621   9.643   2.708  0.1416 -0.1615 -1.2287
 6309SOL    HW123774   3.644   9.729   2.673 -0.0702  0.8236  0.8933
 6309SOL    HW223775   3.659   9.641   2.796 -2.5213 -0.9117  0.0228
 6310SOL     OW23776   4.284   0.711   5.483  0.4494 -0.0780 -0.1941
 6310SOL    HW123777   4.340   0.778   5.522 -0.1177 -0.6261  1.6820
 6310SOL    HW223778   4.198   0.727   5.521  0.1152 -1.3578 -0.3734
 6311SOL     OW23779   1.827   1.909   5.091  0.3484 -0.0151  0.0829
 6311SOL    HW123780   1.848   1.996   5.124  0.1931  0.4884 -1.0910
 6311SOL    HW223781   1.781   1.866   5.163 -0.1748  1.1088  0.4387
 6312SOL     OW23782   2.101   0.960   5.304  0.3078  0.0616  0.0487
 6312SOL    HW123783   2.041   1.034   5.319 -1.4164 -1.1847 -0.3258
 6312SOL    HW223784   2.169   0.971   5.370 -0.7623  1.1252  1.0387
 6313SOL     OW23785   3.197   0.139   2.169 -0.8260 -0.1121  0.3652
 6313SOL    HW123786   3.137   0.087   2.117 -1.1781  0.4087  0.2476
 6313SOL    HW223787   3.142   0.180   2.236 -0.2407 -1.6006  1.8372
 6314SOL     OW23788   3.032   9.374   4.833  0.0427 -0.8450  0.5300
 6314SOL    HW123789   3.036   9.428   4.754 -1.7745  0.3068  1.1624
 6314SOL    HW223790   3.020   9.285   4.800  3.5246 -1.0402 -0.5423
 6315SOL     OW23791   5.932   1.119   3.797  0.3796 -0.0870  0.4020
 6315SOL    HW123792   6.024   1.092   3.804  0.2256 -0.2583  3.0561
 6315SOL    HW223793   5.934   1.214   3.803  0.3653 -0.1488  1.7865
 6316SOL     OW23794   3.853   9.806   4.741  0.3136 -0.0391 -0.1872
 6316SOL    HW123795   3.864   9.900   4.756 -0.3749  0.0375 -0.1249
 6316SOL    HW223796   3.932   9.767   4.778 -0.3359  0.3369  1.7580
 6317SOL     OW23797   2.025   1.954   2.036  0.2276  0.6248  0.0196
 6317SOL    HW123798   1.964   1.934   2.107 -0.1904 -1.3112 -0.8150
 6317SOL    HW223799   2.088   1.881   2.037  0.1095  0.4676 -1.6799
 6318SOL     OW23800   2.714   0.700   2.007  0.4799 -0.4915  0.8092
 6318SOL    HW123801   2.653   0.688   1.935  1.4633 -1.4997  0.1155
 6318SOL    HW223802   2.794   0.656   1.979 -0.2865 -4.6401  4.0960
 6319SOL     OW23803   4.217   1.623   6.126  0.5865  0.3171 -0.0785
 6319SOL    HW123804   4.281   1.589   6.063 -0.7006  0.7127 -1.7017
 6319SOL    HW223805   4.192   1.547   6.178 -0.5050 -0.8061 -2.0885
 6320SOL     OW23806   4.179   0.792   3.651  0.1257 -0.6413 -0.0660
 6320SOL    HW123807   4.169   0.784   3.746 -1.4287  0.3930 -0.0946
 6320SOL    HW223808   4.161   0.705   3.617  1.0210 -1.0974  0.6001
 6321SOL     OW23809   2.789   1.960   3.520 -0.3627  0.2735  0.4697
 6321SOL    HW123810   2.730   1.885   3.519  0.1847 -0.1766  0.9568
 6321SOL    HW223811   2.838   1.952   3.437 -1.9772  1.4898 -0.6612
 6322SOL     OW23812   9.841   2.451   4.858 -0.1410 -0.2032  0.6517
 6322SOL    HW123813   9.859   2.509   4.784 -1.5614  0.0237  0.4574
 6322SOL    HW223814   9.878   2.495   4.934  0.1502  0.2017  0.2769
 6323SOL     OW23815   3.775   4.021   4.714 -0.2480 -0.3701  0.4894
 6323SOL    HW123816   3.684   4.023   4.683  0.4398 -1.1049 -1.7104
 6323SOL    HW223817   3.828   4.032   4.635  1.6170 -1.1194  1.5713
 6324SOL     OW23818   1.715   0.874   4.351  0.1261  0.0842  0.2961
 6324SOL    HW123819   1.665   0.945   4.390 -0.8951  1.3362 -2.9777
 6324SOL    HW223820   1.653   0.830   4.292  0.9279 -3.1411  1.6153
 6325SOL     OW23821   0.691   2.221   5.993  0.0139 -0.7593  0.6347
 6325SOL    HW123822   0.753   2.213   6.065  0.1102 -2.1298  0.4278
 6325SOL    HW223823   0.735   2.180   5.918 -0.7900 -0.9867  0.2716
 6326SOL     OW23824   2.666   3.308   6.609  0.7318 -0.2997  0.2268
 6326SOL    HW123825   2.748   3.285   6.567 -0.0168 -0.8877 -0.9765
 6326SOL    HW223826   2.598   3.282   6.546 -0.5150 -2.2461  2.2208
 6327SOL     OW23827   3.080   1.057   2.086  0.1754  0.4111  0.4241
 6327SOL    HW123828   3.110   1.053   1.996 -2.8428  0.2475 -0.6893
 6327SOL    HW223829   3.037   0.973   2.101 -0.4035  0.8877  1.6073
 6328SOL     OW23830   3.601   2.133   4.263  0.8079 -0.2285 -0.3899
 6328SOL    HW123831   3.627   2.085   4.185  0.5290  0.7178 -1.0798
 6328SOL    HW223832   3.509   2.108   4.277  1.4129 -2.0248  0.8976
 6329SOL     OW23833   3.374   9.558   5.364  0.0826 -0.7768 -1.0508
 6329SOL    HW123834   3.444   9.496   5.385 -1.3393 -1.4299  2.5654
 6329SOL    HW223835   3.406   9.642   5.395 -0.1890 -0.8384 -0.5860
 6330SOL     OW23836   4.569   9.515   5.621  0.0589  0.3417  0.3822
 6330SOL    HW123837   4.612   9.434   5.650 -3.1499 -0.4501  3.7637
 6330SOL    HW223838   4.640   9.576   5.604  2.5482 -2.2482  0.7837
 6331SOL     OW23839   0.544   1.574   3.294  0.3545  0.0000  0.1688
 6331SOL    HW123840   0.462   1.546   3.254  0.4499 -1.3003  0.8302
 6331SOL    HW223841   0.518   1.620   3.373  0.1535  2.7864 -1.3842
 6332SOL     OW23842   4.521   9.264   5.394  0.2538  0.3868  0.3932
 6332SOL    HW123843   4.575   9.324   5.445 -0.0647 -0.9058  2.3463
 6332SOL    HW223844   4.535   9.179   5.435  0.4652 -0.8634 -2.1174
 6333SOL     OW23845   1.334   0.027   4.674 -0.0620  0.0090 -0.1007
 6333SOL    HW123846   1.366   0.010   4.763  0.9233  1.3434 -0.1669
 6333SOL    HW223847   1.275   0.102   4.684  0.8601  0.8339 -0.6951
 6334SOL     OW23848   9.093   1.064   6.652 -0.0905 -0.2995 -0.3457
 6334SOL    HW123849   9.149   1.086   6.726 -0.4237  1.7516 -0.6439
 6334SOL    HW223850   9.028   1.004   6.688 -1.2979  1.9597  1.5415
 6335SOL     OW23851   3.473   9.646   4.452  0.0995 -0.6023 -0.0355
 6335SOL    HW123852   3.562   9.661   4.485 -0.1387 -0.3247  0.5016
 6335SOL    HW223853   3.418   9.700   4.508 -0.3412 -0.2450 -0.7917
 6336SOL     OW23854   1.972   0.442   4.021 -0.0221 -0.4694 -0.0866
 6336SOL    HW123855   1.947   0.466   3.932 -0.6192 -1.8140 -0.3121
 6336SOL    HW223856   1.889   0.442   4.070  0.4676  1.6188  0.8453
 6337SOL     OW23857   2.826   0.333   5.641  0.0577  0.4029  0.5891
 6337SOL    HW123858   2.823   0.372   5.553  3.1848 -0.1261  0.1148
 6337SOL    HW223859   2.846   0.406   5.699 -1.3379  0.6396  0.7971
 6338SOL     OW23860   0.459   0.417   6.617  0.4401 -0.1716  0.2706
 6338SOL    HW123861   0.421   0.415   6.529 -1.1352  1.4075  0.8593
 6338SOL    HW223862   0.471   0.510   6.635  2.5043 -0.5427  1.0322
 6339SOL     OW23863   3.035   0.183   5.749  0.0864 -0.3157  0.1842
 6339SOL    HW123864   2.972   0.233   5.697 -1.2181 -1.2165  0.8272
 6339SOL    HW223865   2.995   0.096   5.758  1.8596 -1.2173 -0.1401
 6340SOL     OW23866   0.730   1.574   8.079  0.1045 -0.1091  0.1390
 6340SOL    HW123867   0.639   1.602   8.069 -0.1380 -1.1396 -0.7675
 6340SOL    HW223868   0.727   1.479   8.064  1.1256 -0.3744  1.4886
 6341SOL     OW23869   2.307   4.152   5.525 -0.1422  0.1573  0.4343
 6341SOL    HW123870   2.250   4.090   5.481  0.0329 -0.5559  1.1800
 6341SOL    HW223871   2.311   4.121   5.615  0.9494  0.5327  0.5301
 6342SOL     OW23872   2.989   0.366   6.625 -0.2167  0.1840  0.6376
 6342SOL    HW123873   2.911   0.312   6.640  0.5961 -1.0330  0.5690
 6342SOL    HW223874   2.976   0.401   6.537 -0.2247 -0.8349  0.2168
 6343SOL     OW23875   4.050   1.115   5.657  0.1760 -0.6792  0.4742
 6343SOL    HW123876   4.064   1.054   5.730  1.4038  1.0013  1.7339
 6343SOL    HW223877   4.077   1.200   5.692 -1.5330  0.6292 -1.1812
 6344SOL     OW23878   2.383   0.900   8.176 -0.0258  0.1213  0.4064
 6344SOL    HW123879   2.466   0.946   8.186 -0.6441  1.3933 -0.0473
 6344SOL    HW223880   2.359   0.912   8.084  0.0630 -1.6485  0.1108
 6345SOL     OW23881   4.819   0.071   7.663 -0.2476 -0.4344  0.6167
 6345SOL    HW123882   4.746   0.087   7.604 -2.5841 -1.3160  3.0820
 6345SOL    HW223883   4.874   0.008   7.616 -1.0684  0.1565 -1.2471
 6346SOL     OW23884   2.551   1.049   5.497  0.0882 -0.7840  0.2865
 6346SOL    HW123885   2.493   1.125   5.504 -0.3697 -1.0838 -0.1917
 6346SOL    HW223886   2.578   1.048   5.405  2.2296  0.3427  0.8513
 6347SOL     OW23887   4.464   9.641   4.110  0.2927  0.6904 -0.3777
 6347SOL    HW123888   4.440   9.732   4.096  1.7761  1.3481  1.1024
 6347SOL    HW223889   4.432   9.621   4.199  1.4955  0.3174 -0.0169
 6348SOL     OW23890   2.618   2.204   8.583  0.1736 -0.1525  0.7573
 6348SOL    HW123891   2.624   2.212   8.678 -1.2231  1.0079  0.7762
 6348SOL    HW223892   2.594   2.113   8.568 -1.8775  0.1878  1.6787
 6349SOL     OW23893   0.286   0.300   7.914 -0.2146 -0.3583 -0.3853
 6349SOL    HW123894   0.234   0.235   7.963 -1.2679  0.2974 -0.5932
 6349SOL    HW223895   0.286   0.267   7.824 -0.4187 -0.2785 -0.4158
 6350SOL     OW23896   5.104   0.346   5.087  0.5076  0.1306 -0.9415
 6350SOL    HW123897   5.103   0.407   5.161  2.1355 -0.8292 -0.0650
 6350SOL    HW223898   5.013   0.341   5.059 -0.1990  0.3723  1.1385
 6351SOL     OW23899   2.854   1.740   6.949 -0.1917  0.2233  0.1766
 6351SOL    HW123900   2.886   1.713   6.863  1.6653  0.5656  0.7040
 6351SOL    HW223901   2.796   1.670   6.977  0.7446 -0.8632 -0.5287
 6352SOL     OW23902   2.901   2.086   8.241  0.7345 -0.1578 -0.5891
 6352SOL    HW123903   2.815   2.044   8.245  1.3630 -1.4072  0.6032
 6352SOL    HW223904   2.886   2.174   8.274  0.2426 -1.0135  1.6544
 6353SOL     OW23905   2.617   9.086   7.835 -0.1441 -0.0158 -0.5355
 6353SOL    HW123906   2.581   8.998   7.825 -0.6533  0.1212  0.0174
 6353SOL    HW223907   2.655   9.088   7.922 -0.0320  0.2758 -0.5880
 6354SOL     OW23908   0.239   1.537   6.977 -0.2225 -0.1383 -0.6466
 6354SOL    HW123909   0.182   1.463   6.997  0.8520 -0.3960  1.8517
 6354SOL    HW223910   0.223   1.599   7.048  1.3555  0.5160 -0.8278
 6355SOL     OW23911   4.162   2.292   5.822  0.3172  0.0655  0.4371
 6355SOL    HW123912   4.198   2.235   5.890 -0.7111 -0.6119  0.4379
 6355SOL    HW223913   4.067   2.287   5.834  0.1674  0.8956 -0.2836
 6356SOL     OW23914   1.001   0.674   6.816 -0.1559 -0.7231 -0.2867
 6356SOL    HW123915   0.989   0.610   6.746  1.7902 -1.1228 -0.3246
 6356SOL    HW223916   1.010   0.758   6.771 -4.0263 -0.0708 -0.1782
 6357SOL     OW23917   2.246   8.198   6.251 -0.0455 -0.4087 -0.4411
 6357SOL    HW123918   2.238   8.193   6.155 -0.6204  2.4709 -0.6299
 6357SOL    HW223919   2.156   8.206   6.282  0.1708 -0.7987  0.2982
 6358SOL     OW23920   1.755   0.337   6.254 -0.4388 -0.3314  0.2254
 6358SOL    HW123921   1.844   0.302   6.264 -0.5779 -0.2394  1.9638
 6358SOL    HW223922   1.739   0.332   6.160  1.1349 -1.0178 -0.0465
 6359SOL     OW23923   3.920   2.710   7.311  0.1512 -0.0812 -0.0561
 6359SOL    HW123924   3.894   2.799   7.334  1.0853  0.2232 -0.1231
 6359SOL    HW223925   3.921   2.663   7.395 -0.8807 -0.1922 -0.0885
 6360SOL     OW23926   1.550   1.314   6.237  0.1586 -0.0346 -0.2282
 6360SOL    HW123927   1.464   1.285   6.267  0.5906  0.0053  1.1183
 6360SOL    HW223928   1.589   1.358   6.313  1.2964  0.0995 -0.8612
 6361SOL     OW23929   3.564   0.525   4.143  0.6275  0.7469  0.8058
 6361SOL    HW123930   3.641   0.569   4.179  1.6576  0.6850 -1.1762
 6361SOL    HW223931   3.514   0.596   4.103  1.2979  0.4231 -0.6717
 6362SOL     OW23932   4.151   0.013   5.934  0.0705 -0.3995  0.0487
 6362SOL    HW123933   4.157   0.071   6.010 -1.1012  0.8065 -0.7498
 6362SOL    HW223934   4.207   0.054   5.868  1.7475 -1.8751  0.4771
 6363SOL     OW23935   2.812   0.774   7.875  0.3757 -0.0096  0.1728
 6363SOL    HW123936   2.860   0.692   7.884  0.6781  0.2548  1.1276
 6363SOL    HW223937   2.872   0.841   7.908 -0.3281  0.4351  0.5819
 6364SOL     OW23938   3.201   1.602   4.509  0.7732  0.5396 -0.1799
 6364SOL    HW123939   3.218   1.599   4.603  1.0218  0.4782 -0.2272
 6364SOL    HW223940   3.113   1.639   4.502  0.6469  0.2927  0.0889
 6365SOL     OW23941   4.124   8.274   6.965  0.1190  0.6343  0.4695
 6365SOL    HW123942   4.054   8.320   7.010 -0.2490  0.8943 -0.3595
 6365SOL    HW223943   4.082   8.197   6.927  0.5266  0.1501  0.9714
 6366SOL     OW23944   1.905   0.600   6.986 -0.2114  0.4180 -0.5464
 6366SOL    HW123945   1.832   0.576   6.929 -1.3341  0.9097  0.6261
 6366SOL    HW223946   1.905   0.532   7.054 -0.4702  1.1822  0.2256
 6367SOL     OW23947   2.364   1.322   6.878 -0.2990 -0.1751 -0.1885
 6367SOL    HW123948   2.352   1.417   6.883 -0.0939 -0.1581  0.0292
 6367SOL    HW223949   2.296   1.286   6.934  0.0256 -0.1245  0.2485
 6368SOL     OW23950   4.181   7.472   5.772  0.5698 -0.1612  0.0116
 6368SOL    HW123951   4.096   7.454   5.812  0.7367  0.7705  0.8276
 6368SOL    HW223952   4.238   7.496   5.846  1.7240 -1.3567 -0.4391
 6369SOL     OW23953   2.876   0.031   7.678  0.1236 -0.3914 -0.1083
 6369SOL    HW123954   2.907   0.077   7.756  1.0946  0.2964 -0.8772
 6369SOL    HW223955   2.830  -0.046   7.712 -1.3058  0.9615  1.2198
 6370SOL     OW23956   2.616   2.230   5.143  0.0316  0.2808  0.4773
 6370SOL    HW123957   2.660   2.307   5.106  1.6063 -0.8602 -0.1322
 6370SOL    HW223958   2.603   2.252   5.235  0.5883  1.2144  0.3486
 6371SOL     OW23959   3.987   0.559   5.418 -0.5618  0.1639  0.4628
 6371SOL    HW123960   4.007   0.572   5.325 -1.5689 -3.3294 -0.4300
 6371SOL    HW223961   3.905   0.607   5.432 -1.4267 -0.7594 -1.0509
 6372SOL     OW23962   1.052   1.234   5.288  0.1430 -0.4632  0.5989
 6372SOL    HW123963   1.027   1.280   5.208 -0.0418 -0.5173  0.6247
 6372SOL    HW223964   0.979   1.174   5.305  0.4997 -0.9647  0.4103
 6373SOL     OW23965   4.519   1.543   4.123  0.2032  0.3679 -0.3618
 6373SOL    HW123966   4.478   1.561   4.039 -0.0846  2.5624  0.2020
 6373SOL    HW223967   4.606   1.582   4.117  0.2242  0.4459  0.3061
 6374SOL     OW23968   3.158   2.284   6.193 -0.0383  0.1673 -0.6039
 6374SOL    HW123969   3.094   2.273   6.263 -0.5642  0.0623 -1.0917
 6374SOL    HW223970   3.167   2.197   6.154  0.6516  0.1098 -0.3355
 6375SOL     OW23971   4.292   1.646   6.938  0.0816  0.1800 -0.1398
 6375SOL    HW123972   4.202   1.647   6.907 -0.5905  0.8108  1.7003
 6375SOL    HW223973   4.342   1.690   6.870 -1.6455  3.5104  0.5592
 6376SOL     OW23974   3.272   0.453   8.016  0.1379 -0.6339  0.3502
 6376SOL    HW123975   3.222   0.518   8.065  0.3738 -0.5308  0.4559
 6376SOL    HW223976   3.206   0.401   7.971 -0.1067 -1.0577  1.1820
 6377SOL     OW23977   2.956   0.547   8.342 -0.0472 -0.2644 -0.3075
 6377SOL    HW123978   3.027   0.484   8.340 -0.5863 -0.9699  1.1179
 6377SOL    HW223979   2.994   0.625   8.383 -0.4709 -1.2202  2.0356
 6378SOL     OW23980   3.646   8.587   5.827 -0.1484  0.1124 -1.1078
 6378SOL    HW123981   3.708   8.637   5.775 -0.3609  1.3836 -0.1891
 6378SOL    HW223982   3.560   8.619   5.800 -0.2943  0.0688 -0.7105
 6379SOL     OW23983   1.895   2.888   5.524 -0.4906 -0.0595 -0.3354
 6379SOL    HW123984   1.927   2.978   5.526 -0.6146 -0.0080  1.3438
 6379SOL    HW223985   1.800   2.896   5.539 -0.2422 -0.5105  1.8642
 6380SOL     OW23986   3.350   1.040   5.986  0.3043 -0.2434  0.1131
 6380SOL    HW123987   3.329   0.948   5.974 -1.0465  0.1593 -0.9023
 6380SOL    HW223988   3.266   1.081   6.008  0.4578  1.0529 -1.5003
 6381SOL     OW23989   4.270   1.283   7.332 -0.2936  0.1558 -0.2348
 6381SOL    HW123990   4.355   1.291   7.374  0.0354  0.0358 -0.8663
 6381SOL    HW223991   4.208   1.321   7.395  0.4870  2.2759 -0.6695
 6382SOL     OW23992   2.204   0.821   5.927 -0.7461 -0.1716  0.4445
 6382SOL    HW123993   2.154   0.812   6.008  1.0070 -1.6616  1.4371
 6382SOL    HW223994   2.223   0.731   5.901  1.9261  0.3041  0.5008
 6383SOL     OW23995   3.602   1.846   5.856  0.0127  0.1258 -0.2658
 6383SOL    HW123996   3.665   1.816   5.921 -0.6032 -1.8129 -0.5085
 6383SOL    HW223997   3.654   1.862   5.778  0.7029  2.0992  0.5349
 6384SOL     OW23998   3.630   0.259   4.054 -0.0089  0.2190 -0.5584
 6384SOL    HW123999   3.592   0.199   4.119  1.1363 -1.5309 -1.4026
 6384SOL    HW224000   3.636   0.343   4.099 -1.7049 -0.2676  0.6919
 6385SOL     OW24001   2.803   1.611   4.985  0.1035 -0.2908 -0.1594
 6385SOL    HW124002   2.748   1.654   4.919  1.6232  0.0979 -1.2468
 6385SOL    HW224003   2.802   1.518   4.961  2.1211  0.0551 -1.9984
 6386SOL     OW24004   2.556   9.817   7.021  0.2453  0.1318 -0.2882
 6386SOL    HW124005   2.498   9.876   7.067  0.6979  1.0555 -0.8686
 6386SOL    HW224006   2.640   9.825   7.066  0.2930 -0.1324 -0.3255
 6387SOL     OW24007   4.835   4.342   8.818  0.7156 -0.3121  0.4260
 6387SOL    HW124008   4.750   4.385   8.826  0.5669 -0.6039  0.4360
 6387SOL    HW224009   4.897   4.405   8.855  0.6923  0.4767 -0.8316
 6388SOL     OW24010   5.303   2.155   3.786 -0.5385  0.6993 -0.3142
 6388SOL    HW124011   5.319   2.095   3.712 -1.0161 -0.3638  0.4245
 6388SOL    HW224012   5.209   2.173   3.782 -0.7681 -0.1814  0.6129
 6389SOL     OW24013   0.311   0.860   5.576  0.1832 -0.4094 -0.1620
 6389SOL    HW124014   0.398   0.821   5.581  0.3814  0.1998  1.5242
 6389SOL    HW224015   0.268   0.836   5.658 -0.0909  1.8986  0.4338
 6390SOL     OW24016   4.925   2.388   6.882  0.1852 -0.1490 -0.3681
 6390SOL    HW124017   4.973   2.443   6.943  1.0831 -1.5889  0.2883
 6390SOL    HW224018   4.991   2.330   6.843 -0.6145 -0.3239 -1.5315
 6391SOL     OW24019   4.083   0.447   3.274  0.1213 -0.6710  0.0206
 6391SOL    HW124020   4.137   0.511   3.228 -0.0226 -0.0270  0.7286
 6391SOL    HW224021   4.115   0.447   3.364 -1.4389  0.2026  0.6234
 6392SOL     OW24022   4.403   2.546   7.508  0.5122 -0.1311 -0.6501
 6392SOL    HW124023   4.397   2.492   7.429  1.6471 -1.0114 -0.1704
 6392SOL    HW224024   4.431   2.632   7.476 -0.4830 -0.0374 -1.3366
 6393SOL     OW24025   3.702   2.254   5.215 -0.0110 -0.4033  0.6517
 6393SOL    HW124026   3.703   2.192   5.143 -1.5492 -0.5549  0.7405
 6393SOL    HW224027   3.740   2.334   5.179 -2.3735  0.0999 -0.8962
 6394SOL     OW24028   2.443   2.141   6.991 -0.7272  0.3047 -0.2489
 6394SOL    HW124029   2.461   2.155   6.898 -0.3797 -0.5755 -0.3322
 6394SOL    HW224030   2.358   2.097   6.992 -1.0678  0.9644 -0.1022
 6395SOL     OW24031   2.569   1.963   5.717 -0.2042  0.2899  0.3306
 6395SOL    HW124032   2.617   1.880   5.714 -0.2833  0.2662 -0.3943
 6395SOL    HW224033   2.583   1.995   5.806  0.4192 -0.1508  0.4003
 6396SOL     OW24034   6.312   2.652   6.266  0.1399  0.2483 -0.1217
 6396SOL    HW124035   6.307   2.739   6.227 -0.5389 -0.0858 -0.7917
 6396SOL    HW224036   6.400   2.621   6.244  0.0229  0.3576 -0.7506
 6397SOL     OW24037   5.797   0.059   7.848 -0.4995  0.0508 -0.2272
 6397SOL    HW124038   5.862  -0.005   7.878 -1.6439 -0.1079  2.0967
 6397SOL    HW224039   5.772   0.028   7.761  0.4378 -1.5010  0.0112
 6398SOL     OW24040   2.945   0.325   4.194 -0.6989  0.3633  0.0616
 6398SOL    HW124041   2.954   0.239   4.236  0.3017  0.5526  0.2545
 6398SOL    HW224042   2.864   0.318   4.143 -0.2837 -0.9355 -0.4691
 6399SOL     OW24043   1.137   9.818   7.492  0.2045 -0.2008 -0.4013
 6399SOL    HW124044   1.170   9.898   7.531  2.4056 -1.6182  0.8373
 6399SOL    HW224045   1.208   9.786   7.437 -1.1371 -0.6652 -1.9695
 6400SOL     OW24046   2.600   1.567   4.120 -0.3515  0.4616  0.5235
 6400SOL    HW124047   2.506   1.558   4.140 -0.2701 -2.0753  0.0415
 6400SOL    HW224048   2.604   1.572   4.025  0.0601 -0.7551  0.4637
 6401SOL     OW24049   4.015   3.869   6.135 -0.3360 -0.2103 -0.9156
 6401SOL    HW124050   4.023   3.956   6.174  2.0868  0.3061 -2.4190
 6401SOL    HW224051   4.049   3.810   6.202 -0.6664  0.1316 -0.4375
 6402SOL     OW24052   2.888   2.026   5.799  0.6307 -0.1629 -0.1630
 6402SOL    HW124053   2.873   2.100   5.858 -0.4362 -0.3445 -0.1900
 6402SOL    HW224054   2.951   1.970   5.846  0.8932  0.3955  0.1650
 6403SOL     OW24055   2.239   1.141   5.551 -0.0588 -0.4808 -0.1894
 6403SOL    HW124056   2.241   1.053   5.588  1.0380 -0.4589 -0.1451
 6403SOL    HW224057   2.194   1.194   5.617 -0.8495 -1.0279 -0.2785
 6404SOL     OW24058   4.095   8.835   7.886 -0.2949 -0.1084  0.7140
 6404SOL    HW124059   4.009   8.870   7.861 -0.6914 -0.0133  2.0908
 6404SOL    HW224060   4.158   8.893   7.843 -0.9078 -0.1498 -0.2769
 6405SOL     OW24061   1.849   8.940   5.592  0.5210 -0.2026  0.1789
 6405SOL    HW124062   1.759   8.939   5.560  0.1380 -0.0823  1.2055
 6405SOL    HW224063   1.892   9.008   5.541 -0.6502  1.5468  1.3802
 6406SOL     OW24064   3.124   9.571   5.531  0.0329 -0.3310 -0.4170
 6406SOL    HW124065   3.215   9.590   5.507 -0.1392  1.1760  0.0171
 6406SOL    HW224066   3.124   9.478   5.551  1.2043 -0.6269 -1.6333
 6407SOL     OW24067   1.607   2.119   7.858  0.3859  0.1165 -0.3308
 6407SOL    HW124068   1.701   2.118   7.841  0.3187 -0.6525 -0.7398
 6407SOL    HW224069   1.581   2.027   7.848 -0.2065  0.1329  0.9399
 6408SOL     OW24070   3.397   2.124   6.624 -0.2448  0.1739  0.2644
 6408SOL    HW124071   3.419   2.032   6.640 -1.0781 -0.1474 -0.3963
 6408SOL    HW224072   3.315   2.138   6.672 -1.1953  0.0082 -1.2541
 6409SOL     OW24073   2.874   0.186   2.867  0.6123  0.5429  0.6277
 6409SOL    HW124074   2.879   0.271   2.912  0.9050  0.8713 -0.0054
 6409SOL    HW224075   2.959   0.178   2.822  0.3282  0.2264  0.1403
 6410SOL     OW24076   4.617   0.369   3.044 -0.1352 -0.0253 -0.0278
 6410SOL    HW124077   4.669   0.433   3.094 -0.8045  0.2573  0.3213
 6410SOL    HW224078   4.588   0.418   2.967 -2.5046  0.8304  1.3088
 6411SOL     OW24079   1.665   2.665   5.609  0.2714  0.2755 -0.0103
 6411SOL    HW124080   1.657   2.759   5.624  0.7075  0.8839 -2.9571
 6411SOL    HW224081   1.602   2.646   5.539  2.0059 -1.0674 -1.3124
 6412SOL     OW24082   3.567   1.667   7.948 -0.0832 -0.0214 -0.3139
 6412SOL    HW124083   3.486   1.660   7.999  0.2875 -1.2516  0.1399
 6412SOL    HW224084   3.565   1.591   7.890  0.2388  0.5322 -1.0649
 6413SOL     OW24085   2.334   4.205   4.601 -0.0070 -0.0002 -0.0993
 6413SOL    HW124086   2.251   4.221   4.556 -1.8502 -2.4187  2.1544
 6413SOL    HW224087   2.320   4.236   4.690  1.6107 -0.2777  0.2796
 6414SOL     OW24088   5.785   1.170   4.879 -0.1422  0.2685 -0.3893
 6414SOL    HW124089   5.797   1.150   4.972  0.7710  2.0131 -0.0840
 6414SOL    HW224090   5.836   1.104   4.833  0.1857 -0.0330  0.3896
 6415SOL     OW24091   3.107   1.119   6.126  0.8574  0.3106 -0.0930
 6415SOL    HW124092   3.030   1.099   6.074  0.6349  0.3397  0.2215
 6415SOL    HW224093   3.073   1.159   6.206  1.1640 -0.1393  0.2696
 6416SOL     OW24094   2.174   0.293   3.941 -0.2682  0.2906 -0.3695
 6416SOL    HW124095   2.115   0.362   3.972 -0.8064 -0.5878  0.6015
 6416SOL    HW224096   2.154   0.217   3.996  0.9964 -0.3600 -0.7684
 6417SOL     OW24097   5.597   1.545   6.650 -0.3603 -1.0129  0.5180
 6417SOL    HW124098   5.604   1.638   6.672 -0.3014 -0.5847 -1.1771
 6417SOL    HW224099   5.669   1.530   6.588 -2.2002 -1.4077 -1.6475
 6418SOL     OW24100   4.350   2.568   5.595  0.6307 -0.3773  0.1610
 6418SOL    HW124101   4.368   2.574   5.501 -1.2696 -1.3632 -0.3242
 6418SOL    HW224102   4.395   2.644   5.633  1.0795  0.2959 -1.6070
 6419SOL     OW24103   3.292   1.346   7.774  0.1309 -0.1514 -0.3795
 6419SOL    HW124104   3.237   1.383   7.705  0.1454 -1.2739 -1.0172
 6419SOL    HW224105   3.238   1.276   7.812  0.1845  0.3506  0.6594
 6420SOL     OW24106   2.560   3.522   7.816 -0.4210 -0.3017  0.3387
 6420SOL    HW124107   2.548   3.452   7.752  0.0199 -0.6045  0.5763
 6420SOL    HW224108   2.653   3.516   7.841  0.0263  1.3566 -0.7800
 6421SOL     OW24109   2.852   3.744   8.682 -0.4010  0.4417  0.0308
 6421SOL    HW124110   2.844   3.812   8.749  0.3782 -0.1206  0.7106
 6421SOL    HW224111   2.929   3.769   8.632 -0.9140  0.7965 -0.6005
 6422SOL     OW24112   2.068   1.101   6.980  0.2833  0.7947  0.1235
 6422SOL    HW124113   2.110   1.099   6.894  1.1375  0.3117  0.5408
 6422SOL    HW224114   1.978   1.127   6.962  0.3623  0.3791 -0.9588
 6423SOL     OW24115   2.381   2.888   6.312  0.0390  0.1232  0.4935
 6423SOL    HW124116   2.397   2.817   6.374  0.7333  0.6363  0.9221
 6423SOL    HW224117   2.362   2.844   6.230  0.6665 -0.5631  0.7008
 6424SOL     OW24118   3.269   3.019   6.903  0.7846 -0.5466  0.4886
 6424SOL    HW124119   3.224   3.054   6.826  0.6992 -1.6372  0.0271
 6424SOL    HW224120   3.199   2.984   6.958  0.8036  0.6610  1.3031
 6425SOL     OW24121   3.418   0.607   8.216 -0.3561 -0.3148 -0.6568
 6425SOL    HW124122   3.439   0.549   8.143 -0.0785  0.0933 -0.9068
 6425SOL    HW224123   3.354   0.558   8.268 -0.1129 -0.8477 -0.8506
 6426SOL     OW24124   2.551   9.810   4.772  0.3628 -0.8826  0.1582
 6426SOL    HW124125   2.637   9.845   4.748  0.1241  0.6193  1.3216
 6426SOL    HW224126   2.504   9.886   4.807 -1.1336 -1.8644  0.3267
 6427SOL     OW24127   2.083   1.357   7.094  0.0111  0.4220  0.4060
 6427SOL    HW124128   2.070   1.268   7.062  0.5805 -0.3424  2.1919
 6427SOL    HW224129   2.013   1.407   7.054 -1.2670 -1.1569  0.5692
 6428SOL     OW24130   4.190   0.389   6.374  0.0013  0.2158  0.7143
 6428SOL    HW124131   4.280   0.371   6.401  0.0630 -0.7609 -0.0535
 6428SOL    HW224132   4.136   0.345   6.440  0.1141 -0.0482  0.6347
 6429SOL     OW24133   2.728   2.371   5.357  0.5441 -0.5684 -0.1933
 6429SOL    HW124134   2.709   2.286   5.398 -0.5710 -1.1196 -1.7645
 6429SOL    HW224135   2.780   2.417   5.423  0.7227 -2.2490  0.9326
 6430SOL     OW24136   5.159   3.493   4.031  0.3325 -0.3600 -0.5266
 6430SOL    HW124137   5.218   3.532   3.967 -1.6978  0.5392 -1.9878
 6430SOL    HW224138   5.136   3.408   3.994  1.1853 -0.9813  0.3502
 6431SOL     OW24139   3.171   1.020   5.222 -0.0001  0.5482  0.2020
 6431SOL    HW124140   3.158   1.047   5.313  0.2172  0.0125  0.3959
 6431SOL    HW224141   3.195   0.927   5.228 -0.1548  0.4677 -0.4123
 6432SOL     OW24142   3.616   3.883   5.576  0.4454 -0.1786  0.7768
 6432SOL    HW124143   3.533   3.928   5.559  0.0694 -0.2816  2.1955
 6432SOL    HW224144   3.597   3.824   5.649  1.6182 -0.6434  0.7304
 6433SOL     OW24145   0.721   1.864   5.588 -0.8561 -0.2896 -0.4309
 6433SOL    HW124146   0.703   1.957   5.574 -1.6408 -0.3668  0.0026
 6433SOL    HW224147   0.659   1.837   5.657 -1.0685 -1.2746 -0.9822
 6434SOL     OW24148   9.648   1.355   3.799  0.2298 -0.5416 -1.1114
 6434SOL    HW124149   9.592   1.360   3.876  0.1126 -1.8501 -1.0965
 6434SOL    HW224150   9.707   1.430   3.808 -1.1107  0.5334 -0.8301
 6435SOL     OW24151   1.201   0.875   7.693  0.0198  0.0741  0.1674
 6435SOL    HW124152   1.294   0.897   7.682  0.6040 -1.4664  1.5105
 6435SOL    HW224153   1.186   0.806   7.628 -0.1172  0.1238  0.1466
 6436SOL     OW24154   4.136   1.962   5.610  0.2700 -0.1052 -0.1551
 6436SOL    HW124155   4.171   1.957   5.699 -1.8698  0.1896  0.7412
 6436SOL    HW224156   4.160   2.050   5.579  1.7832 -0.5189 -0.2503
 6437SOL     OW24157   2.045   7.923   6.910  1.0240 -0.0767 -0.6876
 6437SOL    HW124158   2.024   7.856   6.975 -0.8859 -0.6465 -1.8034
 6437SOL    HW224159   2.102   7.878   6.847  0.3403 -0.4718 -1.0425
 6438SOL     OW24160   3.912   1.513   7.049  0.3077  0.4814 -0.2910
 6438SOL    HW124161   3.958   1.526   6.967  1.8170  0.1530  0.4767
 6438SOL    HW224162   3.882   1.422   7.046 -1.0166  0.9022 -1.1054
 6439SOL     OW24163   1.718   0.965   3.926  0.6024  0.3589 -0.0637
 6439SOL    HW124164   1.634   0.947   3.885  0.4156 -0.1629  0.5233
 6439SOL    HW224165   1.733   1.058   3.911 -1.5764  1.2592  2.4414
 6440SOL     OW24166   2.447   0.318   6.575  0.1228 -0.1182 -0.8203
 6440SOL    HW124167   2.354   0.297   6.565  0.4194 -0.8483 -2.4675
 6440SOL    HW224168   2.482   0.248   6.629 -0.1611 -0.2410 -0.7973
 6441SOL     OW24169   4.842   8.598   5.310  0.3005 -0.0975  0.0687
 6441SOL    HW124170   4.902   8.643   5.370  2.3927 -1.3615 -0.9753
 6441SOL    HW224171   4.841   8.652   5.231  0.0114 -0.0489  0.1050
 6442SOL     OW24172   3.617   8.771   7.175  0.3128 -0.3934  0.3832
 6442SOL    HW124173   3.577   8.854   7.151 -0.4164 -0.2892  1.8697
 6442SOL    HW224174   3.677   8.751   7.102 -3.8225 -1.6367 -3.0765
 6443SOL     OW24175   6.635   2.036   5.231  0.3890  0.3541 -0.1447
 6443SOL    HW124176   6.577   2.010   5.161  1.5098 -0.3993 -0.8199
 6443SOL    HW224177   6.680   2.113   5.197  0.7742  0.1187 -0.1711
 6444SOL     OW24178   2.820   2.212   7.967 -0.4914  0.2530 -0.5246
 6444SOL    HW124179   2.746   2.272   7.972 -0.1801  0.5732  0.5719
 6444SOL    HW224180   2.786   2.136   7.921 -1.6019  0.2703  0.2177
 6445SOL     OW24181   5.684   2.050   5.768 -0.1838  0.0933  0.0809
 6445SOL    HW124182   5.676   1.963   5.805 -1.1403  0.4655  0.7913
 6445SOL    HW224183   5.649   2.043   5.679 -2.7972  0.2824  0.9993
 6446SOL     OW24184   5.077   4.347   6.835 -0.3284  0.2315  0.1206
 6446SOL    HW124185   5.144   4.382   6.893 -0.6451  0.7457  0.1785
 6446SOL    HW224186   5.125   4.321   6.756  0.3397 -1.8377  1.1210
 6447SOL     OW24187   3.964   0.435   7.281  0.1826  0.1119  0.2879
 6447SOL    HW124188   3.927   0.351   7.256  0.0170 -0.1022  1.2080
 6447SOL    HW224189   3.902   0.500   7.248 -0.0289 -0.1594  0.1503
 6448SOL     OW24190   3.252   0.474   4.757 -0.3238 -0.7965  0.2072
 6448SOL    HW124191   3.194   0.543   4.724  0.2134 -0.2464  0.3774
 6448SOL    HW224192   3.205   0.437   4.832 -0.3480 -0.1832  0.5022
 6449SOL     OW24193   3.582   1.383   6.877 -0.4386  0.2296  0.1873
 6449SOL    HW124194   3.609   1.419   6.961 -1.4045 -1.8673  1.4690
 6449SOL    HW224195   3.621   1.296   6.874 -0.8753  0.0586 -1.3093
 6450SOL     OW24196   3.530   0.716   5.154  0.0634  0.0178 -0.3904
 6450SOL    HW124197   3.465   0.703   5.085 -2.6587  0.0791  1.9814
 6450SOL    HW224198   3.503   0.796   5.199  1.8108  0.0578  0.7044
 6451SOL     OW24199   2.324   0.601   6.094  0.6178 -0.3059 -1.2486
 6451SOL    HW124200   2.325   0.584   6.188  0.4625  2.2734 -0.6981
 6451SOL    HW224201   2.294   0.519   6.055  0.8698 -1.5053  0.9202
 6452SOL     OW24202   3.199   0.400   8.669  0.2407  0.3591  0.4573
 6452SOL    HW124203   3.212   0.314   8.710  1.9091  0.4591  0.2195
 6452SOL    HW224204   3.107   0.420   8.684  0.0555 -1.0286  1.3867
 6453SOL     OW24205   1.988   1.369   8.522  0.3553  0.2634  0.1897
 6453SOL    HW124206   1.910   1.401   8.476 -0.0964 -1.4365 -0.2906
 6453SOL    HW224207   1.988   1.416   8.605 -1.5368 -0.1259  0.4591
 6454SOL     OW24208   0.567   0.561   7.327  0.2079 -0.2365 -0.6531
 6454SOL    HW124209   0.555   0.466   7.327  0.4785 -0.2756  0.3387
 6454SOL    HW224210   0.492   0.594   7.276 -0.8393 -0.8690  0.4311
 6455SOL     OW24211   3.373   1.330   5.866  0.1094  0.1981 -0.5403
 6455SOL    HW124212   3.437   1.286   5.922  0.2502 -1.8640 -2.1780
 6455SOL    HW224213   3.421   1.401   5.825  0.4495  0.6850  0.6626
 6456SOL     OW24214   3.547   9.766   8.633  0.2159 -0.1089  0.1089
 6456SOL    HW124215   3.525   9.790   8.723 -0.3528 -2.0663  0.5488
 6456SOL    HW224216   3.536   9.671   8.630  0.2004 -0.0970 -2.0395
 6457SOL     OW24217   5.745   9.175   3.800 -0.3998  0.0387 -0.6986
 6457SOL    HW124218   5.716   9.231   3.872  0.4526 -1.4662  0.8521
 6457SOL    HW224219   5.754   9.236   3.726 -0.9017  1.6937  0.5298
 6458SOL     OW24220   4.240   9.615   8.073  0.1016  0.3701  0.1998
 6458SOL    HW124221   4.146   9.597   8.073  0.5667 -2.6751  0.4914
 6458SOL    HW224222   4.247   9.709   8.057 -2.9773  0.7673  0.5943
 6459SOL     OW24223   2.191   0.942   7.654 -0.0281 -0.2677 -0.0011
 6459SOL    HW124224   2.185   0.894   7.736  0.7386 -1.2222 -0.4869
 6459SOL    HW224225   2.252   1.014   7.673 -0.1278 -0.2786  0.3622
 6460SOL     OW24226   4.058   2.571   5.710  0.2478  0.1651  0.6901
 6460SOL    HW124227   4.027   2.523   5.634 -0.2549 -0.0408  1.0240
 6460SOL    HW224228   3.979   2.601   5.754  0.5390  0.4248  1.0467
 6461SOL     OW24229   1.431   2.442   7.055 -0.0215 -0.2494  0.2083
 6461SOL    HW124230   1.368   2.487   7.110  0.2413  2.2798 -1.3614
 6461SOL    HW224231   1.515   2.484   7.074  0.9419 -2.4045  1.0520
 6462SOL     OW24232   2.616   0.846   6.703 -0.2364 -0.0946  0.2132
 6462SOL    HW124233   2.567   0.802   6.773 -0.9470 -1.3888 -1.0555
 6462SOL    HW224234   2.557   0.915   6.672 -1.2865 -1.5950 -1.2535
 6463SOL     OW24235   3.015   1.862   8.349  0.1311  0.9006 -0.4376
 6463SOL    HW124236   2.971   1.791   8.303  2.3656 -0.2764 -0.8758
 6463SOL    HW224237   2.976   1.942   8.313 -2.4848 -0.0214  0.1160
 6464SOL     OW24238   0.950   0.859   7.089 -0.7426  0.0533 -0.0273
 6464SOL    HW124239   0.895   0.833   7.015 -0.3934 -0.3699 -0.1434
 6464SOL    HW224240   0.927   0.951   7.105 -1.3775 -0.0805 -0.1634
 6465SOL     OW24241   2.214   9.767   7.048  0.7833  0.2218 -0.1971
 6465SOL    HW124242   2.184   9.857   7.057 -0.3377 -0.1705  0.0739
 6465SOL    HW224243   2.225   9.737   7.138  3.4659  0.8066 -0.2464
 6466SOL     OW24244   3.925   1.012   9.001 -0.2098  0.1390  0.5977
 6466SOL    HW124245   3.856   0.996   9.066  0.1135  1.1648  1.2190
 6466SOL    HW224246   3.926   0.933   8.947 -0.9225 -0.4708  1.4458
 6467SOL     OW24247   2.794   9.322   4.492  0.6096 -0.0111 -0.5312
 6467SOL    HW124248   2.792   9.379   4.569 -0.2356 -0.4176 -0.2362
 6467SOL    HW224249   2.813   9.381   4.419  1.3387  0.3912 -0.0243
 6468SOL     OW24250   2.889   1.226   7.720  0.1573  0.1670  0.3799
 6468SOL    HW124251   2.804   1.190   7.696  0.4785 -0.3394 -0.0133
 6468SOL    HW224252   2.928   1.254   7.637  0.3894  0.3692  0.5530
 6469SOL     OW24253   4.513   1.342   7.133  0.1546 -0.3762  0.0293
 6469SOL    HW124254   4.445   1.366   7.196 -0.0262  1.5605 -0.8399
 6469SOL    HW224255   4.473   1.275   7.078 -1.2458  1.0120 -0.7206
 6470SOL     OW24256   3.027   0.373   6.318  0.6077 -0.1590  0.1394
 6470SOL    HW124257   3.089   0.442   6.293 -0.6437  0.9034 -0.1138
 6470SOL    HW224258   2.943   0.418   6.325 -0.1783 -1.6123  0.2949
 6471SOL     OW24259   4.451   1.783   7.204 -0.1597  0.3443  0.9441
 6471SOL    HW124260   4.408   1.847   7.147  1.2997  1.4630  1.0730
 6471SOL    HW224261   4.390   1.709   7.206 -1.0131  0.9562 -0.7192
 6472SOL     OW24262   5.020   8.836   8.896  0.4328  0.0212  0.2988
 6472SOL    HW124263   4.964   8.759   8.906  0.0750  0.3226  0.7126
 6472SOL    HW224264   4.959   8.906   8.873  0.8202  0.0770 -0.5602
 6473SOL     OW24265   2.505   4.298   5.675 -0.0085  0.1055 -0.0444
 6473SOL    HW124266   2.429   4.262   5.630 -0.1778  0.6853 -0.2276
 6473SOL    HW224267   2.485   4.391   5.687  0.3933  0.1309  0.4823
 6474SOL     OW24268   2.782   0.920   6.159  0.1524 -0.2074 -0.3356
 6474SOL    HW124269   2.754   0.970   6.236  0.5156  1.2894 -1.1497
 6474SOL    HW224270   2.725   0.844   6.159 -0.0553 -0.0948  1.2479
 6475SOL     OW24271   3.324   0.712   6.655  0.6703 -0.1467 -0.9448
 6475SOL    HW124272   3.382   0.762   6.712 -0.2548  0.2309 -0.3207
 6475SOL    HW224273   3.268   0.663   6.715  0.7790 -1.0230 -1.5437
 6476SOL     OW24274   3.162   3.687   5.372  0.3878  0.4581 -0.5299
 6476SOL    HW124275   3.077   3.703   5.413  0.4216  0.6131 -0.5214
 6476SOL    HW224276   3.150   3.715   5.282  0.2722 -0.0095 -0.6648
 6477SOL     OW24277   4.319   8.958   8.719 -0.0763 -0.0690  0.0557
 6477SOL    HW124278   4.277   9.018   8.657  1.9930  0.7563 -0.6482
 6477SOL    HW224279   4.295   8.991   8.805  0.4486  1.4063 -0.3243
 6478SOL     OW24280   1.503   0.384   5.027 -0.2368 -0.2137 -0.3696
 6478SOL    HW124281   1.519   0.477   5.011  0.0269 -0.0903  0.5344
 6478SOL    HW224282   1.427   0.363   4.973 -0.6794  0.6901 -0.1193
 6479SOL     OW24283   1.285   0.072   5.825 -0.1609 -0.3359  0.1724
 6479SOL    HW124284   1.320   0.109   5.906  0.3565 -1.5239  0.5112
 6479SOL    HW224285   1.191   0.091   5.829 -0.1499 -0.4162  1.0768
 6480SOL     OW24286   1.567   9.271   8.544 -0.0890  0.6953 -0.5097
 6480SOL    HW124287   1.488   9.243   8.498  0.3510 -1.1158 -0.2192
 6480SOL    HW224288   1.638   9.254   8.482  0.3633 -0.4722  0.2874
 6481SOL     OW24289   2.521   1.239   5.893 -0.2128  0.2169  0.1822
 6481SOL    HW124290   2.506   1.278   5.979 -1.2951 -0.7827  0.4707
 6481SOL    HW224291   2.449   1.177   5.882  2.2323 -2.9231  0.4108
 6482SOL     OW24292   1.874   1.512   6.972  0.4961  0.1965  0.1204
 6482SOL    HW124293   1.836   1.426   6.956  1.8707 -0.2582 -0.8697
 6482SOL    HW224294   1.804   1.562   7.013 -0.2802 -1.4301  0.8650
 6483SOL     OW24295   2.132   1.978   7.565 -0.3164 -0.3195 -0.0229
 6483SOL    HW124296   2.099   1.963   7.477  0.5730  0.0044 -0.4264
 6483SOL    HW224297   2.191   1.905   7.582 -2.1918 -1.6322  1.2204
 6484SOL     OW24298   4.678   0.927   4.678 -0.4252 -0.6716 -0.1236
 6484SOL    HW124299   4.701   1.016   4.650 -0.5815 -0.3055  0.8596
 6484SOL    HW224300   4.583   0.930   4.691 -0.0512  0.3507  4.0768
 6485SOL     OW24301   1.563   8.784   6.722 -0.5103 -0.3620  0.0100
 6485SOL    HW124302   1.582   8.752   6.810  2.3768 -3.1513 -1.3931
 6485SOL    HW224303   1.489   8.731   6.694 -1.3418  0.4286  0.6583
 6486SOL     OW24304   4.193   3.013   6.264  0.2700 -0.1224  0.0148
 6486SOL    HW124305   4.208   3.087   6.205  1.4019 -1.3340 -1.2657
 6486SOL    HW224306   4.117   3.039   6.315 -0.8447  0.9293 -2.0642
 6487SOL     OW24307   0.866   8.670   7.252 -0.6461  0.7507  0.7533
 6487SOL    HW124308   0.782   8.713   7.235 -0.4270  1.0455  0.3973
 6487SOL    HW224309   0.883   8.618   7.174 -0.4210  0.8177  0.7577
 6488SOL     OW24310   1.948   1.438   6.684  0.5027 -0.8064  0.0889
 6488SOL    HW124311   1.852   1.444   6.686  0.5799  0.4272  0.4242
 6488SOL    HW224312   1.967   1.354   6.726 -0.3510 -0.1522  1.8822
 6489SOL     OW24313   2.536   0.400   3.762 -0.3216 -0.0593  0.5849
 6489SOL    HW124314   2.518   0.438   3.847 -0.8856  1.2055 -0.0813
 6489SOL    HW224315   2.464   0.429   3.706  0.8109  0.4161 -0.7025
 6490SOL     OW24316   2.283   1.521   8.182 -0.3527 -0.1977 -0.0147
 6490SOL    HW124317   2.266   1.616   8.186  0.3230 -0.0811  0.2212
 6490SOL    HW224318   2.216   1.488   8.123 -0.7772  0.3871  0.1181
 6491SOL     OW24319   0.974   9.732   6.979 -0.1396 -0.1521 -0.2917
 6491SOL    HW124320   1.032   9.744   6.904 -1.5267 -0.5655 -1.4874
 6491SOL    HW224321   1.005   9.796   7.044  0.6473  0.7427 -1.4995
 6492SOL     OW24322   1.572   1.980   3.756 -0.1720 -0.1462  0.0495
 6492SOL    HW124323   1.529   2.064   3.740 -0.4921 -0.5007 -1.1251
 6492SOL    HW224324   1.666   1.999   3.753 -0.2242  0.0005 -1.4151
 6493SOL     OW24325   2.420   1.600   6.547  0.6022  0.2758  0.8518
 6493SOL    HW124326   2.341   1.642   6.582  2.3650  2.0376  3.0366
 6493SOL    HW224327   2.392   1.511   6.527 -1.7391  0.5715  2.3400
 6494SOL     OW24328   3.057   1.472   5.670  0.3807  0.3998  0.1891
 6494SOL    HW124329   3.042   1.451   5.762 -0.7349  1.5052  0.2832
 6494SOL    HW224330   2.990   1.422   5.623  0.4238  0.4718  0.0488
 6495SOL     OW24331   3.809   2.037   8.517  0.3043  0.3686  0.0991
 6495SOL    HW124332   3.785   1.971   8.451  0.2448  0.6066 -0.1185
 6495SOL    HW224333   3.860   1.988   8.582  2.2045  0.5351 -1.1855
 6496SOL     OW24334   4.054   2.009   4.961  0.4082  0.1741 -0.3509
 6496SOL    HW124335   3.962   2.029   4.978 -0.4408  0.8571 -4.6011
 6496SOL    HW224336   4.061   1.914   4.975 -1.3546 -0.1319 -1.2769
 6497SOL     OW24337   2.281   1.696   5.647  0.8882  0.3635 -0.1574
 6497SOL    HW124338   2.316   1.642   5.717  1.7252 -0.3600 -1.1080
 6497SOL    HW224339   2.234   1.635   5.590 -0.6534  1.0929  0.2849
 6498SOL     OW24340   3.714   1.749   3.058  0.6285  0.0641 -0.3191
 6498SOL    HW124341   3.693   1.729   2.967  1.5942 -1.6326 -0.2139
 6498SOL    HW224342   3.806   1.725   3.068  0.5943  0.3798  1.0701
 6499SOL     OW24343   2.416   1.170   8.288  0.1030 -0.3736  0.4481
 6499SOL    HW124344   2.435   1.256   8.252  0.7254  0.0411  1.7261
 6499SOL    HW224345   2.488   1.115   8.258  0.1383 -0.2514  0.3093
 6500SOL     OW24346   3.641   2.647   7.898  0.7570  0.3541 -0.4762
 6500SOL    HW124347   3.717   2.620   7.950  0.4377 -0.6046 -0.4985
 6500SOL    HW224348   3.679   2.683   7.818  1.1914 -0.6561 -0.7427
 6501SOL     OW24349   3.022   0.145   8.564 -0.0586  0.6366  0.6114
 6501SOL    HW124350   3.072   0.144   8.646  0.2023  2.7359  0.5317
 6501SOL    HW224351   3.085   0.173   8.498 -0.9895  2.0536  0.2792
 6502SOL     OW24352   5.143   3.399   6.737  0.0735 -0.3424 -0.7327
 6502SOL    HW124353   5.054   3.410   6.704  0.5211  0.1034 -1.8405
 6502SOL    HW224354   5.144   3.444   6.821 -1.1406 -1.6283  0.0237
 6503SOL     OW24355   4.343   2.739   5.794  0.0455 -0.1308  0.3612
 6503SOL    HW124356   4.328   2.724   5.887 -0.5279  0.3771  0.3665
 6503SOL    HW224357   4.397   2.818   5.791  1.0952 -0.8337  0.2845
 6504SOL     OW24358   2.712   1.042   5.744  0.1878  0.1260  0.5080
 6504SOL    HW124359   2.652   1.030   5.671  2.3107  1.8202 -1.6992
 6504SOL    HW224360   2.660   1.088   5.810 -1.4079 -0.0425 -0.5669
 6505SOL     OW24361   3.016   9.776   6.157  0.2281 -0.3936  0.9301
 6505SOL    HW124362   3.005   9.785   6.062 -0.1825  1.0252  1.0896
 6505SOL    HW224363   2.936   9.732   6.186 -0.0555 -0.0161  0.7255
 6506SOL     OW24364   6.565   4.886   8.518  0.0448  0.3931  0.1377
 6506SOL    HW124365   6.634   4.833   8.560 -0.3225  0.4668  0.8442
 6506SOL    HW224366   6.549   4.842   8.434 -0.7431 -1.0374  1.0056
 6507SOL     OW24367   2.809   0.761   4.760 -0.0456 -0.3942 -0.1514
 6507SOL    HW124368   2.761   0.756   4.842  0.8051  1.1611  0.4795
 6507SOL    HW224369   2.742   0.781   4.694 -0.4829  0.2073  0.4683
 6508SOL     OW24370   3.418   1.633   5.146 -0.1703 -0.4532 -0.1465
 6508SOL    HW124371   3.416   1.643   5.241 -2.2636 -0.1302 -0.1710
 6508SOL    HW224372   3.481   1.563   5.130 -0.9435 -1.6218  1.6118
 6509SOL     OW24373   2.969   1.635   7.359 -0.6663  0.4910 -0.4798
 6509SOL    HW124374   2.920   1.570   7.309 -0.2861  0.9646 -1.4878
 6509SOL    HW224375   3.057   1.599   7.367 -1.2914 -0.7058  1.9672
 6510SOL     OW24376   3.728   1.607   7.530  0.0083  0.0543 -0.5914
 6510SOL    HW124377   3.755   1.650   7.450 -0.6882  0.8983 -0.3826
 6510SOL    HW224378   3.664   1.666   7.569  1.2880  0.3290  1.2628
 6511SOL     OW24379   1.548   9.350   5.446  0.0909 -0.4049 -0.0433
 6511SOL    HW124380   1.486   9.345   5.519 -1.6557 -1.1131 -1.5091
 6511SOL    HW224381   1.495   9.380   5.372  1.6563 -0.4437 -1.2126
 6512SOL     OW24382   2.950   0.996   5.614  0.1920  0.4722  0.0187
 6512SOL    HW124383   2.861   1.012   5.646  0.0932  1.6110 -0.7723
 6512SOL    HW224384   2.986   0.932   5.676 -0.8458  0.7046  0.9012
 6513SOL     OW24385   3.544   0.962   7.560 -0.4084  0.3092  0.2862
 6513SOL    HW124386   3.615   0.920   7.608  1.4569  1.4721 -1.3210
 6513SOL    HW224387   3.522   0.898   7.491  0.0544  0.5026 -0.0500
 6514SOL     OW24388   2.479   0.691   6.875  0.4019 -0.3900  0.2219
 6514SOL    HW124389   2.408   0.677   6.812 -0.5449 -0.1109  1.1908
 6514SOL    HW224390   2.541   0.620   6.858 -0.0639 -0.5953 -0.6983
 6515SOL     OW24391   2.602   1.406   4.567  0.4079 -0.3057  0.3200
 6515SOL    HW124392   2.662   1.350   4.517  1.8506  1.8292 -0.5249
 6515SOL    HW224393   2.595   1.486   4.514 -0.7684  0.7138  1.9140
 6516SOL     OW24394   4.440   2.435   5.924 -0.1432 -0.2273 -0.2972
 6516SOL    HW124395   4.450   2.452   6.018 -0.7601 -0.3777 -0.2033
 6516SOL    HW224396   4.490   2.355   5.909 -1.4652 -1.1821  0.2434
 6517SOL     OW24397   5.063   2.863   5.586  0.2447 -0.3690  0.5196
 6517SOL    HW124398   5.069   2.776   5.628 -1.7686 -0.7358  0.1818
 6517SOL    HW224399   5.033   2.921   5.656  0.5184 -0.1758  0.4780
 6518SOL     OW24400   3.038   0.066   6.463 -0.3692  0.6210  0.3503
 6518SOL    HW124401   3.020   0.132   6.530  0.3983  1.4454 -0.2289
 6518SOL    HW224402   3.127   0.036   6.482 -0.6775 -0.1817  0.5481
 6519SOL     OW24403   2.836   9.513   4.307 -0.6423 -0.2475  0.6623
 6519SOL    HW124404   2.757   9.545   4.263  0.1567  0.8177 -0.0673
 6519SOL    HW224405   2.888   9.592   4.323  0.5066 -0.9801  0.6455
 6520SOL     OW24406   2.642   1.051   4.324 -0.3568  0.2942 -0.3780
 6520SOL    HW124407   2.683   0.993   4.260 -0.7742  0.4752 -0.8124
 6520SOL    HW224408   2.602   0.992   4.388  0.4073  0.1132 -0.0487
 6521SOL     OW24409   4.172   1.960   4.705  0.5323  0.3368  0.5258
 6521SOL    HW124410   4.163   2.044   4.659  0.1470 -0.1002 -0.2060
 6521SOL    HW224411   4.113   1.968   4.780  1.3007  1.1202  1.0693
 6522SOL     OW24412   2.623   1.273   7.418 -0.2457  0.0296 -0.5536
 6522SOL    HW124413   2.651   1.240   7.503  0.7223  2.9493  0.3843
 6522SOL    HW224414   2.699   1.262   7.362 -0.3379 -0.4281 -0.5890
 6523SOL     OW24415   1.140   0.185   8.189  0.2568  0.4911  0.1931
 6523SOL    HW124416   1.123   0.262   8.135  1.2121  0.6444  0.0820
 6523SOL    HW224417   1.072   0.187   8.256 -0.5505  0.6588 -0.6214
 6524SOL     OW24418   3.458   0.108   8.269  0.5941 -0.0856 -0.0560
 6524SOL    HW124419   3.475   0.018   8.243  0.4839  0.0805 -0.7081
 6524SOL    HW224420   3.462   0.158   8.188  2.7431  0.8248  0.5427
 6525SOL     OW24421   5.056   2.546   0.780 -0.1759 -0.4237 -0.0228
 6525SOL    HW124422   5.034   2.613   0.845 -1.5795 -0.1882 -0.6991
 6525SOL    HW224423   4.972   2.507   0.756  0.3529 -0.7803 -1.3940
 6526SOL     OW24424   3.053   1.933   8.653 -0.9475  0.1069  0.1439
 6526SOL    HW124425   3.047   1.888   8.568  0.6739  0.7729 -0.3646
 6526SOL    HW224426   3.033   1.865   8.717  0.7778 -1.2431 -0.6387
 6527SOL     OW24427   4.639   0.113   9.357 -0.4438 -0.3547 -0.4124
 6527SOL    HW124428   4.725   0.155   9.345  0.8354 -2.4229  0.9280
 6527SOL    HW224429   4.588   0.177   9.408  0.5032  0.6512 -0.6854
 6528SOL     OW24430   2.819   1.098   8.170  0.1676 -0.3211 -0.2210
 6528SOL    HW124431   2.884   1.027   8.172  0.6862  0.1656  1.0319
 6528SOL    HW224432   2.736   1.056   8.191  0.5397 -0.5028  0.9162
 6529SOL     OW24433   2.780   0.354   8.394 -0.1961 -0.0415 -0.4901
 6529SOL    HW124434   2.852   0.417   8.387 -0.0787  0.1436  1.7090
 6529SOL    HW224435   2.704   0.406   8.420 -0.6261 -0.5251 -0.7568
 6530SOL     OW24436   0.560   0.470   8.815  0.3911  0.0036  1.0803
 6530SOL    HW124437   0.635   0.420   8.846  1.1935  0.2250 -0.4118
 6530SOL    HW224438   0.592   0.515   8.737 -0.6182  1.9787  1.7325
 6531SOL     OW24439   2.996   1.770   8.858  0.1412 -0.0870  0.3440
 6531SOL    HW124440   3.059   1.746   8.926 -0.7915 -0.7683  0.9923
 6531SOL    HW224441   2.936   1.831   8.901  0.2827  0.4732 -0.2370
 6532SOL     OW24442   2.388   0.415   9.612  0.7083 -0.2446 -0.1563
 6532SOL    HW124443   2.389   0.351   9.683  1.9017  0.4830  0.5085
 6532SOL    HW224444   2.408   0.499   9.655  1.1821  0.2475 -1.3034
 6533SOL     OW24445   2.548   0.459   5.823 -0.5088  0.0413 -0.2611
 6533SOL    HW124446   2.470   0.456   5.878 -0.6558 -1.9266 -0.5269
 6533SOL    HW224447   2.621   0.453   5.884 -0.5855  0.5627 -0.1103
 6534SOL     OW24448   0.768   2.297   9.055  0.1292 -0.0986 -0.2126
 6534SOL    HW124449   0.734   2.344   8.978  0.0225 -0.6516 -0.5041
 6534SOL    HW224450   0.743   2.206   9.041  0.3302 -0.2459  0.3594
 6535SOL     OW24451   2.343   2.624   6.725  0.1638  0.2342 -0.4324
 6535SOL    HW124452   2.363   2.563   6.795 -1.3979  0.0401 -0.1223
 6535SOL    HW224453   2.296   2.572   6.660 -0.5052  0.9195 -0.5126
 6536SOL     OW24454   0.112   0.078   8.001  0.3450 -0.4470  0.0932
 6536SOL    HW124455   0.073   0.113   7.921  0.9329 -0.6860 -0.3115
 6536SOL    HW224456   0.041   0.033   8.045 -0.3238  0.8751  0.4096
 6537SOL     OW24457   2.986   3.122   7.942 -0.3893 -0.1939 -0.5158
 6537SOL    HW124458   2.925   3.145   8.012 -0.7495 -1.4047 -0.4259
 6537SOL    HW224459   3.029   3.042   7.972  4.0496  2.4686  1.2191
 6538SOL     OW24460   4.264   2.155   8.785  0.6111 -0.2190  0.4328
 6538SOL    HW124461   4.318   2.086   8.747  0.6828  0.4899 -0.8010
 6538SOL    HW224462   4.205   2.109   8.844  0.3273 -1.4130 -0.7255
 6539SOL     OW24463   0.990   8.704   9.455  0.0697  0.5444 -0.1842
 6539SOL    HW124464   1.048   8.645   9.406 -0.7694  0.5419 -1.1903
 6539SOL    HW224465   0.983   8.664   9.542 -1.4245 -1.5266 -1.1836
 6540SOL     OW24466   3.055   0.819   6.916 -0.3415 -0.4043  0.2693
 6540SOL    HW124467   2.977   0.868   6.891  0.6402 -0.2041 -2.8606
 6540SOL    HW224468   3.035   0.728   6.893  0.2029 -0.4100 -0.1982
 6541SOL     OW24469   3.717   2.423   8.220 -0.7950  0.7594 -0.1104
 6541SOL    HW124470   3.796   2.404   8.170 -0.9164  0.2792 -0.1210
 6541SOL    HW224471   3.748   2.437   8.310 -0.8916 -1.3383  0.2859
 6542SOL     OW24472   1.855   1.068   5.432 -0.1867  0.1962 -0.6227
 6542SOL    HW124473   1.848   1.161   5.411 -2.1584 -0.1238 -1.5609
 6542SOL    HW224474   1.800   1.024   5.368  0.8035 -1.6571 -0.2832
 6543SOL     OW24475   2.245   0.320   7.706  0.1453 -0.3211 -0.2296
 6543SOL    HW124476   2.161   0.360   7.728  0.7735  0.6380  0.5478
 6543SOL    HW224477   2.294   0.390   7.662  1.4636  0.0086  1.6257
 6544SOL     OW24478   1.788   3.183   8.061 -0.1686  0.0214  0.2602
 6544SOL    HW124479   1.810   3.124   8.134  0.7553 -0.6237 -0.5207
 6544SOL    HW224480   1.693   3.192   8.066 -0.0403  1.0235  2.3216
 6545SOL     OW24481   2.416   2.995   0.101  0.1293  0.6650 -0.4001
 6545SOL    HW124482   2.431   2.979   0.194 -0.2240  0.2832 -0.4055
 6545SOL    HW224483   2.383   2.911   0.067 -1.1719  1.2159 -0.5555
 6546SOL     OW24484   2.580   0.202   7.673  0.1419 -0.6648  0.1162
 6546SOL    HW124485   2.515   0.191   7.604  1.0421  0.2292 -0.9075
 6546SOL    HW224486   2.664   0.202   7.627  0.8817 -1.7544  1.4025
 6547SOL     OW24487   3.965   1.194   8.266  0.0243 -0.8859 -0.1466
 6547SOL    HW124488   3.952   1.243   8.185  0.7566 -2.4747 -1.2786
 6547SOL    HW224489   4.049   1.225   8.300  1.1620 -2.2136 -1.5800
 6548SOL     OW24490   1.746   1.209   7.174 -0.1324  0.2657  0.4983
 6548SOL    HW124491   1.651   1.205   7.159  0.2373 -0.6514 -2.4407
 6548SOL    HW224492   1.781   1.240   7.090  2.2968 -2.0916  0.5153
 6549SOL     OW24493   2.207   0.674   8.162  0.0920 -0.4322  0.0374
 6549SOL    HW124494   2.144   0.732   8.207  0.0903 -0.9735  0.7586
 6549SOL    HW224495   2.289   0.723   8.162 -0.3246  0.2869 -0.9237
 6550SOL     OW24496   2.561   2.698   8.472 -0.2056 -0.2484 -0.4768
 6550SOL    HW124497   2.493   2.749   8.516  0.2351  1.3030 -1.5148
 6550SOL    HW224498   2.545   2.712   8.379  1.7670  0.5141 -0.7531
 6551SOL     OW24499   1.640   0.318   9.204  0.0777 -0.1312  0.2223
 6551SOL    HW124500   1.730   0.311   9.171 -0.6543 -1.4384 -1.6480
 6551SOL    HW224501   1.631   0.245   9.265 -0.0996 -0.8066 -0.6003
 6552SOL     OW24502   3.456   0.569   8.574  0.1741  0.4944  0.5275
 6552SOL    HW124503   3.378   0.522   8.544 -0.2171  2.8833 -2.8478
 6552SOL    HW224504   3.500   0.508   8.633 -2.3562 -2.3673 -0.2796
 6553SOL     OW24505   3.309   3.699   1.655 -0.3279  0.7330 -0.5892
 6553SOL    HW124506   3.304   3.620   1.602 -3.1350  1.2300 -1.2103
 6553SOL    HW224507   3.258   3.679   1.734  0.4328  1.3461  0.0832
 6554SOL     OW24508   0.321   0.001   8.613 -0.2104 -0.3943 -0.2914
 6554SOL    HW124509   0.339  -0.028   8.524 -0.5643  0.1702 -0.5470
 6554SOL    HW224510   0.309   0.096   8.606  1.4909 -0.0782  0.6208
 6555SOL     OW24511   2.803   3.033   7.561  0.0619 -0.3947 -0.0008
 6555SOL    HW124512   2.784   2.985   7.480  1.3948  0.0917 -0.6478
 6555SOL    HW224513   2.768   2.978   7.631  2.1339 -2.7527 -0.6442
 6556SOL     OW24514   1.848   3.279   7.787 -0.4786  0.3761  0.5315
 6556SOL    HW124515   1.928   3.226   7.785  0.0023  0.8486  3.1905
 6556SOL    HW224516   1.810   3.260   7.873 -1.9433  2.0191  0.2942
 6557SOL     OW24517   2.522   9.107   2.109  0.3561  0.3666  0.4401
 6557SOL    HW124518   2.495   9.193   2.076 -0.7498 -0.1842 -0.1473
 6557SOL    HW224519   2.472   9.095   2.190  1.3836  0.7505  1.1625
 6558SOL     OW24520   3.703   0.469   9.580 -0.0619  0.3657  0.6599
 6558SOL    HW124521   3.765   0.441   9.513 -0.1439  1.2706  0.1852
 6558SOL    HW224522   3.721   0.413   9.655  0.7581  0.0514  0.2392
 6559SOL     OW24523   0.795   0.361   8.987 -0.3705 -0.4586 -0.4281
 6559SOL    HW124524   0.779   0.384   9.079  2.3970  1.6256 -0.3268
 6559SOL    HW224525   0.820   0.269   8.989  2.2712  0.1986  1.3865
 6560SOL     OW24526   1.260   9.373   8.457  0.1176  0.1103 -0.1609
 6560SOL    HW124527   1.179   9.353   8.504 -1.6782  3.4079 -1.4989
 6560SOL    HW224528   1.305   9.436   8.512 -0.7537  2.0303 -1.5002
 6561SOL     OW24529   2.572   8.962   9.038  0.5332 -0.7600  0.1154
 6561SOL    HW124530   2.599   8.955   8.946  3.2482  0.5285  0.7204
 6561SOL    HW224531   2.503   9.028   9.037  0.9798 -0.2806 -0.9271
 6562SOL     OW24532   1.222   9.758   6.476  0.2155 -0.0393  0.2138
 6562SOL    HW124533   1.311   9.767   6.511  0.3179  1.5906 -0.3733
 6562SOL    HW224534   1.229   9.790   6.386 -0.5764 -1.7467 -0.4794
 6563SOL     OW24535   3.248   9.485   9.284  0.6758 -0.0698 -0.4269
 6563SOL    HW124536   3.204   9.535   9.216 -0.4280 -0.2910  0.0857
 6563SOL    HW224537   3.256   9.396   9.248 -0.9564 -0.4802  0.1235
 6564SOL     OW24538   2.549   2.219   5.984 -0.0884  0.2743 -0.2698
 6564SOL    HW124539   2.594   2.157   6.041 -1.3664  0.1103  0.5999
 6564SOL    HW224540   2.459   2.221   6.016  0.6332  5.7199  2.6053
 6565SOL     OW24541   2.899   1.647   7.629  0.4482 -0.1955  0.2191
 6565SOL    HW124542   2.891   1.637   7.534  2.0042  1.3545 -0.1137
 6565SOL    HW224543   2.887   1.741   7.645  1.5202 -0.2296  1.4014
 6566SOL     OW24544   2.676   0.608   8.234  0.0260 -0.4638 -0.3606
 6566SOL    HW124545   2.693   0.703   8.237 -1.0402 -0.2860  1.4383
 6566SOL    HW224546   2.653   0.585   8.324  0.7282 -2.5487 -0.6637
 6567SOL     OW24547   1.704   9.330   9.354  0.0591  0.8275 -0.5820
 6567SOL    HW124548   1.729   9.238   9.365  1.4071  1.1864 -0.4141
 6567SOL    HW224549   1.731   9.351   9.265  2.1123  1.7013  0.1663
 6568SOL     OW24550   2.722   1.152   7.005  0.2888 -0.0984  0.0321
 6568SOL    HW124551   2.779   1.103   6.946  1.0576  0.6329  0.1563
 6568SOL    HW224552   2.722   1.241   6.971  2.0702  0.7459  2.0160
 6569SOL     OW24553   3.242   9.729   7.574  0.0422  0.0614 -0.2852
 6569SOL    HW124554   3.337   9.725   7.580  0.0009 -1.2874 -0.2401
 6569SOL    HW224555   3.220   9.819   7.599  1.1491 -0.2037  1.8767
 6570SOL     OW24556   3.384   1.513   0.210  0.0157  0.2748  0.3422
 6570SOL    HW124557   3.424   1.510   0.297 -1.1073  0.3142  0.8759
 6570SOL    HW224558   3.292   1.491   0.225  0.1543 -1.5521 -1.0709
 6571SOL     OW24559   3.451   3.338   7.777 -0.5120 -0.0921  0.0898
 6571SOL    HW124560   3.477   3.265   7.834 -0.6190  1.5153  2.3295
 6571SOL    HW224561   3.480   3.311   7.690  1.6176 -1.7831  1.2062
 6572SOL     OW24562   2.439   2.012   7.456  0.3062  0.2077 -0.0443
 6572SOL    HW124563   2.383   2.000   7.380 -0.5681 -0.2474  0.6543
 6572SOL    HW224564   2.498   2.084   7.432 -2.3752  2.6852  0.1973
 6573SOL     OW24565   2.927   1.266   7.450 -0.6681  0.2556 -0.2776
 6573SOL    HW124566   2.890   1.313   7.376  0.1988  0.1594 -0.7931
 6573SOL    HW224567   3.005   1.224   7.414 -0.1284  0.3639  0.7378
 6574SOL     OW24568   1.308   1.244   6.601  0.7481  0.6833 -0.2602
 6574SOL    HW124569   1.288   1.157   6.564 -2.4847  1.4534 -0.6896
 6574SOL    HW224570   1.357   1.289   6.532  0.0662  0.0748 -1.1650
 6575SOL     OW24571   2.240   0.610   6.720  0.4876  0.3243 -0.3148
 6575SOL    HW124572   2.229   0.632   6.627  1.1284  0.2395 -0.4196
 6575SOL    HW224573   2.173   0.545   6.738  1.5239 -1.0615 -1.2180
 6576SOL     OW24574   2.195   0.732   7.446 -0.3252 -0.3555  0.6293
 6576SOL    HW124575   2.136   0.716   7.519  0.7022 -0.5700  1.4388
 6576SOL    HW224576   2.261   0.663   7.452  0.4972  0.3715  0.2793
 6577SOL     OW24577   3.166   0.327   0.491  0.5096 -0.0072 -0.7876
 6577SOL    HW124578   3.129   0.411   0.463  0.9973  0.4233 -0.1684
 6577SOL    HW224579   3.091   0.269   0.499  0.0590  0.6147 -0.4071
 6578SOL     OW24580   3.933   0.522   7.889  0.6921  0.3098 -0.6640
 6578SOL    HW124581   4.028   0.534   7.881  0.8411  2.4430  2.5139
 6578SOL    HW224582   3.923   0.444   7.943  0.6929  0.7424 -0.0343
 6579SOL     OW24583   1.018   1.609   8.354 -0.4573 -0.4421 -0.6819
 6579SOL    HW124584   0.942   1.557   8.327  0.9413 -1.6962 -2.4538
 6579SOL    HW224585   1.019   1.683   8.293 -0.9975  0.3209  0.2123
 6580SOL     OW24586   2.063   0.273   0.835 -0.4267 -0.2271  0.1997
 6580SOL    HW124587   2.079   0.351   0.889  1.0226  0.5380 -1.2414
 6580SOL    HW224588   2.024   0.308   0.755 -1.7160 -1.2445  0.3662
 6581SOL     OW24589   3.923   0.104   7.159 -0.5292  0.0214 -0.0459
 6581SOL    HW124590   4.002   0.145   7.123 -1.5764  0.1181 -2.3902
 6581SOL    HW224591   3.944   0.011   7.163 -0.9278 -0.2601 -2.7073
 6582SOL     OW24592   4.524   0.874   8.863 -0.2571  0.3445  0.2261
 6582SOL    HW124593   4.616   0.886   8.838 -0.6198 -0.0708 -1.3683
 6582SOL    HW224594   4.492   0.963   8.878  0.5802  0.4590  1.5848
 6583SOL     OW24595   2.134   2.524   6.550 -0.1286 -0.3188  0.5026
 6583SOL    HW124596   2.131   2.620   6.546  0.0734 -0.3140  0.4802
 6583SOL    HW224597   2.055   2.496   6.505 -0.5095 -0.1467  1.0504
 6584SOL     OW24598   2.532   9.221   8.185  0.5934  0.0837 -0.1287
 6584SOL    HW124599   2.606   9.174   8.148  1.9586  0.4693  1.9449
 6584SOL    HW224600   2.553   9.314   8.174  1.7235  0.2575  2.6304
 6585SOL     OW24601   4.043   3.049   8.767  0.5284  0.3714  0.0155
 6585SOL    HW124602   4.062   3.118   8.704 -2.1936  0.0981 -1.2721
 6585SOL    HW224603   4.069   2.968   8.723  0.1411  0.3055 -0.0978
 6586SOL     OW24604   2.927   9.399   7.181 -0.5921 -0.2147  0.3670
 6586SOL    HW124605   2.910   9.444   7.098 -1.8950 -0.8065  0.2910
 6586SOL    HW224606   2.845   9.408   7.230 -0.7373 -2.1223  0.5194
 6587SOL     OW24607   3.830   1.490   3.689 -0.2504  0.7276  0.3040
 6587SOL    HW124608   3.806   1.444   3.609  1.6220  0.6764 -0.2762
 6587SOL    HW224609   3.747   1.502   3.736 -1.0880 -1.2055 -0.5750
 6588SOL     OW24610   1.451   0.320   8.627 -0.3505  0.5278 -0.2922
 6588SOL    HW124611   1.455   0.416   8.630 -0.4941  0.5374 -0.3711
 6588SOL    HW224612   1.530   0.291   8.671  0.0395  0.6823 -0.8877
 6589SOL     OW24613   3.517   3.028   7.039  0.4317  0.4157  0.4730
 6589SOL    HW124614   3.573   2.954   7.017 -0.1914 -0.0016  0.2890
 6589SOL    HW224615   3.446   3.025   6.976 -0.4233  0.2574  1.4267
 6590SOL     OW24616   3.002   0.592   7.824  0.1902  0.4466 -0.2525
 6590SOL    HW124617   3.002   0.562   7.915 -0.6024  1.0414 -0.0475
 6590SOL    HW224618   3.076   0.546   7.784  0.1183 -0.3600  0.5090
 6591SOL     OW24619   3.962   2.804   8.430  0.3085  0.1069  0.8215
 6591SOL    HW124620   3.959   2.709   8.438  0.5046  0.1051  0.8787
 6591SOL    HW224621   3.953   2.820   8.336  0.6910  0.0133  0.7667
 6592SOL     OW24622   3.997   0.301   5.580 -0.4701 -0.1588  0.3962
 6592SOL    HW124623   4.068   0.237   5.582 -0.0358 -0.0304 -3.5065
 6592SOL    HW224624   3.921   0.252   5.551 -0.3759  0.7884 -1.6338
 6593SOL     OW24625   1.279   0.887   9.207  0.0500 -0.2440  0.4343
 6593SOL    HW124626   1.239   0.801   9.194 -0.8011  0.4983 -2.4440
 6593SOL    HW224627   1.226   0.947   9.155  2.2809  1.5589  0.0804
 6594SOL     OW24628   1.476   2.714   7.805 -0.0120  0.0615 -0.3684
 6594SOL    HW124629   1.479   2.715   7.901 -1.9415  0.6379 -0.2538
 6594SOL    HW224630   1.535   2.644   7.780 -0.2401 -0.7953  1.2996
 6595SOL     OW24631   3.713   7.943   7.943 -0.2545  0.0629 -0.4823
 6595SOL    HW124632   3.725   8.024   7.992  1.2639 -0.6212  0.3438
 6595SOL    HW224633   3.619   7.938   7.927 -0.2856  2.6332 -1.7168
 6596SOL     OW24634   2.989   0.280   8.192 -0.6595 -0.4048  0.1868
 6596SOL    HW124635   3.015   0.201   8.143 -1.5920  1.2551 -3.2805
 6596SOL    HW224636   2.901   0.261   8.223 -0.6224 -0.9451 -0.0165
 6597SOL     OW24637   2.930   1.665   6.695  0.6731  0.1611  0.9631
 6597SOL    HW124638   2.854   1.668   6.637  1.6213 -0.1576 -0.3338
 6597SOL    HW224639   2.991   1.607   6.651  1.7466  0.5471  1.9045
 6598SOL     OW24640   2.794   9.396   0.490 -0.1386 -0.1872 -0.4139
 6598SOL    HW124641   2.788   9.316   0.543  2.4371  1.3249  2.5311
 6598SOL    HW224642   2.732   9.456   0.531 -1.7392 -0.4235 -2.3376
 6599SOL     OW24643   4.145   7.837   6.710  0.7344 -0.5566  0.0753
 6599SOL    HW124644   4.239   7.821   6.703  0.6382 -1.2713  0.3197
 6599SOL    HW224645   4.126   7.902   6.642  1.0030 -2.1459 -1.5788
 6600SOL     OW24646   3.047   1.909   6.796  0.5804  0.3451 -0.7520
 6600SOL    HW124647   2.960   1.895   6.834  1.9361 -1.0309  2.1782
 6600SOL    HW224648   3.056   1.839   6.731 -0.9288  1.3208 -2.0892
 6601SOL     OW24649   3.193   2.227   8.271  0.1665 -0.1080 -0.3550
 6601SOL    HW124650   3.174   2.161   8.338  3.0607 -1.3934 -0.6115
 6601SOL    HW224651   3.195   2.178   8.189  1.0181  0.5451 -0.7428
 6602SOL     OW24652   3.561   2.126   8.901 -0.4364 -0.2185 -0.3247
 6602SOL    HW124653   3.533   2.214   8.926 -0.0483 -0.3027  0.4724
 6602SOL    HW224654   3.653   2.122   8.928 -0.3248 -0.7162 -0.7580
 6603SOL     OW24655   4.751   1.465   8.185 -0.6117  0.2210  0.1177
 6603SOL    HW124656   4.824   1.413   8.218 -2.8746 -1.7570  2.5007
 6603SOL    HW224657   4.727   1.522   8.259 -1.3542  0.9857 -0.6883
 6604SOL     OW24658   3.331   0.975   8.639  0.2462 -0.0745  0.0969
 6604SOL    HW124659   3.414   0.939   8.668  0.1083  0.2601  0.9479
 6604SOL    HW224660   3.269   0.949   8.707  0.0890  1.5067  0.5963
 6605SOL     OW24661   3.913   9.630   8.296  0.0326 -0.2734 -0.1052
 6605SOL    HW124662   3.986   9.662   8.348 -0.2273  0.8003 -0.3735
 6605SOL    HW224663   3.847   9.605   8.361 -1.0017  2.7125  0.1869
 6606SOL     OW24664   3.770   2.204   7.833  0.0511 -0.5156 -0.2807
 6606SOL    HW124665   3.736   2.119   7.861 -0.7015  0.0539  0.5757
 6606SOL    HW224666   3.735   2.216   7.745 -1.4923 -0.2201  0.3544
 6607SOL     OW24667   4.211   1.672   7.391  0.3756 -0.1643 -0.1513
 6607SOL    HW124668   4.289   1.655   7.444 -0.4534 -0.1691  1.1025
 6607SOL    HW224669   4.211   1.603   7.325  0.0240 -1.7679  1.4635
 6608SOL     OW24670   1.675   2.560   7.103  0.2369  0.0942  0.0277
 6608SOL    HW124671   1.728   2.616   7.046 -2.1572  0.7937 -1.6982
 6608SOL    HW224672   1.661   2.613   7.182 -0.1804  1.0693 -0.6750
 6609SOL     OW24673   3.335   8.888   0.065 -0.5572 -0.3617 -0.5391
 6609SOL    HW124674   3.251   8.904   0.108 -1.0834 -0.2718 -1.5789
 6609SOL    HW224675   3.358   8.971   0.024  1.1733  0.3145  1.5606
 6610SOL     OW24676   1.672   0.989   0.102  0.6222  0.1302 -0.2491
 6610SOL    HW124677   1.699   0.901   0.126 -0.9525 -0.3158  0.0199
 6610SOL    HW224678   1.750   1.029   0.064  0.6273 -2.4139 -3.3153
 6611SOL     OW24679   3.125   0.991   6.373  1.0670  0.1380 -0.2825
 6611SOL    HW124680   3.137   1.038   6.290  2.1289  0.5061  0.0647
 6611SOL    HW224681   3.198   0.929   6.375 -1.4998 -3.2088 -1.7898
 6612SOL     OW24682   0.905   8.256   8.404  0.0482  0.1546 -0.3933
 6612SOL    HW124683   0.816   8.283   8.380  0.2637  0.3397 -1.0200
 6612SOL    HW224684   0.959   8.332   8.385  0.2523  0.2737  0.6352
 6613SOL     OW24685   4.273   8.297   7.593 -0.1028  0.0054 -0.4668
 6613SOL    HW124686   4.313   8.374   7.634  0.9238 -0.7143 -0.0900
 6613SOL    HW224687   4.270   8.231   7.662 -1.3275 -0.1920 -0.6813
 6614SOL     OW24688   3.441   2.867   7.600 -0.5660  0.3783 -0.4018
 6614SOL    HW124689   3.418   2.793   7.656 -0.9918  0.2170 -0.7822
 6614SOL    HW224690   3.357   2.899   7.566 -0.6431  2.3916  1.4179
 6615SOL     OW24691   1.750   8.959   6.571 -0.2832 -0.0058 -0.1737
 6615SOL    HW124692   1.725   8.906   6.496 -0.9951  2.0355 -1.4565
 6615SOL    HW224693   1.688   8.934   6.640 -0.2437 -1.1967 -0.5352
 6616SOL     OW24694   3.688   1.560   9.641  0.2496  0.6702 -0.3616
 6616SOL    HW124695   3.768   1.601   9.610  1.0837 -2.1507 -2.3623
 6616SOL    HW224696   3.718   1.498   9.709 -0.1489 -0.4892 -1.2060
 6617SOL     OW24697   5.353   0.562   7.024  0.2212  0.1119  0.5883
 6617SOL    HW124698   5.379   0.623   7.093 -0.2136 -0.7521  1.5543
 6617SOL    HW224699   5.417   0.491   7.029 -1.1014 -1.0641  1.6601
 6618SOL     OW24700   3.532   0.261   7.738  0.6278 -0.3749  0.0099
 6618SOL    HW124701   3.490   0.253   7.823 -1.5233  0.0377 -0.9468
 6618SOL    HW224702   3.520   0.352   7.713 -1.3481 -1.0546 -1.9100
 6619SOL     OW24703   3.238   0.851   8.398  0.1520  0.0966 -0.6987
 6619SOL    HW124704   3.153   0.892   8.414  0.2594 -0.5831  2.1016
 6619SOL    HW224705   3.299   0.897   8.455  1.3521 -0.5237 -1.4285
 6620SOL     OW24706   3.407   3.333   9.448 -0.2760  0.0473  0.5824
 6620SOL    HW124707   3.406   3.237   9.450 -1.1578  0.0525  1.2944
 6620SOL    HW224708   3.322   3.357   9.411  0.6400  0.5598 -1.2851
 6621SOL     OW24709   1.730   1.106   0.360 -0.1249 -0.2443  0.2594
 6621SOL    HW124710   1.667   1.051   0.313 -0.8443  0.7390  0.0348
 6621SOL    HW224711   1.790   1.138   0.293  0.0587 -0.4416  0.3289
 6622SOL     OW24712   2.528   0.499   7.320 -0.3389  0.0937  0.0777
 6622SOL    HW124713   2.538   0.583   7.275 -0.4644 -0.6339 -1.3565
 6622SOL    HW224714   2.534   0.433   7.251 -1.1611 -1.0483  1.0414
 6623SOL     OW24715   1.155   7.589   8.035  0.1022  0.2760  0.3933
 6623SOL    HW124716   1.127   7.659   7.977 -2.5333 -0.7854  0.2118
 6623SOL    HW224717   1.250   7.600   8.044  0.2251  1.9346 -2.1106
 6624SOL     OW24718   0.183   2.000   8.901 -0.0672 -0.1818  0.5898
 6624SOL    HW124719   0.111   1.951   8.940 -0.8983 -0.3455 -1.0472
 6624SOL    HW224720   0.141   2.058   8.837  1.2155 -0.0734 -0.1980
 6625SOL     OW24721   9.798   2.099   7.558  0.3233  0.0673 -0.8486
 6625SOL    HW124722   9.844   2.139   7.484  0.0792 -1.5937 -1.9464
 6625SOL    HW224723   9.818   2.006   7.551 -0.3995 -0.2339  0.7008
 6626SOL     OW24724   3.267   1.035   6.807  0.1974 -0.5063  0.0765
 6626SOL    HW124725   3.182   0.999   6.829 -0.3773  0.0292 -1.1935
 6626SOL    HW224726   3.253   1.085   6.727  1.5622  0.1601  0.2131
 6627SOL     OW24727   4.205   3.213   8.180 -0.2896  0.1646  0.7508
 6627SOL    HW124728   4.294   3.235   8.209 -0.5736 -1.6233  3.2983
 6627SOL    HW224729   4.163   3.175   8.257 -2.7082 -0.6937 -0.8663
 6628SOL     OW24730   1.796   0.626   8.341  0.0634  0.1738  0.0515
 6628SOL    HW124731   1.881   0.670   8.348  1.1731 -1.8365  0.0965
 6628SOL    HW224732   1.767   0.641   8.252  1.3366 -0.5291 -0.5045
 6629SOL     OW24733   2.554   1.487   8.714  0.3032  0.1867 -0.0385
 6629SOL    HW124734   2.501   1.431   8.657  0.0477  1.7852 -1.4637
 6629SOL    HW224735   2.542   1.451   8.801 -0.5109 -1.4542 -0.7886
 6630SOL     OW24736   3.410   3.339   8.192  0.0153 -0.7700  0.1901
 6630SOL    HW124737   3.470   3.267   8.212  0.8472 -0.0099  0.4893
 6630SOL    HW224738   3.327   3.296   8.171  0.5883 -1.8291  0.0231
 6631SOL     OW24739   1.658   0.585   0.155  0.1723  0.5832  0.6861
 6631SOL    HW124740   1.654   0.567   0.061  1.4372 -1.6149  0.9687
 6631SOL    HW224741   1.732   0.645   0.165  1.0134 -0.3546  0.3554
 6632SOL     OW24742   2.243   0.755   7.867  0.3421  0.5005 -0.5632
 6632SOL    HW124743   2.218   0.816   7.937 -0.0170 -1.2150  0.9140
 6632SOL    HW224744   2.160   0.730   7.827  0.5163  1.1993 -1.3824
 6633SOL     OW24745   3.369   1.169   8.373  0.8145  0.2502 -0.0836
 6633SOL    HW124746   3.346   1.108   8.443 -0.4353 -0.7672 -1.3065
 6633SOL    HW224747   3.292   1.170   8.316  2.0332  0.4844 -1.8197
 6634SOL     OW24748   1.885   1.723   6.488  0.7298  0.0028  0.9246
 6634SOL    HW124749   1.900   1.639   6.443  2.0869  0.7886 -0.1614
 6634SOL    HW224750   1.915   1.789   6.426  1.0872  1.2206  2.3429
 6635SOL     OW24751   0.571   8.698   9.627 -0.8437 -0.2584 -0.0956
 6635SOL    HW124752   0.613   8.712   9.542  0.6270 -0.2021  0.6166
 6635SOL    HW224753   0.540   8.785   9.653  2.3582  0.6108  1.2619
 6636SOL     OW24754   3.598   2.968   9.812  0.1054  0.1772  0.5086
 6636SOL    HW124755   3.582   2.897   9.875 -0.1059 -1.0197 -0.8410
 6636SOL    HW224756   3.512   2.989   9.778  0.4164 -0.6866 -0.9080
 6637SOL     OW24757   3.668   1.107   0.075  0.0503 -0.1770  0.2396
 6637SOL    HW124758   3.752   1.070   0.048 -1.3410 -2.3114 -1.5624
 6637SOL    HW224759   3.604   1.063   0.019 -2.3597  0.7819  2.0810
 6638SOL     OW24760   1.240   0.546   7.314 -0.4643 -0.1158  0.0095
 6638SOL    HW124761   1.282   0.581   7.393 -1.9065  0.1443  0.7117
 6638SOL    HW224762   1.302   0.561   7.244  0.5233  0.3902  0.9708
 6639SOL     OW24763   1.876   6.556   9.103  0.0360  0.1774 -0.1662
 6639SOL    HW124764   1.958   6.567   9.054 -1.3918 -0.1353 -2.7875
 6639SOL    HW224765   1.825   6.634   9.081 -1.3221 -0.8062 -0.5946
 6640SOL     OW24766   2.575   0.719   7.125 -0.3572 -0.5081  0.8792
 6640SOL    HW124767   2.526   0.714   7.043  0.5515 -0.1419  0.2996
 6640SOL    HW224768   2.568   0.811   7.151  0.1822 -0.4074  0.6844
 6641SOL     OW24769   3.160   1.459   9.617  0.6010  0.3746 -0.3437
 6641SOL    HW124770   3.130   1.376   9.580 -0.1587  0.4625  0.0423
 6641SOL    HW224771   3.255   1.454   9.615  0.5613 -0.3279 -0.7170
 6642SOL     OW24772   0.981   1.252   7.544 -0.2445 -0.3713  0.3551
 6642SOL    HW124773   0.986   1.249   7.448  1.5346  0.2244  0.4029
 6642SOL    HW224774   1.065   1.218   7.573 -0.4920  0.1452  1.7091
 6643SOL     OW24775   3.288   0.799   7.079  0.5388  0.1840 -0.1774
 6643SOL    HW124776   3.314   0.728   7.020  1.9187  0.5355 -0.0328
 6643SOL    HW224777   3.199   0.821   7.052  0.2342 -1.3157 -0.4922
 6644SOL     OW24778   2.359   0.453   8.459  0.2030 -0.0875 -0.1221
 6644SOL    HW124779   2.446   0.492   8.462  0.2838 -0.3342  0.9955
 6644SOL    HW224780   2.299   0.527   8.460  0.3828  0.1266 -1.8354
 6645SOL     OW24781   1.677   2.554   8.101 -0.2115  0.0743  0.0568
 6645SOL    HW124782   1.766   2.528   8.122 -0.5745  0.4729  2.3513
 6645SOL    HW224783   1.681   2.649   8.089 -0.3603  0.1454  0.5266
 6646SOL     OW24784   3.509   0.503   7.602  0.3235 -0.0282 -0.5764
 6646SOL    HW124785   3.566   0.563   7.650  1.4818 -0.5992 -1.2030
 6646SOL    HW224786   3.564   0.466   7.533  0.4301 -3.6483  1.1779
 6647SOL     OW24787   2.195   0.252   8.740 -0.5521 -0.2978  0.0793
 6647SOL    HW124788   2.147   0.271   8.660  0.5849 -0.9488 -0.7825
 6647SOL    HW224789   2.139   0.192   8.789 -2.1160  1.5610  0.6981
 6648SOL     OW24790   3.625   0.125   3.469  0.0845  0.0852  0.1942
 6648SOL    HW124791   3.717   0.151   3.466 -0.2092  1.0476 -1.6941
 6648SOL    HW224792   3.581   0.198   3.512  0.2852 -0.7383  1.8527
 6649SOL     OW24793   0.428   9.404   8.941  0.5455  0.0485 -0.4938
 6649SOL    HW124794   0.363   9.373   9.004  0.9159 -1.5838 -0.8640
 6649SOL    HW224795   0.512   9.391   8.986  0.6465  2.5228  0.1427
 6650SOL     OW24796   2.122   1.968   8.111 -0.5736  0.2738 -0.2364
 6650SOL    HW124797   2.197   1.972   8.170 -0.4779  1.9048 -0.4162
 6650SOL    HW224798   2.087   1.880   8.122  1.0982 -0.3735  0.1794
 6651SOL     OW24799   3.478   2.229   0.554 -0.1065 -0.2101 -0.1867
 6651SOL    HW124800   3.518   2.170   0.490 -0.1924  0.8584 -1.2481
 6651SOL    HW224801   3.454   2.172   0.627  2.6854 -1.0279  0.2176
 6652SOL     OW24802   4.448   3.129   9.682 -0.1351 -0.8564 -0.3307
 6652SOL    HW124803   4.533   3.087   9.690  1.0605  1.4371 -0.1513
 6652SOL    HW224804   4.453   3.178   9.600 -1.8824 -1.8883 -1.1028
 6653SOL     OW24805   1.306   0.446   0.967  0.8867 -0.1262  0.2075
 6653SOL    HW124806   1.340   0.534   0.984  0.1512 -0.0726  1.5838
 6653SOL    HW224807   1.369   0.407   0.907  1.3117  1.2743 -0.3149
 6654SOL     OW24808   1.779   0.788   6.247 -0.0666 -0.1555 -0.2252
 6654SOL    HW124809   1.845   0.766   6.313 -1.9856 -1.9190  1.2431
 6654SOL    HW224810   1.705   0.823   6.297 -2.0501 -2.6666 -1.1817
 6655SOL     OW24811   2.474   5.654   6.213 -0.6541  0.8197  0.4453
 6655SOL    HW124812   2.418   5.642   6.137 -1.6745  0.7593  1.1867
 6655SOL    HW224813   2.543   5.588   6.203 -0.9987  0.5519 -0.2138
 6656SOL     OW24814   0.983   2.648   8.540 -0.0958  0.5877 -0.1733
 6656SOL    HW124815   0.888   2.658   8.538 -0.1229  0.3092 -0.3160
 6656SOL    HW224816   0.997   2.564   8.583  0.0917  0.6970 -0.0199
 6657SOL     OW24817   2.766   9.838   9.227  0.4975 -0.1610 -0.2532
 6657SOL    HW124818   2.677   9.861   9.255  0.7784 -0.4692  0.9320
 6657SOL    HW224819   2.784   9.755   9.271  1.2503 -0.2712 -0.7584
 6658SOL     OW24820   0.235   1.549   9.508 -0.1155 -0.2235 -0.0461
 6658SOL    HW124821   0.167   1.484   9.495  0.0694 -0.5735  0.6661
 6658SOL    HW224822   0.264   1.572   9.420 -1.4365  0.2425 -0.3817
 6659SOL     OW24823   0.561   1.426   9.020 -0.1807  0.4216  0.5091
 6659SOL    HW124824   0.564   1.347   8.967 -0.2410 -0.1135  1.2850
 6659SOL    HW224825   0.578   1.396   9.109  0.9882  1.4536  0.6524
 6660SOL     OW24826   3.331   1.693   7.033 -0.6674  0.0212  0.0746
 6660SOL    HW124827   3.348   1.651   7.118  0.8403  1.3880  0.4887
 6660SOL    HW224828   3.252   1.745   7.048 -0.4050  0.2624  0.6515
 6661SOL     OW24829   2.762   0.543   9.116 -0.1697 -0.1556 -0.4396
 6661SOL    HW124830   2.697   0.612   9.132  1.7935  1.4050  1.3665
 6661SOL    HW224831   2.710   0.467   9.089 -2.7864  0.9475  1.1072
 6662SOL     OW24832   1.821   0.735   8.604  0.6061  0.5121  0.8144
 6662SOL    HW124833   1.907   0.773   8.619  0.2142  0.5999  3.4619
 6662SOL    HW224834   1.834   0.670   8.536  2.3755  1.7391 -0.0754
 6663SOL     OW24835   2.540   0.764   6.086  0.0535  0.2239 -0.0839
 6663SOL    HW124836   2.477   0.694   6.072  1.7549 -1.2942 -0.5062
 6663SOL    HW224837   2.510   0.809   6.165 -1.9494  0.0570 -0.7006
 6664SOL     OW24838   2.892   1.482   7.855  0.6727 -0.1085  0.6871
 6664SOL    HW124839   2.885   1.534   7.775  0.3242 -0.3007  0.5933
 6664SOL    HW224840   2.903   1.392   7.825 -1.0752 -0.4105  0.8351
 6665SOL     OW24841   3.299   0.669   8.792 -0.1451  0.0842  0.0520
 6665SOL    HW124842   3.251   0.589   8.769  0.5355  0.0188 -1.2503
 6665SOL    HW224843   3.375   0.669   8.734 -0.8103  2.3426 -0.9329
 6666SOL     OW24844   3.176   3.447   8.722 -0.3939 -0.1359  0.4583
 6666SOL    HW124845   3.250   3.430   8.664 -0.4311 -0.5703  0.5322
 6666SOL    HW224846   3.100   3.444   8.665 -0.4541 -0.8175  0.5655
 6667SOL     OW24847   6.112   1.874   0.589  0.0984 -0.0297  0.3059
 6667SOL    HW124848   6.079   1.951   0.543 -0.5255  0.9376  2.2700
 6667SOL    HW224849   6.174   1.835   0.528 -1.7475  0.3260 -1.9285
 6668SOL     OW24850   3.566   0.858   8.719 -0.0543 -0.3649  0.3761
 6668SOL    HW124851   3.656   0.839   8.744  0.0662  0.4096  0.5526
 6668SOL    HW224852   3.566   0.857   8.623  0.4978  1.1260  0.3258
 6669SOL     OW24853   3.051   0.812   9.098 -0.0940  0.0692  0.4459
 6669SOL    HW124854   2.983   0.821   9.165 -1.2467  1.6802 -0.8487
 6669SOL    HW224855   3.003   0.810   9.016  1.3809  0.0151 -0.4431
 6670SOL     OW24856   2.410   1.273   6.590  0.5678 -0.1003 -0.4261
 6670SOL    HW124857   2.391   1.298   6.681 -1.2328 -1.3751 -0.4149
 6670SOL    HW224858   2.335   1.220   6.563  1.2585 -0.0792 -2.5483
 6671SOL     OW24859   4.007   9.588   1.882 -0.2609 -0.0671  0.1685
 6671SOL    HW124860   4.102   9.596   1.881 -0.2082 -0.2972  1.3266
 6671SOL    HW224861   3.977   9.667   1.927 -0.4370 -1.0370  1.8784
 6672SOL     OW24862   4.174   2.025   8.440 -0.5160  0.0549 -0.2493
 6672SOL    HW124863   4.090   2.057   8.406 -0.8696 -0.4333  0.1438
 6672SOL    HW224864   4.153   1.990   8.527  0.4940  1.9054  0.7912
 6673SOL     OW24865   0.936   2.976   7.126  0.0503  0.4021  0.1601
 6673SOL    HW124866   0.850   3.009   7.102  0.3507  0.7476 -0.4393
 6673SOL    HW224867   0.972   3.041   7.186  0.0012  0.3869  0.2056
 6674SOL     OW24868   3.117   1.459   5.936 -0.8820  0.0632  0.6951
 6674SOL    HW124869   3.146   1.513   6.009  0.6495  0.4732 -0.1564
 6674SOL    HW224870   3.195   1.411   5.910 -1.7791 -1.2166  0.2814
 6675SOL     OW24871   3.929   1.340   9.594  0.1657  0.3495  0.6607
 6675SOL    HW124872   3.864   1.329   9.663  0.5414  1.2736  1.1779
 6675SOL    HW224873   4.013   1.320   9.636  0.3040  0.0132  0.2309
 6676SOL     OW24874   1.778   1.574   8.095  0.5120 -0.4119 -0.1081
 6676SOL    HW124875   1.737   1.658   8.074  2.4496  0.8952  0.9339
 6676SOL    HW224876   1.749   1.514   8.027 -0.5545  1.2413 -1.1650
 6677SOL     OW24877   1.166   3.088   8.635 -0.0530  0.5266 -0.9118
 6677SOL    HW124878   1.160   3.174   8.677 -0.5109 -0.6522  1.6191
 6677SOL    HW224879   1.154   3.106   8.542  1.9294  3.4134 -0.7159
 6678SOL     OW24880   2.003   0.388   7.788 -0.3442 -0.1105  0.2237
 6678SOL    HW124881   2.023   0.442   7.865  2.8117 -0.2823 -0.3489
 6678SOL    HW224882   1.967   0.307   7.825 -1.2172  0.7612  1.3445
 6679SOL     OW24883   4.394   9.568   9.343  0.2523 -0.3576  0.5963
 6679SOL    HW124884   4.319   9.567   9.284  1.3669  0.2231 -0.8653
 6679SOL    HW224885   4.436   9.483   9.331  0.9865  0.0966 -0.1398
 6680SOL     OW24886   1.404   1.586   8.785  0.5535  0.2127  0.3954
 6680SOL    HW124887   1.495   1.598   8.813  1.3101 -0.9378 -1.3931
 6680SOL    HW224888   1.386   1.662   8.729 -0.4059  1.6387  2.5154
 6681SOL     OW24889   1.885   1.293   8.221  0.2959  0.2407  0.3891
 6681SOL    HW124890   1.873   1.294   8.126 -0.0301  0.1113  0.4256
 6681SOL    HW224891   1.889   1.385   8.247 -1.7578  0.3525  0.4983
 6682SOL     OW24892   3.853   6.931   8.130 -0.4439 -0.0251  0.2615
 6682SOL    HW124893   3.814   6.993   8.069  0.8621  1.3048  0.7206
 6682SOL    HW224894   3.947   6.939   8.117 -0.2111 -1.3553  0.8943
 6683SOL     OW24895   3.894   0.913   0.328 -0.2306 -0.3887 -0.1229
 6683SOL    HW124896   3.938   0.876   0.251  1.0253  0.2761  0.2543
 6683SOL    HW224897   3.802   0.887   0.318  0.0610 -0.9748 -1.4388
 6684SOL     OW24898   5.567   1.327   8.757 -0.1616 -0.0426  0.5520
 6684SOL    HW124899   5.600   1.240   8.734 -0.6957 -0.1765  0.2804
 6684SOL    HW224900   5.645   1.376   8.785  0.8364  0.5890 -2.8416
 6685SOL     OW24901   0.670   9.376   8.365 -0.1207  0.5816 -0.0493
 6685SOL    HW124902   0.577   9.354   8.355 -0.0335  0.5123 -0.7793
 6685SOL    HW224903   0.683   9.380   8.459 -0.8017  0.3116  0.0682
 6686SOL     OW24904   4.898   0.143   9.019  0.7301 -0.1202  0.2679
 6686SOL    HW124905   4.936   0.110   9.101  0.3229  1.5659  1.1928
 6686SOL    HW224906   4.816   0.095   9.009  2.1489 -2.4521 -0.7569
 6687SOL     OW24907   2.734   1.346   9.162  0.3323  0.3182 -0.7324
 6687SOL    HW124908   2.707   1.256   9.179 -0.8191  0.6436 -0.7430
 6687SOL    HW224909   2.824   1.351   9.195  1.0261 -1.2682 -2.1626
 6688SOL     OW24910   2.449   8.085   7.384  0.0768 -0.1763  0.1933
 6688SOL    HW124911   2.438   8.018   7.451  0.5516  0.4797  0.9361
 6688SOL    HW224912   2.390   8.155   7.410 -2.2991 -1.2142 -1.8793
 6689SOL     OW24913   1.808   1.674   9.244  0.2950  0.5811  1.0100
 6689SOL    HW124914   1.737   1.659   9.182  1.2627 -0.0239  0.0245
 6689SOL    HW224915   1.781   1.625   9.322 -0.5574  0.6943  0.8001
 6690SOL     OW24916   2.872   2.674   7.181 -0.4966 -0.3414  0.6875
 6690SOL    HW124917   2.836   2.627   7.106 -0.7796 -1.4739  1.5081
 6690SOL    HW224918   2.883   2.607   7.249  1.7241  0.2372  0.9962
 6691SOL     OW24919   0.384   0.941   8.136 -0.0297  0.2554  0.2633
 6691SOL    HW124920   0.294   0.960   8.111 -0.3988 -0.8731  0.6728
 6691SOL    HW224921   0.435   0.955   8.055 -0.6464  0.3258 -0.1189
 6692SOL     OW24922   2.076   9.064   0.217  0.0862 -0.5731  0.5972
 6692SOL    HW124923   2.060   9.005   0.291  0.7604 -1.1217  0.3227
 6692SOL    HW224924   1.989   9.096   0.192 -0.2776 -1.3368  0.8545
 6693SOL     OW24925   3.089   9.104   9.651  0.0569  0.3737  0.6812
 6693SOL    HW124926   2.996   9.091   9.670 -0.5328  0.1032 -1.9904
 6693SOL    HW224927   3.121   9.016   9.628  0.5623  0.7332  0.0002
 6694SOL     OW24928   1.157   1.312   9.256  0.5402 -1.0220 -0.3133
 6694SOL    HW124929   1.227   1.274   9.203  1.8414  0.4747  0.2355
 6694SOL    HW224930   1.095   1.347   9.192  2.3336  1.2099 -0.9673
 6695SOL     OW24931   3.128   0.345   0.142  0.4808 -0.1685 -0.0628
 6695SOL    HW124932   3.222   0.330   0.137  0.4046 -0.7164  0.0104
 6695SOL    HW224933   3.092   0.260   0.170  0.1119  0.4169  1.3205
 6696SOL     OW24934   2.920   1.897   9.164  0.2700  0.3040 -0.0931
 6696SOL    HW124935   2.925   1.809   9.200 -1.8481  0.3322  0.3954
 6696SOL    HW224936   2.867   1.946   9.227 -1.8775  0.8822 -2.2144
 6697SOL     OW24937   2.884   1.401   8.503 -0.0375  0.1628 -0.3618
 6697SOL    HW124938   2.850   1.314   8.524 -1.0202 -0.1962 -3.0010
 6697SOL    HW224939   2.860   1.455   8.578 -1.3527 -1.3747  0.3906
 6698SOL     OW24940   4.252   0.016   9.005  0.0706 -0.0496  0.7037
 6698SOL    HW124941   4.265   0.081   9.074  0.5436  1.5093 -0.7708
 6698SOL    HW224942   4.163   0.033   8.973  0.0491 -0.4093  0.5665
 6699SOL     OW24943   3.216   0.173   8.382  0.1735 -0.2704 -0.1941
 6699SOL    HW124944   3.163   0.127   8.317 -0.8027  1.2222 -0.5022
 6699SOL    HW224945   3.303   0.179   8.343  0.2236 -1.4760 -0.3105
 6700SOL     OW24946   3.829   1.955   8.895 -0.5241 -0.2731  0.6771
 6700SOL    HW124947   3.818   1.911   8.979  0.4437 -0.9378  0.4806
 6700SOL    HW224948   3.924   1.968   8.887 -0.7245  1.2767  0.4274
 6701SOL     OW24949   4.376   2.942   0.098  0.1636  0.7189 -0.0628
 6701SOL    HW124950   4.370   3.022   0.045 -0.6148  0.5846 -0.1906
 6701SOL    HW224951   4.297   2.944   0.152  0.7092  0.6103  0.7650
 6702SOL     OW24952   3.888   0.893   8.635  0.6125  0.4906  0.2649
 6702SOL    HW124953   3.977   0.863   8.619  1.1531  1.6347  0.9762
 6702SOL    HW224954   3.841   0.876   8.554  1.2503 -0.9122  0.1780
 6703SOL     OW24955   0.994   0.298   8.419  0.8004 -0.3676 -0.1343
 6703SOL    HW124956   1.068   0.350   8.449  0.8262 -0.9631  0.8520
 6703SOL    HW224957   0.942   0.281   8.497 -1.7767  2.1365 -1.1128
 6704SOL     OW24958   2.809   0.679   0.028 -0.2501 -0.2349 -0.2836
 6704SOL    HW124959   2.818   0.584   0.021 -0.0919 -0.1661 -1.2059
 6704SOL    HW224960   2.726   0.698  -0.016 -0.6670 -0.0160  0.5850
 6705SOL     OW24961   4.023   0.747   6.299  0.3652  0.6428  0.1178
 6705SOL    HW124962   3.934   0.734   6.333 -1.2387  2.7781 -2.7648
 6705SOL    HW224963   4.037   0.674   6.239  0.7564  0.0935  0.8631
 6706SOL     OW24964   2.576   3.478   9.205 -0.0094  0.2752  1.0999
 6706SOL    HW124965   2.658   3.431   9.189  0.1236  0.6333  0.7142
 6706SOL    HW224966   2.542   3.497   9.118  0.9152  2.5787  1.1735
 6707SOL     OW24967   4.434   2.680   9.823  0.9335  0.2238 -0.3385
 6707SOL    HW124968   4.346   2.666   9.788  0.4640 -2.4522  1.5894
 6707SOL    HW224969   4.424   2.753   9.885  0.0112 -0.1683 -0.0116
 6708SOL     OW24970   3.936   1.735   0.531 -0.0098 -0.5750  0.0271
 6708SOL    HW124971   3.875   1.672   0.570 -0.6611 -0.5291 -0.8885
 6708SOL    HW224972   3.965   1.789   0.605 -1.3587 -0.3697  0.4383
 6709SOL     OW24973   3.581   3.855   0.642  0.4415 -0.5390  0.2252
 6709SOL    HW124974   3.546   3.803   0.714 -0.1651 -0.1852  0.1918
 6709SOL    HW224975   3.515   3.848   0.573  0.4312  0.1318  0.1600
 6710SOL     OW24976   2.878   1.430   1.119  0.2999 -0.2512  0.9869
 6710SOL    HW124977   2.907   1.391   1.201 -2.4103 -2.1421  1.1845
 6710SOL    HW224978   2.839   1.358   1.070 -0.5732  1.3291 -0.7913
 6711SOL     OW24979   0.738   9.828   8.805  0.0755  0.5704  0.4898
 6711SOL    HW124980   0.677   9.892   8.770 -0.2535  1.3227  2.3056
 6711SOL    HW224981   0.690   9.745   8.805 -0.1459  0.6984 -0.1752
 6712SOL     OW24982   0.322   2.000   8.468 -0.0277  0.4260  0.4700
 6712SOL    HW124983   0.312   2.094   8.485  0.2975  0.2207  1.8582
 6712SOL    HW224984   0.272   1.957   8.537 -0.2723 -0.4392 -0.2224
 6713SOL     OW24985   2.832   3.294   0.664  0.9747 -0.3502  0.1587
 6713SOL    HW124986   2.791   3.208   0.661 -1.2068  0.6358 -2.1798
 6713SOL    HW224987   2.914   3.284   0.615  0.1114 -0.8659 -1.2367
 6714SOL     OW24988   1.485   0.264   9.507  0.8786 -0.0623  0.9974
 6714SOL    HW124989   1.579   0.280   9.510  1.0817 -1.2090  1.1534
 6714SOL    HW224990   1.455   0.278   9.597  0.7146  1.2813  0.7517
 6715SOL     OW24991   2.253   0.048   9.494 -0.5586 -0.0251  0.1154
 6715SOL    HW124992   2.264   0.039   9.588 -1.6360  0.6670  0.3247
 6715SOL    HW224993   2.280   0.138   9.475  1.6397 -0.7673 -0.5827
 6716SOL     OW24994   1.959   0.788   1.074  0.7215  0.3727 -0.2878
 6716SOL    HW124995   1.870   0.788   1.039  1.5206  2.7886 -2.6859
 6716SOL    HW224996   1.968   0.874   1.117  2.2282  0.7126 -1.1980
 6717SOL     OW24997   3.143   9.686   8.590  0.4127 -0.2228 -0.2034
 6717SOL    HW124998   3.076   9.732   8.640  0.3598  0.3695 -0.8020
 6717SOL    HW224999   3.118   9.593   8.596 -0.0213 -0.0823  0.2185
 6718SOL     OW25000   2.387   2.379   0.157 -0.5523 -0.0542  0.0988
 6718SOL    HW125001   2.374   2.292   0.196 -1.2087  0.4041  0.9365
 6718SOL    HW225002   2.347   2.440   0.219 -0.3116  0.8376 -0.5902
 6719SOL     OW25003   4.247   2.530   9.383 -0.1594 -0.3707 -0.7701
 6719SOL    HW125004   4.270   2.463   9.318 -3.0565 -1.1888 -1.0951
 6719SOL    HW225005   4.274   2.493   9.467  1.9871 -0.0872 -1.2947
 6720SOL     OW25006   4.305   9.231   8.126 -0.3545 -0.1209 -0.0810
 6720SOL    HW125007   4.237   9.245   8.060  0.7846  0.9281 -1.0535
 6720SOL    HW225008   4.364   9.166   8.086 -0.4994 -0.6632  0.5633
 6721SOL     OW25009   2.484   1.594   0.398 -0.1160  0.2828 -0.4823
 6721SOL    HW125010   2.450   1.506   0.416 -0.0900  0.8611  3.2048
 6721SOL    HW225011   2.409   1.652   0.411  0.3976  0.9720 -0.5556
 6722SOL     OW25012   1.673   0.051   0.646 -0.3051  0.0825 -0.2456
 6722SOL    HW125013   1.650   0.099   0.567 -1.0077  1.1346  0.5633
 6722SOL    HW225014   1.768   0.043   0.642 -0.2799  0.5981 -0.9342
 6723SOL     OW25015   2.701   9.674   8.375 -0.0806  0.3136 -0.1011
 6723SOL    HW125016   2.749   9.592   8.384 -0.6532 -0.1063 -0.7705
 6723SOL    HW225017   2.645   9.661   8.298 -1.4811  0.6749  0.8199
 6724SOL     OW25018   4.118   2.367   1.435  0.2172  0.0926 -0.1936
 6724SOL    HW125019   4.154   2.432   1.495 -0.5295  0.1508  0.2067
 6724SOL    HW225020   4.093   2.294   1.491 -0.8662  0.3153 -0.3695
 6725SOL     OW25021   2.101   1.045   8.921  0.1493 -0.2928  0.4466
 6725SOL    HW125022   2.180   1.034   8.868  0.6838 -2.0961  1.5232
 6725SOL    HW225023   2.076   1.136   8.908  0.3058 -0.5970 -2.7831
 6726SOL     OW25024   1.647   1.838   9.408  0.4173  0.5070  0.4176
 6726SOL    HW125025   1.715   1.849   9.341  0.3531  0.4421  0.3412
 6726SOL    HW225026   1.568   1.815   9.358  0.5991 -0.5294  0.5813
 6727SOL     OW25027   2.451   0.994   0.857  0.0389 -0.2197 -0.1054
 6727SOL    HW125028   2.402   0.912   0.868  0.5932 -0.3201  2.2187
 6727SOL    HW225029   2.497   0.984   0.774 -1.5178 -1.3819 -0.8779
 6728SOL     OW25030   3.315   1.896   8.739 -0.0020  0.0324 -0.0060
 6728SOL    HW125031   3.230   1.909   8.697  0.1861  0.2894 -0.3104
 6728SOL    HW225032   3.350   1.817   8.697 -0.2723 -0.3202  0.4222
 6729SOL     OW25033   4.146   2.530   2.453  0.4324  0.0044 -0.5153
 6729SOL    HW125034   4.198   2.562   2.528 -0.3769 -1.2732  0.6394
 6729SOL    HW225035   4.189   2.448   2.429 -0.9860 -1.0696  0.4541
 6730SOL     OW25036   1.400   2.603   1.333  0.1491 -0.5995  0.7057
 6730SOL    HW125037   1.439   2.516   1.344  1.2195 -0.1152  0.9284
 6730SOL    HW225038   1.316   2.587   1.291  0.7072 -1.6833 -0.0509
 6731SOL     OW25039   3.437   0.171   9.054 -1.1314 -0.0999 -0.3354
 6731SOL    HW125040   3.499   0.206   9.118  0.0868  0.0592 -1.5548
 6731SOL    HW225041   3.411   0.246   9.002 -1.0127 -0.4566 -0.9169
 6732SOL     OW25042   2.507   8.727   9.240  0.3263 -0.0021  0.3937
 6732SOL    HW125043   2.429   8.704   9.192 -0.1240  0.7125  0.7602
 6732SOL    HW225044   2.485   8.809   9.285  1.4286  0.4627  0.1374
 6733SOL     OW25045   2.834   0.128   0.227  0.2875 -0.5706  0.0157
 6733SOL    HW125046   2.883   0.126   0.145 -0.7340  0.0839 -0.6271
 6733SOL    HW225047   2.745   0.104   0.203  0.1024 -1.0037  1.0465
 6734SOL     OW25048   5.365   1.131   0.400  0.3748 -0.5309 -0.2405
 6734SOL    HW125049   5.299   1.066   0.378 -0.3369  0.7957 -2.3605
 6734SOL    HW225050   5.324   1.186   0.467  0.1639 -1.0099  0.0224
 6735SOL     OW25051   5.040   1.598   0.937  0.1626 -0.2261  0.6526
 6735SOL    HW125052   4.962   1.624   0.984  0.8421  2.6183  0.3926
 6735SOL    HW225053   5.016   1.605   0.845  0.4074 -0.4618  0.5682
 6736SOL     OW25054   2.408   9.444   8.767 -0.1595  0.5298  0.3690
 6736SOL    HW125055   2.409   9.356   8.805  0.8426  0.5436  0.4047
 6736SOL    HW225056   2.320   9.454   8.731 -0.7824  0.1070  1.7204
 6737SOL     OW25057   3.542   9.424   7.612 -0.4150  0.0947 -0.1384
 6737SOL    HW125058   3.620   9.479   7.602 -0.4702  0.2673  0.3420
 6737SOL    HW225059   3.577   9.339   7.639 -0.3342 -0.0911 -0.8182
 6738SOL     OW25060   2.928   1.497   0.281 -0.1722  0.9130 -0.0795
 6738SOL    HW125061   2.865   1.563   0.253 -0.6590  0.1398 -0.8802
 6738SOL    HW225062   2.911   1.486   0.375 -1.2918  0.6632 -0.2998
 6739SOL     OW25063   3.149   0.983   8.885  0.3863 -0.3990 -0.1065
 6739SOL    HW125064   3.166   0.978   8.979  0.8338 -0.4902 -0.1878
 6739SOL    HW225065   3.062   1.021   8.878  1.3702  2.1473  0.3056
 6740SOL     OW25066   4.594   1.194   1.985  0.1026 -0.2964  1.0525
 6740SOL    HW125067   4.611   1.282   1.953  0.2018  0.3470  2.7391
 6740SOL    HW225068   4.501   1.179   1.967 -0.3185  0.8034  2.1360
 6741SOL     OW25069   2.159   9.457   8.666 -0.5868  0.4722  0.4668
 6741SOL    HW125070   2.140   9.548   8.688 -3.7517  1.1199 -3.6204
 6741SOL    HW225071   2.074   9.417   8.650  0.8076 -2.4934 -0.3853
 6742SOL     OW25072   2.059   2.027   1.133  0.3149  0.3119 -0.1420
 6742SOL    HW125073   1.975   2.067   1.110  1.0443  1.7421 -0.3765
 6742SOL    HW225074   2.036   1.937   1.157 -1.1158  0.2828 -1.4527
 6743SOL     OW25075   3.083   9.735   8.307 -0.5420 -0.4202 -0.3475
 6743SOL    HW125076   3.047   9.655   8.268  0.8828 -0.6931 -1.2082
 6743SOL    HW225077   3.065   9.726   8.400 -1.9574 -0.8959 -0.6416
 6744SOL     OW25078   1.880   0.157   0.297  0.0035  0.5704  0.0375
 6744SOL    HW125079   1.817   0.218   0.259 -0.2137  1.6471  2.0173
 6744SOL    HW225080   1.947   0.212   0.335  0.1881 -0.4354  1.2481
 6745SOL     OW25081   2.352   9.483   9.566  0.0770  0.0167 -0.1027
 6745SOL    HW125082   2.383   9.498   9.476  1.1009  0.5985  0.3219
 6745SOL    HW225083   2.407   9.413   9.600  0.3792  0.4794  0.3897
 6746SOL     OW25084   4.174   0.510   9.475  0.1954  0.1495  0.2306
 6746SOL    HW125085   4.172   0.527   9.381 -0.1842 -1.2900 -0.0450
 6746SOL    HW225086   4.265   0.521   9.500  0.4443 -0.2563 -0.4747
 6747SOL     OW25087   3.815   9.094   9.456 -0.2397 -0.0624  0.3241
 6747SOL    HW125088   3.746   9.136   9.507 -0.4893  1.9225 -1.5066
 6747SOL    HW225089   3.828   9.009   9.499 -3.0895 -0.0944  1.3563
 6748SOL     OW25090   3.526   9.580   9.047  0.3914 -0.6248  0.8301
 6748SOL    HW125091   3.489   9.599   9.133  1.2400 -2.2983  1.5993
 6748SOL    HW225092   3.451   9.559   8.992 -0.3281  1.9882  0.6612
 6749SOL     OW25093   2.558   0.249   9.781  0.1427 -0.4088 -0.9950
 6749SOL    HW125094   2.549   0.224   9.873 -1.2547  1.5967 -0.5444
 6749SOL    HW225095   2.537   0.169   9.733  1.2474 -1.5975  0.3950
 6750SOL     OW25096   3.239   2.891   0.557  0.0895  0.3957 -0.0323
 6750SOL    HW125097   3.193   2.817   0.518 -1.7915  0.9740  0.9319
 6750SOL    HW225098   3.175   2.962   0.555  1.8647  2.0461 -0.9922
 6751SOL     OW25099   2.389   0.344   0.169  0.2506 -0.6181 -0.3312
 6751SOL    HW125100   2.361   0.267   0.217 -4.3657  0.5315 -0.7129
 6751SOL    HW225101   2.359   0.329   0.080 -0.4803  1.4412 -0.4768
 6752SOL     OW25102   2.950   1.663   0.027  1.0889 -1.3580  0.7377
 6752SOL    HW125103   2.896   1.691  -0.047  0.9784 -0.6173  1.0959
 6752SOL    HW225104   2.918   1.575   0.047  1.6625 -1.8996 -0.6080
 6753SOL     OW25105   5.012   0.828   8.776  0.0044  0.2616 -0.3912
 6753SOL    HW125106   5.043   0.761   8.716  3.1557  0.6671  0.6167
 6753SOL    HW225107   5.017   0.787   8.862 -0.2087  1.0825  0.0187
 6754SOL     OW25108   3.274   4.125   9.208  0.3095  0.3713 -0.1158
 6754SOL    HW125109   3.233   4.093   9.128 -0.1008  1.5069 -0.3720
 6754SOL    HW225110   3.242   4.066   9.277 -1.1075  0.7385 -0.4390
 6755SOL     OW25111   4.182   9.752   0.835  0.5622  0.0168 -0.0339
 6755SOL    HW125112   4.261   9.744   0.888  2.2174  0.1609 -2.3020
 6755SOL    HW225113   4.145   9.837   0.860  1.6659  0.3874  0.4096
 6756SOL     OW25114   3.418   0.962   9.822 -0.3356 -0.7971 -0.7938
 6756SOL    HW125115   3.382   0.944   9.909  0.7630 -0.2876 -0.2078
 6756SOL    HW225116   3.407   0.880   9.774 -3.4911 -0.2663 -1.1347
 6757SOL     OW25117   2.640   0.724   1.470  0.2834  0.0072 -0.1112
 6757SOL    HW125118   2.675   0.634   1.467  0.9928  0.1942  1.4097
 6757SOL    HW225119   2.604   0.739   1.382  2.0593 -1.0055 -1.0666
 6758SOL     OW25120   3.227   2.734   6.825  0.2936 -0.1043  0.0941
 6758SOL    HW125121   3.210   2.682   6.903  0.2124 -0.2844 -0.0424
 6758SOL    HW225122   3.154   2.796   6.821 -0.7269 -1.2994 -0.8497
 6759SOL     OW25123   3.697   0.307   8.618 -0.4987 -0.2951  0.1080
 6759SOL    HW125124   3.642   0.292   8.695 -0.6412 -2.0775 -0.2860
 6759SOL    HW225125   3.702   0.221   8.575 -0.0253  0.5459 -1.6156
 6760SOL     OW25126   3.393   1.106   0.995  0.3454  0.5030 -0.3628
 6760SOL    HW125127   3.486   1.128   0.989  0.1311  1.4886 -0.1568
 6760SOL    HW225128   3.378   1.086   1.087  0.6016 -0.8651 -0.5933
 6761SOL     OW25129   2.997   1.987   1.071  0.5057  0.0948 -0.2428
 6761SOL    HW125130   3.058   1.917   1.093  0.3538 -0.1207 -0.5122
 6761SOL    HW225131   2.952   2.006   1.154 -1.7285 -2.3077 -0.7837
 6762SOL     OW25132   2.320   1.489   1.298 -0.5381 -0.5623  0.3806
 6762SOL    HW125133   2.390   1.433   1.264  0.2663  0.1161  0.8423
 6762SOL    HW225134   2.345   1.577   1.270 -2.0842 -0.4639 -0.8400
 6763SOL     OW25135   2.304   1.627   0.123  1.0422  0.6087  0.5612
 6763SOL    HW125136   2.305   1.598   0.214  1.0110 -1.9545 -0.1765
 6763SOL    HW225137   2.279   1.719   0.128 -0.4689  0.1683  3.0367
 6764SOL     OW25138   0.560   0.033   8.391 -0.1275  0.2585 -0.0461
 6764SOL    HW125139   0.487  -0.014   8.351  1.4119 -1.8764 -0.5049
 6764SOL    HW225140   0.611   0.065   8.316 -0.1434  1.0461  0.2683
 6765SOL     OW25141   1.649   1.036   8.421  0.1873  0.2522 -0.1651
 6765SOL    HW125142   1.576   1.013   8.478 -0.3204 -0.0194 -0.9004
 6765SOL    HW225143   1.713   1.078   8.478 -0.6868  0.7915  0.4301
 6766SOL     OW25144   3.449   1.375   9.829 -0.2981  0.2620  0.1725
 6766SOL    HW125145   3.495   1.303   9.872  0.8864  0.6396 -0.4175
 6766SOL    HW225146   3.424   1.434   9.900  2.9116  1.6264  0.3559
 6767SOL     OW25147   2.260   3.057   0.491  0.5967 -0.0246 -0.2726
 6767SOL    HW125148   2.196   3.110   0.443  0.5381  0.3478  0.2096
 6767SOL    HW225149   2.215   2.974   0.507 -0.2674  0.6735  1.1761
 6768SOL     OW25150   3.158   9.235   1.027 -0.1337  0.9047 -0.5862
 6768SOL    HW125151   3.080   9.246   1.080 -0.3487 -0.7437 -0.4840
 6768SOL    HW225152   3.127   9.237   0.937 -0.3981 -0.1519 -0.5396
 6769SOL     OW25153   9.023   0.585   9.196  0.3655 -0.0121  0.0741
 6769SOL    HW125154   9.092   0.640   9.234  1.6373 -0.6783 -1.1790
 6769SOL    HW225155   9.039   0.588   9.102  0.3060 -2.2890 -0.0593
 6770SOL     OW25156   1.657   3.006   2.034  0.1495  0.3365  0.1484
 6770SOL    HW125157   1.739   3.052   2.013  0.2501  0.4082  0.6946
 6770SOL    HW225158   1.598   3.074   2.065  0.5198  0.0240  1.6232
 6771SOL     OW25159   2.834   9.581   9.343 -0.3465 -0.5139 -0.3074
 6771SOL    HW125160   2.830   9.518   9.415 -0.1695 -0.7513 -0.5000
 6771SOL    HW225161   2.890   9.651   9.375  1.8455 -1.8053 -1.0911
 6772SOL     OW25162   2.747   4.345   7.475  0.0449  0.1717 -0.5537
 6772SOL    HW125163   2.807   4.368   7.546  0.6710 -1.7341 -0.3964
 6772SOL    HW225164   2.672   4.403   7.486  0.2200  0.0528  1.5607
 6773SOL     OW25165   3.242   2.401   0.585 -0.0381 -0.8696 -0.1216
 6773SOL    HW125166   3.306   2.330   0.589 -0.5513 -1.3626 -0.5594
 6773SOL    HW225167   3.180   2.374   0.518 -1.3608 -0.9397  1.0881
 6774SOL     OW25168   9.482   4.839   8.333 -0.0875  0.1888  0.1523
 6774SOL    HW125169   9.491   4.821   8.239 -3.7912  0.0903 -0.3349
 6774SOL    HW225170   9.561   4.887   8.356  0.7630  0.5697 -3.1085
 6775SOL     OW25171   1.914   2.692   9.316  0.1675 -0.1605  0.2473
 6775SOL    HW125172   1.939   2.599   9.316 -0.8423 -0.4455  0.2204
 6775SOL    HW225173   1.859   2.701   9.238  1.6290  0.8693 -0.7351
 6776SOL     OW25174   1.848   3.082   0.837 -0.2650 -0.6076 -0.0667
 6776SOL    HW125175   1.796   3.052   0.762 -0.8996 -1.1419  0.5754
 6776SOL    HW225176   1.810   3.167   0.859 -1.6080 -1.4490  1.0523
 6777SOL     OW25177   3.689   3.040   1.488  0.0280  0.4002 -0.5441
 6777SOL    HW125178   3.714   3.078   1.403 -0.5124 -1.4971 -1.6163
 6777SOL    HW225179   3.706   2.947   1.478 -1.6680 -0.1139  0.8304
 6778SOL     OW25180   2.884   1.792   2.157  0.5254  0.3723 -0.3485
 6778SOL    HW125181   2.964   1.766   2.112  1.3646 -0.0700  1.3026
 6778SOL    HW225182   2.825   1.718   2.147  0.9219  0.0370 -0.2424
 6779SOL     OW25183   2.864   2.678   9.086  0.3412  0.3702  0.0307
 6779SOL    HW125184   2.824   2.725   9.013  0.7672  1.8033  0.6829
 6779SOL    HW225185   2.851   2.735   9.162  0.7747 -0.6274  0.8770
 6780SOL     OW25186   2.190   4.747   8.177 -0.4774  0.6339 -0.5722
 6780SOL    HW125187   2.261   4.689   8.149 -0.1762  0.4857  0.4501
 6780SOL    HW225188   2.113   4.690   8.181  0.0361 -0.0274  1.5116
 6781SOL     OW25189   0.365   3.125   0.832  0.5806 -0.3289  0.1177
 6781SOL    HW125190   0.420   3.110   0.755 -0.9076 -1.3144 -0.8069
 6781SOL    HW225191   0.363   3.042   0.878 -0.4525 -0.4315 -0.0900
 6782SOL     OW25192   2.628   2.485   0.524 -0.3920  0.1054  0.1488
 6782SOL    HW125193   2.660   2.504   0.612 -1.0620  4.2181 -0.3094
 6782SOL    HW225194   2.542   2.445   0.538  0.6231 -1.8608  1.2760
 6783SOL     OW25195   2.548   2.402   1.050  0.1010  0.5968  0.0226
 6783SOL    HW125196   2.487   2.406   0.977 -0.9730  0.8361  0.9157
 6783SOL    HW225197   2.530   2.317   1.091  0.8092  0.3952 -0.0681
 6784SOL     OW25198   1.356   2.515   9.427 -0.7617 -0.1536  0.0901
 6784SOL    HW125199   1.302   2.591   9.404 -2.1782 -1.2352 -0.2796
 6784SOL    HW225200   1.426   2.516   9.362 -2.0866 -0.4689 -1.4221
 6785SOL     OW25201   2.551   9.549   9.375 -0.0635 -0.0742  0.3401
 6785SOL    HW125202   2.629   9.561   9.322 -1.2788  1.0032 -1.3044
 6785SOL    HW225203   2.584   9.529   9.463  2.0218 -0.3139 -0.4448
 6786SOL     OW25204   0.148   2.657   1.652 -0.1684  0.1037  0.2373
 6786SOL    HW125205   0.236   2.622   1.658 -0.7973 -1.3505  1.9089
 6786SOL    HW225206   0.130   2.662   1.558  1.7604  0.7053 -0.1393
 6787SOL     OW25207   2.069   1.788   9.259  0.0762 -0.4684  0.1746
 6787SOL    HW125208   2.072   1.816   9.351 -0.4721  3.5763 -0.8545
 6787SOL    HW225209   1.977   1.772   9.241 -0.0118  0.2304 -0.0212
 6788SOL     OW25210   2.236   2.165   0.683 -0.1222 -0.2622 -0.1386
 6788SOL    HW125211   2.171   2.177   0.751  0.2845 -2.0541  0.6432
 6788SOL    HW225212   2.289   2.091   0.714  1.7732  0.6193 -1.1188
 6789SOL     OW25213   0.041   1.375   0.861 -0.1631  0.1747 -0.0770
 6789SOL    HW125214  -0.001   1.433   0.797 -1.3747 -0.4599  0.0983
 6789SOL    HW225215   0.121   1.346   0.818  0.4349  1.8881 -0.1970
 6790SOL     OW25216   4.752   4.384   0.020 -0.2107  0.4864  0.0979
 6790SOL    HW125217   4.756   4.311   0.082 -1.7060 -1.0903 -1.5697
 6790SOL    HW225218   4.694   4.447   0.062 -1.2445 -0.5817  0.3352
 6791SOL     OW25219   0.289   1.690   1.007  0.3854 -0.3969  0.1048
 6791SOL    HW125220   0.210   1.677   1.059 -0.5884  0.7331 -1.0139
 6791SOL    HW225221   0.340   1.754   1.057 -0.8032  1.1147 -0.5027
 6792SOL     OW25222   3.839   2.188   0.919  0.6163 -0.1258 -0.0282
 6792SOL    HW125223   3.917   2.150   0.960 -0.5090 -0.5795  1.8527
 6792SOL    HW225224   3.772   2.120   0.926  0.1176  0.1319 -1.8894
 6793SOL     OW25225   3.304   2.013   2.237  0.1248 -0.1987  0.1287
 6793SOL    HW125226   3.286   2.098   2.279 -1.2577  0.6945 -2.1227
 6793SOL    HW225227   3.261   2.019   2.152 -0.1478 -3.2670 -0.0293
 6794SOL     OW25228   0.882   3.125   8.115  0.4475  0.3638 -0.9378
 6794SOL    HW125229   0.800   3.106   8.160  0.4841  1.2792 -0.4559
 6794SOL    HW225230   0.884   3.063   8.043 -0.4151 -0.0241 -0.6513
 6795SOL     OW25231   3.009   3.986   1.361  0.0313  0.1164 -0.0485
 6795SOL    HW125232   2.915   3.983   1.344  0.0350  1.0689 -0.3054
 6795SOL    HW225233   3.049   3.949   1.282 -0.0947  1.0095 -0.5526
 6796SOL     OW25234   1.075   3.454   0.594 -0.2800  0.2159 -0.3643
 6796SOL    HW125235   1.049   3.478   0.505 -0.1083 -0.5049 -0.6090
 6796SOL    HW225236   1.013   3.386   0.620 -0.3305  0.4261  0.0679
 6797SOL     OW25237   3.319   1.960   1.112 -0.5537  0.1732 -0.5212
 6797SOL    HW125238   3.282   1.994   1.031 -0.6932  0.3744 -0.3756
 6797SOL    HW225239   3.342   2.038   1.162 -1.7207  0.0776  0.2040
 6798SOL     OW25240   2.765   3.271   9.703 -0.1014  0.6513 -0.0547
 6798SOL    HW125241   2.717   3.195   9.735 -2.0954  1.7285 -0.3112
 6798SOL    HW225242   2.820   3.298   9.777  1.6196 -1.6868 -0.3440
 6799SOL     OW25243   0.176   2.742   1.920  0.5452 -1.0085  0.6001
 6799SOL    HW125244   0.103   2.744   1.981  0.4841 -0.4358  0.5108
 6799SOL    HW225245   0.142   2.698   1.842 -0.1851  0.6364 -0.0452
 6800SOL     OW25246   3.198   4.973   0.393  0.1324  0.9040  0.2981
 6800SOL    HW125247   3.150   5.029   0.332 -0.8135  0.4707  0.6169
 6800SOL    HW225248   3.129   4.922   0.436  0.9683 -0.7035 -0.1918
 6801SOL     OW25249   2.299   2.070   3.325  0.2197  0.2749 -0.6630
 6801SOL    HW125250   2.255   2.153   3.345  1.7414  0.9445  0.1181
 6801SOL    HW225251   2.390   2.084   3.353  0.7708 -1.2876 -1.5385
 6802SOL     OW25252   2.040   4.067   9.264  0.0705  0.1050  0.2121
 6802SOL    HW125253   2.127   4.045   9.296  0.0018  0.6171  0.7787
 6802SOL    HW225254   1.989   4.083   9.344  0.3042  2.9837 -0.0982
 6803SOL     OW25255   9.597   1.973   1.870  0.5239  0.0509 -0.1951
 6803SOL    HW125256   9.546   1.931   1.939  1.1318 -2.1652 -1.0024
 6803SOL    HW225257   9.543   1.966   1.792  1.0861 -0.2209 -0.5698
 6804SOL     OW25258   0.880   5.324   9.343 -0.0038  0.1234  0.3951
 6804SOL    HW125259   0.843   5.314   9.254 -2.0937  1.7273  0.9899
 6804SOL    HW225260   0.835   5.257   9.394 -1.3488  1.3392  0.8806
 6805SOL     OW25261   1.086   2.791   1.443 -0.4030 -0.2920 -0.2941
 6805SOL    HW125262   1.053   2.878   1.419 -1.6997 -0.5621  0.4233
 6805SOL    HW225263   1.019   2.730   1.412 -0.6576 -0.8578  1.2999
 6806SOL     OW25264   0.062   2.359   2.334  0.6996  0.2983 -0.1100
 6806SOL    HW125265   0.030   2.290   2.276  1.1865 -0.6761  0.7455
 6806SOL    HW225266   0.157   2.348   2.334  0.8337  1.4135 -0.4909
 6807SOL     OW25267   3.669   5.195   0.759  1.0850  0.0698 -1.1004
 6807SOL    HW125268   3.623   5.278   0.773  0.6456 -0.2324 -0.7091
 6807SOL    HW225269   3.682   5.190   0.665  1.1803  0.6138 -1.1228
 6808SOL     OW25270   2.413   4.260   2.850 -0.2821  0.4988 -0.0773
 6808SOL    HW125271   2.502   4.288   2.873 -0.1490  0.4583 -0.5409
 6808SOL    HW225272   2.389   4.315   2.776 -0.2082 -0.2652 -0.6762
 6809SOL     OW25273   2.303   2.372   9.412  0.7094 -0.8807 -0.6317
 6809SOL    HW125274   2.282   2.343   9.501  2.7167  0.3380  0.3180
 6809SOL    HW225275   2.222   2.412   9.381 -0.3416 -2.2451  0.2285
 6810SOL     OW25276   3.085   0.232   9.013  0.0513  0.7003 -0.2955
 6810SOL    HW125277   3.167   0.276   8.993  0.2259  0.9613  0.9369
 6810SOL    HW225278   3.046   0.283   9.083  0.4542 -1.2937  1.4755
 6811SOL     OW25279   1.705   1.627   2.888  0.2892  1.2259  0.0136
 6811SOL    HW125280   1.661   1.549   2.923  1.1990  0.5205 -0.3842
 6811SOL    HW225281   1.661   1.700   2.932  0.1982  0.4513  1.2813
 6812SOL     OW25282   1.965   0.799   9.209  0.0732  0.2137 -0.0000
 6812SOL    HW125283   2.023   0.776   9.136 -0.2352  0.7550 -0.4273
 6812SOL    HW225284   1.884   0.753   9.191  0.0887  0.1218  0.1581
 6813SOL     OW25285   0.666   1.465   2.415 -0.1541 -0.1619  0.0882
 6813SOL    HW125286   0.577   1.436   2.395  0.4968 -0.7251 -2.3988
 6813SOL    HW225287   0.657   1.557   2.439 -1.5665 -0.6629  1.6465
 6814SOL     OW25288   1.435   1.171   1.469 -0.0159  0.2930 -0.2431
 6814SOL    HW125289   1.468   1.105   1.530 -1.8077 -0.5607 -0.1038
 6814SOL    HW225290   1.441   1.129   1.383 -1.9869 -0.5118 -0.0632
 6815SOL     OW25291   1.261   0.608   3.112 -0.4129  0.1109 -0.1620
 6815SOL    HW125292   1.318   0.680   3.086  1.9995 -1.1514  1.2729
 6815SOL    HW225293   1.229   0.572   3.029 -0.2634  1.6985 -0.9483
 6816SOL     OW25294   4.977   3.383   3.556 -0.0889  0.0117  0.2844
 6816SOL    HW125295   5.053   3.435   3.582 -0.1508  0.2968 -0.1015
 6816SOL    HW225296   5.013   3.312   3.503  0.0026 -0.3830  0.8667
 6817SOL     OW25297   3.583   2.836   0.195 -0.4833 -0.3524  0.0777
 6817SOL    HW125298   3.612   2.847   0.286  0.6924 -0.8944 -0.2066
 6817SOL    HW225299   3.531   2.756   0.196  0.1600 -0.7802  0.1534
 6818SOL     OW25300   3.123   1.495   1.614  0.4810 -0.6751 -0.0900
 6818SOL    HW125301   3.062   1.569   1.611  0.3774 -0.6884  1.1079
 6818SOL    HW225302   3.168   1.497   1.530  0.1392  0.4635 -0.2627
 6819SOL     OW25303   1.778   3.270   0.007 -0.2547 -0.0344 -0.1342
 6819SOL    HW125304   1.727   3.215   0.067  0.5591 -0.6318  0.0310
 6819SOL    HW225305   1.755   3.238  -0.080  0.2300 -0.6639 -0.0383
 6820SOL     OW25306   2.285   4.145   0.821 -0.2860  0.0930  0.0660
 6820SOL    HW125307   2.236   4.077   0.775 -1.9639  0.6047  0.9866
 6820SOL    HW225308   2.278   4.121   0.914 -0.1879  1.0447  0.3347
 6821SOL     OW25309   4.888   5.227   1.693 -0.1997  0.5851 -0.4957
 6821SOL    HW125310   4.797   5.256   1.700  0.7402  3.6809  0.6855
 6821SOL    HW225311   4.902   5.213   1.600 -1.6871  0.7094 -0.7589
 6822SOL     OW25312   2.666   2.485   0.063  0.6164  0.3325  0.1180
 6822SOL    HW125313   2.628   2.546  -0.000 -0.8104  0.0203  0.6519
 6822SOL    HW225314   2.592   2.452   0.113  1.6595  0.2751  1.7090
 6823SOL     OW25315   1.861   4.708   2.096 -0.0697 -0.2540 -0.6578
 6823SOL    HW125316   1.806   4.644   2.142  0.4481 -0.0660  0.2389
 6823SOL    HW225317   1.827   4.708   2.006 -1.7595  0.1046 -0.0666
 6824SOL     OW25318   2.089   2.533   9.534  0.1646 -0.3864 -0.1585
 6824SOL    HW125319   2.034   2.471   9.582 -1.2400  2.0658  1.5948
 6824SOL    HW225320   2.068   2.517   9.442 -1.1602 -1.6050  0.3130
 6825SOL     OW25321   0.810   2.483   1.017  0.0918  0.4580 -0.0689
 6825SOL    HW125322   0.855   2.446   1.093 -0.3171  0.7104  0.3011
 6825SOL    HW225323   0.728   2.517   1.053  0.3695  1.5308 -0.4405
 6826SOL     OW25324   5.127   4.524   8.546 -0.3919  0.3510 -0.6967
 6826SOL    HW125325   5.142   4.558   8.634 -1.4057 -1.7709  0.3551
 6826SOL    HW225326   5.165   4.591   8.488  0.8046  1.5406  1.3328
 6827SOL     OW25327   1.313   2.007   2.192  0.4895 -0.1432  0.0682
 6827SOL    HW125328   1.391   2.044   2.233 -0.2161  1.3588  0.0945
 6827SOL    HW225329   1.240   2.060   2.226 -0.3944 -0.5828 -1.0732
 6828SOL     OW25330   3.654   3.381   1.128  0.2246  0.7060 -0.2691
 6828SOL    HW125331   3.697   3.455   1.085 -1.3312  2.1658  0.6084
 6828SOL    HW225332   3.591   3.349   1.063  2.0108 -1.0299 -1.3050
 6829SOL     OW25333   4.437   0.411   9.331  0.5545 -0.3609 -0.0419
 6829SOL    HW125334   4.508   0.386   9.272  0.1506 -0.4731 -0.4826
 6829SOL    HW225335   4.360   0.364   9.298  0.3670 -0.6035  0.7024
 6830SOL     OW25336   2.985   2.658   7.729 -0.1430  0.1856 -0.3320
 6830SOL    HW125337   3.058   2.673   7.669  0.5106  0.5953  0.5355
 6830SOL    HW225338   2.907   2.654   7.673  0.3883  1.0830 -1.1533
 6831SOL     OW25339   0.927   4.093   1.302  0.5779 -0.1655 -0.4717
 6831SOL    HW125340   0.999   4.087   1.365  0.0844 -0.6737  0.0509
 6831SOL    HW225341   0.960   4.051   1.223  1.0762  0.1630 -0.4440
 6832SOL     OW25342   2.333   5.274   9.675  0.4532  0.6146  0.6391
 6832SOL    HW125343   2.298   5.196   9.632  1.5810  0.9310 -0.9591
 6832SOL    HW225344   2.258   5.313   9.720 -1.1384  0.8754 -2.0031
 6833SOL     OW25345   3.746   3.588   0.470 -0.2419  0.0111 -0.2169
 6833SOL    HW125346   3.776   3.608   0.382 -0.0318  2.1577  0.2792
 6833SOL    HW225347   3.651   3.576   0.461 -0.3521  1.0795 -0.6368
 6834SOL     OW25348   2.313   3.015   9.650  0.2243 -0.3717  0.6741
 6834SOL    HW125349   2.228   3.008   9.693 -0.0304  1.2824  0.5157
 6834SOL    HW225350   2.306   2.956   9.574 -0.7047 -0.3999  0.7693
 6835SOL     OW25351   2.288   3.628   0.439 -0.1779  0.1336  0.3419
 6835SOL    HW125352   2.289   3.597   0.529 -0.5859 -0.7695  0.0412
 6835SOL    HW225353   2.367   3.592   0.399  0.0755  0.6453  0.3670
 6836SOL     OW25354   1.736   1.918   1.263  0.0794  0.5388 -0.5795
 6836SOL    HW125355   1.741   1.840   1.208 -0.1567  0.7550 -0.9132
 6836SOL    HW225356   1.736   1.991   1.201 -2.3473  0.7291 -0.4367
 6837SOL     OW25357   2.609   2.536   9.654 -0.2005 -0.0570 -0.3911
 6837SOL    HW125358   2.517   2.513   9.652 -0.1824 -0.6992  2.0596
 6837SOL    HW225359   2.610   2.632   9.645 -1.4533  0.3575  2.5749
 6838SOL     OW25360   3.122   3.789   9.462  0.2329 -0.3830  0.4275
 6838SOL    HW125361   3.065   3.763   9.534 -1.6291 -0.2839 -0.9397
 6838SOL    HW225362   3.123   3.884   9.465  1.0790 -0.3905  0.9596
 6839SOL     OW25363   1.740   2.073   0.013 -0.3025 -0.8509 -0.2895
 6839SOL    HW125364   1.720   2.076  -0.081  0.7867 -0.2852 -0.5185
 6839SOL    HW225365   1.761   1.982   0.031 -0.8514 -1.0266 -0.5146
 6840SOL     OW25366   2.338   1.411   9.186 -0.2418 -0.6706  0.1815
 6840SOL    HW125367   2.269   1.476   9.175  0.7621  0.5619  0.8929
 6840SOL    HW225368   2.301   1.345   9.243 -1.2575 -0.7002 -0.4872
 6841SOL     OW25369   4.369   4.956   8.599 -0.2590  0.0986 -0.2819
 6841SOL    HW125370   4.451   4.934   8.642 -0.6123  0.5316  0.6412
 6841SOL    HW225371   4.362   5.051   8.608 -0.5222  0.1483 -0.9626
 6842SOL     OW25372   3.708   1.585   1.705 -0.0968 -0.0379 -0.3002
 6842SOL    HW125373   3.735   1.624   1.789  0.8910  0.9318 -1.0420
 6842SOL    HW225374   3.685   1.495   1.727 -1.7109  0.6972  1.3581
 6843SOL     OW25375   1.920   2.724   2.091 -0.2897  0.3543 -0.5712
 6843SOL    HW125376   1.914   2.641   2.043 -0.5446 -0.4657  0.8208
 6843SOL    HW225377   1.981   2.777   2.039 -0.5665 -0.4812 -1.7897
 6844SOL     OW25378   0.727   3.426   1.120  0.1804  0.0593 -0.2219
 6844SOL    HW125379   0.749   3.353   1.063 -1.1794 -0.5125 -0.0637
 6844SOL    HW225380   0.658   3.392   1.177  1.3233  0.6737  1.6236
 6845SOL     OW25381   4.817   1.963   0.547 -0.5682 -0.6305 -0.6675
 6845SOL    HW125382   4.854   1.947   0.461 -2.2723 -2.8014 -1.0870
 6845SOL    HW225383   4.722   1.957   0.534 -0.8847 -0.5095  1.2587
 6846SOL     OW25384   1.504   1.146   2.799 -0.5310 -0.3287  0.1102
 6846SOL    HW125385   1.461   1.061   2.791  0.7081 -0.8860 -1.1699
 6846SOL    HW225386   1.593   1.131   2.766 -0.0062  1.2579  0.6957
 6847SOL     OW25387   0.981   3.010   2.024 -0.0755  0.2528  0.1085
 6847SOL    HW125388   1.031   3.089   2.005  0.5970 -0.7409 -2.6772
 6847SOL    HW225389   1.044   2.950   2.065 -0.7513  1.2699  2.8897
 6848SOL     OW25390   2.071   2.255   3.682 -0.2589 -0.2019 -0.0345
 6848SOL    HW125391   2.113   2.274   3.599 -0.5170  1.0487  0.1036
 6848SOL    HW225392   1.981   2.232   3.659 -0.3756  0.3058 -0.0999
 6849SOL     OW25393   4.766   8.823   0.202 -0.1823  0.5230 -0.0627
 6849SOL    HW125394   4.692   8.860   0.154 -2.1902  0.1609  2.5244
 6849SOL    HW225395   4.750   8.729   0.201  0.3870  0.4223  0.2748
 6850SOL     OW25396   2.486   2.483   1.336 -0.2722  0.7827  0.1135
 6850SOL    HW125397   2.520   2.471   1.247  0.6299  0.1950  0.5222
 6850SOL    HW225398   2.543   2.549   1.375 -0.2609  0.5703  0.4583
 6851SOL     OW25399   3.158   1.628   9.044 -0.1495 -0.6126 -0.6829
 6851SOL    HW125400   3.217   1.557   9.018 -0.3686 -0.3461 -2.0174
 6851SOL    HW225401   3.192   1.659   9.128 -0.4144 -2.6676  0.2158
 6852SOL     OW25402   4.723   1.303   8.900  0.0042 -0.3686  0.2022
 6852SOL    HW125403   4.700   1.215   8.930 -0.9071  0.0038  0.6458
 6852SOL    HW225404   4.640   1.352   8.904  0.6628  0.7379  0.8189
 6853SOL     OW25405   3.462   3.146   8.904  0.0200 -0.2919  0.3676
 6853SOL    HW125406   3.414   3.163   8.823 -1.4028 -1.4037  0.9140
 6853SOL    HW225407   3.548   3.184   8.890  0.6693 -2.4778 -2.5892
 6854SOL     OW25408   2.493   4.381   0.393  0.0524 -0.4838  0.4773
 6854SOL    HW125409   2.422   4.336   0.439  0.6101 -1.6319  0.2606
 6854SOL    HW225410   2.470   4.373   0.301 -0.6127  1.0376  0.4898
 6855SOL     OW25411   1.665   2.061   1.795  0.1927  0.0491 -0.2094
 6855SOL    HW125412   1.672   2.078   1.889 -0.7020 -1.8194  0.2537
 6855SOL    HW225413   1.739   2.005   1.774  0.8808  1.1618 -0.8316
 6856SOL     OW25414   2.345   3.668   1.170  0.1717 -0.1837  0.7016
 6856SOL    HW125415   2.393   3.599   1.126 -0.1134 -0.5947  1.0282
 6856SOL    HW225416   2.259   3.668   1.128  0.2252  0.0972  0.5822
 6857SOL     OW25417   2.628   3.347   2.579 -0.6723  0.2424 -0.5775
 6857SOL    HW125418   2.626   3.368   2.672  1.7343  0.5503 -0.5316
 6857SOL    HW225419   2.631   3.252   2.575 -1.5375  0.1998 -0.3918
 6858SOL     OW25420   1.639   1.999   2.080 -0.3913  0.6347  0.2742
 6858SOL    HW125421   1.605   2.018   2.167 -2.6449 -1.2936 -0.0798
 6858SOL    HW225422   1.667   1.907   2.084  0.8838  0.9424 -0.6670
 6859SOL     OW25423   4.746   4.076   3.056  0.0942 -0.0215 -0.1642
 6859SOL    HW125424   4.739   3.982   3.077  0.5383 -0.4418 -1.7120
 6859SOL    HW225425   4.835   4.086   3.023 -0.2827  0.7057 -1.0176
 6860SOL     OW25426   2.214   3.099   1.160 -0.2023  0.3937  0.8068
 6860SOL    HW125427   2.154   3.116   1.088 -0.8132  0.0618  1.2273
 6860SOL    HW225428   2.161   3.106   1.239  0.2439 -0.1660  1.1758
 6861SOL     OW25429   1.059   2.211   2.524 -1.0722  0.0471  0.4418
 6861SOL    HW125430   1.130   2.272   2.544 -0.1040 -1.0172  0.3143
 6861SOL    HW225431   0.979   2.263   2.535 -0.3541  0.8671  2.0022
 6862SOL     OW25432   9.081   0.902   1.611 -0.1353 -0.1752 -0.1282
 6862SOL    HW125433   9.113   0.986   1.644  1.2105 -0.9024  0.4677
 6862SOL    HW225434   9.077   0.846   1.688  1.8610 -1.5298 -0.9239
 6863SOL     OW25435   1.500   9.743   9.641 -0.2721  0.0957 -0.6455
 6863SOL    HW125436   1.585   9.701   9.654 -0.4653  0.0873  0.6790
 6863SOL    HW225437   1.466   9.756   9.729 -0.5149  2.4537 -1.0291
 6864SOL     OW25438   3.085   2.197   8.549  0.3820 -0.5420 -1.0187
 6864SOL    HW125439   3.060   2.112   8.586  0.7488 -0.1050  0.2871
 6864SOL    HW225440   3.180   2.201   8.561  1.1453 -1.7763 -5.0477
 6865SOL     OW25441   1.443   0.909   3.729  0.6030  0.0892 -0.2619
 6865SOL    HW125442   1.380   0.887   3.798 -0.4280 -0.0661 -1.2185
 6865SOL    HW225443   1.389   0.924   3.652  1.9008 -2.9311 -1.9099
 6866SOL     OW25444   3.419   0.753   1.774  0.2912  0.1502 -0.6692
 6866SOL    HW125445   3.398   0.813   1.844  4.2045  0.2285  0.6965
 6866SOL    HW225446   3.349   0.765   1.709 -0.6138  4.0113  0.7834
 6867SOL     OW25447   1.843   3.186   1.893  0.3292  0.0157 -0.0665
 6867SOL    HW125448   1.824   3.259   1.835 -0.1141 -0.4946 -0.5782
 6867SOL    HW225449   1.932   3.160   1.871  0.4922  0.4078  0.1262
 6868SOL     OW25450   1.798   4.220   2.782  0.6923  0.2936 -0.0484
 6868SOL    HW125451   1.733   4.259   2.841  2.2555 -0.6956  2.5342
 6868SOL    HW225452   1.789   4.126   2.796  2.3059  0.1143 -0.0035
 6869SOL     OW25453   2.877   0.876   1.685  0.4703  0.1573 -0.1718
 6869SOL    HW125454   2.871   0.952   1.742 -0.8888  1.7925 -2.3323
 6869SOL    HW225455   2.971   0.867   1.667  0.5898  2.2573 -0.9457
 6870SOL     OW25456   1.667   1.077   0.825 -0.4879 -0.1224 -0.1203
 6870SOL    HW125457   1.661   1.160   0.872 -4.0174 -0.1594 -0.2659
 6870SOL    HW225458   1.725   1.095   0.751  0.6108  1.5231  1.0696
 6871SOL     OW25459   9.795   9.138   2.223  0.0168  0.2703 -0.4577
 6871SOL    HW125460   9.862   9.180   2.169  1.0060  1.0034  1.2214
 6871SOL    HW225461   9.719   9.196   2.215  0.2201  0.4837 -0.8925
 6872SOL     OW25462   4.240   4.473   0.767 -0.6615 -0.2246  0.4955
 6872SOL    HW125463   4.268   4.441   0.853  1.5498  2.0598  0.7428
 6872SOL    HW225464   4.223   4.566   0.781  2.4792  0.8889 -1.9729
 6873SOL     OW25465   3.903   1.623   3.932  0.3095 -0.1072 -0.2783
 6873SOL    HW125466   3.818   1.637   3.975  1.0083 -2.3622  2.1216
 6873SOL    HW225467   3.881   1.587   3.847 -1.1832 -0.8087  0.3619
 6874SOL     OW25468   1.770   1.104   1.301 -0.6921  0.3731  0.2138
 6874SOL    HW125469   1.856   1.064   1.296 -0.1017  1.4989  0.9701
 6874SOL    HW225470   1.744   1.117   1.210 -0.3222 -0.4744 -0.0238
 6875SOL     OW25471   1.218   2.938   1.819 -0.0856 -0.1041  0.4622
 6875SOL    HW125472   1.151   2.946   1.887 -0.1784 -0.0062  0.3604
 6875SOL    HW225473   1.221   2.844   1.800  0.9294 -0.3247  1.5809
 6876SOL     OW25474   2.501   0.984   0.310  0.6455  0.5146  0.0409
 6876SOL    HW125475   2.503   1.071   0.270 -0.3849  0.9854  0.9538
 6876SOL    HW225476   2.430   0.938   0.266  0.7176  0.3843  0.0580
 6877SOL     OW25477   2.024   4.122   8.484  0.1629 -0.0758 -0.1246
 6877SOL    HW125478   1.973   4.200   8.506 -2.7120 -1.6514 -0.6620
 6877SOL    HW225479   2.002   4.104   8.393 -2.7437 -3.6978  1.0006
 6878SOL     OW25480   1.088   0.480   2.445 -0.4426 -0.3150 -0.1429
 6878SOL    HW125481   1.143   0.405   2.419 -0.1737  0.2862 -1.3985
 6878SOL    HW225482   1.107   0.547   2.379 -0.5032  0.9591  1.0992
 6879SOL     OW25483   1.306   3.482   1.990  0.0219 -0.1717  0.4174
 6879SOL    HW125484   1.248   3.535   2.045 -0.6482  0.8372 -1.1556
 6879SOL    HW225485   1.393   3.493   2.028 -0.3513  0.8288  1.0218
 6880SOL     OW25486   2.449   1.319   3.344 -0.0550  0.1463  0.6057
 6880SOL    HW125487   2.468   1.399   3.393  3.8593 -0.0122 -0.3372
 6880SOL    HW225488   2.445   1.347   3.253 -0.9344 -0.4637  0.4401
 6881SOL     OW25489   5.750   4.648   1.745 -0.2996 -0.3288 -0.1768
 6881SOL    HW125490   5.674   4.615   1.794  0.4314 -1.8890 -0.0271
 6881SOL    HW225491   5.825   4.604   1.785  0.3006 -2.1937 -3.0434
 6882SOL     OW25492   3.637   2.312   8.705 -0.0297  0.1466 -0.0921
 6882SOL    HW125493   3.599   2.362   8.778 -1.1920 -0.6895 -0.1058
 6882SOL    HW225494   3.683   2.240   8.747  1.9019  1.3218 -0.0576
 6883SOL     OW25495   2.891   0.824   0.309 -0.0681 -0.0130  0.2798
 6883SOL    HW125496   2.873   0.913   0.278 -2.0002  0.1002  1.5377
 6883SOL    HW225497   2.867   0.826   0.402 -2.5289 -2.4562 -0.1998
 6884SOL     OW25498   1.736   0.684   2.364  0.1665 -0.2047  0.8606
 6884SOL    HW125499   1.669   0.692   2.432  1.7599  0.4202  2.4299
 6884SOL    HW225500   1.697   0.725   2.287 -1.2146  0.2342  1.7648
 6885SOL     OW25501   5.782   3.085   1.235 -0.0618  0.3848  0.2892
 6885SOL    HW125502   5.802   3.148   1.166 -1.8704  1.7163  0.9133
 6885SOL    HW225503   5.687   3.082   1.238 -0.1313  1.5107  3.6599
 6886SOL     OW25504   5.266   4.305   9.111  0.0346 -0.0052 -0.1131
 6886SOL    HW125505   5.245   4.215   9.135  0.4179  0.0507  0.4445
 6886SOL    HW225506   5.359   4.304   9.092  0.3418  0.5439  1.2362
 6887SOL     OW25507   2.565   1.557   1.626  0.0758 -0.2688 -0.4093
 6887SOL    HW125508   2.555   1.473   1.671 -0.7355  0.0425  0.0132
 6887SOL    HW225509   2.659   1.567   1.614  0.2388 -0.8037  0.3744
 6888SOL     OW25510   2.656   0.035   2.683 -0.4197  0.1806  0.2820
 6888SOL    HW125511   2.589  -0.022   2.645 -2.7652  1.3835  2.3296
 6888SOL    HW225512   2.718  -0.025   2.724 -1.1584 -0.9342 -0.1889
 6889SOL     OW25513   3.653   3.355   0.274  0.4630 -0.2850 -0.3618
 6889SOL    HW125514   3.612   3.332   0.357 -1.0000  0.6641 -0.7944
 6889SOL    HW225515   3.594   3.419   0.234  1.8015  0.2804 -1.5371
 6890SOL     OW25516   2.070   3.845   0.169 -0.2460  0.1277  0.4659
 6890SOL    HW125517   2.056   3.890   0.253  1.0435  2.0053 -0.2511
 6890SOL    HW225518   2.017   3.895   0.107  1.1888  0.6999 -0.3447
 6891SOL     OW25519   0.936   1.642   0.197  0.2435  0.0637  0.0917
 6891SOL    HW125520   0.929   1.593   0.279 -1.1249 -0.2808 -0.2106
 6891SOL    HW225521   0.986   1.720   0.220  2.3940 -1.3728  0.6119
 6892SOL     OW25522   4.283   4.576   2.954  0.0918 -0.2095 -0.4296
 6892SOL    HW125523   4.210   4.521   2.923 -1.6948  0.8922  1.5533
 6892SOL    HW225524   4.273   4.657   2.905  1.7597 -0.9662 -2.1749
 6893SOL     OW25525   1.141   3.915   0.464  0.4269 -0.2862 -0.5889
 6893SOL    HW125526   1.105   3.899   0.377  0.9549 -1.9439 -0.5537
 6893SOL    HW225527   1.201   3.841   0.478  2.4044  1.3577  0.1010
 6894SOL     OW25528   2.049   1.722   1.161  0.7236 -0.3831  0.2732
 6894SOL    HW125529   1.960   1.715   1.125  0.4323  1.5226  0.5011
 6894SOL    HW225530   2.105   1.682   1.095 -0.1798 -0.4560 -0.4743
 6895SOL     OW25531   3.187   2.946   0.969  0.0380  0.4259 -0.5999
 6895SOL    HW125532   3.160   2.867   0.923  2.1347  0.1237 -1.4036
 6895SOL    HW225533   3.172   3.017   0.907 -2.5386  0.8213  0.3825
 6896SOL     OW25534   2.015   0.876   1.552 -0.3086 -0.2831 -0.1053
 6896SOL    HW125535   2.071   0.808   1.517  0.4231  1.0950 -1.7587
 6896SOL    HW225536   2.053   0.898   1.638  0.1495 -1.0993 -0.0972
 6897SOL     OW25537   3.645   2.643   8.883 -0.3568  0.6644 -0.1761
 6897SOL    HW125538   3.572   2.689   8.926 -0.8308  1.1913 -1.4994
 6897SOL    HW225539   3.723   2.680   8.924 -0.7630  1.9207 -0.4659
 6898SOL     OW25540   0.093   2.751   9.353  0.0481 -0.8027 -0.0560
 6898SOL    HW125541   0.187   2.769   9.361 -0.5752  3.2691  0.3210
 6898SOL    HW225542   0.068   2.791   9.270 -1.4522 -1.4512  0.0529
 6899SOL     OW25543   2.910   4.227   1.081  0.4366  0.0434 -0.0392
 6899SOL    HW125544   2.856   4.292   1.127 -0.0895 -0.4805  0.0934
 6899SOL    HW225545   2.851   4.154   1.065 -0.1111  1.0607 -3.5962
 6900SOL     OW25546   4.248   2.506   1.643 -0.3070  0.5950  0.1115
 6900SOL    HW125547   4.318   2.445   1.669  0.0747  0.8411 -0.3271
 6900SOL    HW225548   4.239   2.564   1.719 -1.1840 -0.4439  0.8302
 6901SOL     OW25549   3.993   2.077   0.466  0.3931  0.2704 -0.0399
 6901SOL    HW125550   4.054   2.060   0.538  1.0917  1.1178 -0.4163
 6901SOL    HW225551   4.049   2.090   0.390 -0.3632 -1.4993 -0.9619
 6902SOL     OW25552   3.089   4.354   2.048 -0.4264 -0.8806 -0.7753
 6902SOL    HW125553   3.039   4.411   2.106  0.5704 -0.9717  0.1997
 6902SOL    HW225554   3.066   4.383   1.960 -1.2043 -0.0805 -0.3190
 6903SOL     OW25555   1.440   1.356   2.070 -0.1719  0.8035  0.0979
 6903SOL    HW125556   1.430   1.273   2.117 -1.7723  1.2938  0.6836
 6903SOL    HW225557   1.528   1.387   2.095 -0.4081  0.3380  1.6170
 6904SOL     OW25558   2.207   3.600   0.776 -0.1082 -0.0151 -0.1966
 6904SOL    HW125559   2.295   3.635   0.788 -0.8682  2.2037 -0.7632
 6904SOL    HW225560   2.214   3.544   0.698  0.2300  2.5244 -2.1172
 6905SOL     OW25561   2.851   4.790   3.746 -0.7438 -0.1990 -0.3624
 6905SOL    HW125562   2.819   4.876   3.722 -1.2513  0.1440  1.4276
 6905SOL    HW225563   2.806   4.730   3.687 -2.8120  0.4903  0.4396
 6906SOL     OW25564   2.153   0.346   9.540  0.4525 -0.3499 -0.3104
 6906SOL    HW125565   2.138   0.300   9.623 -0.9232  1.1534  0.3271
 6906SOL    HW225566   2.241   0.381   9.547  0.5788 -0.7624  0.2547
 6907SOL     OW25567   1.502   1.572   1.100  0.2560 -0.3881 -0.5839
 6907SOL    HW125568   1.409   1.570   1.077 -0.2457  0.1935  1.2883
 6907SOL    HW225569   1.515   1.494   1.154  0.9012 -0.5469 -0.9556
 6908SOL     OW25570   2.106   3.207   1.404  0.0561  0.6542 -0.4743
 6908SOL    HW125571   2.185   3.216   1.459  0.4166  1.0268 -1.0422
 6908SOL    HW225572   2.091   3.296   1.371 -0.1815  0.4358 -0.9494
 6909SOL     OW25573   4.183   2.196   1.206  0.3939  0.5982  0.0942
 6909SOL    HW125574   4.273   2.167   1.219 -0.1139 -0.7961  0.6610
 6909SOL    HW225575   4.162   2.245   1.286  0.3021 -0.0007  0.4402
 6910SOL     OW25576   9.642   4.770   0.416  0.4613 -0.2162 -0.2182
 6910SOL    HW125577   9.713   4.730   0.367 -0.0727  1.2119 -2.2793
 6910SOL    HW225578   9.674   4.858   0.438 -0.2794  0.0808 -0.2881
 6911SOL     OW25579   4.116   1.630   0.332  0.1342  0.0262 -0.6639
 6911SOL    HW125580   4.079   1.562   0.276  0.4645  0.3804 -1.3240
 6911SOL    HW225581   4.043   1.656   0.389  0.1755 -1.3116  0.0319
 6912SOL     OW25582   2.882   1.338   9.610  0.1113 -0.2663  0.0337
 6912SOL    HW125583   2.890   1.362   9.702  1.3477  0.7648 -0.3069
 6912SOL    HW225584   2.934   1.258   9.602 -0.9497 -1.0181  0.4369
 6913SOL     OW25585   3.715   1.726   0.849 -0.7191  0.7618 -0.4882
 6913SOL    HW125586   3.672   1.643   0.869  0.8477  0.2687  1.1398
 6913SOL    HW225587   3.694   1.743   0.757 -2.0979 -0.7867 -0.5058
 6914SOL     OW25588   0.915   4.053   1.706 -0.5182  0.7179  0.6116
 6914SOL    HW125589   0.929   3.964   1.674  2.3598  0.9750  0.9172
 6914SOL    HW225590   0.986   4.104   1.668 -1.6014  2.7369  1.1320
 6915SOL     OW25591   3.500   2.721   9.135  0.4767 -0.0399 -0.6965
 6915SOL    HW125592   3.524   2.813   9.147 -0.1152 -0.0852  1.3550
 6915SOL    HW225593   3.414   2.724   9.094 -0.6231  0.4766  1.4581
 6916SOL     OW25594   2.654   2.404   0.787  0.0323  0.0164 -0.3319
 6916SOL    HW125595   2.643   2.382   0.880 -1.6727  0.7906 -0.3020
 6916SOL    HW225596   2.626   2.324   0.741  0.8475 -0.3563 -0.2031
 6917SOL     OW25597   2.923   2.917   8.647  0.2873 -0.0534 -0.0527
 6917SOL    HW125598   2.867   2.922   8.725 -0.7562  0.5905 -0.8188
 6917SOL    HW225599   2.899   2.834   8.606  1.9641 -1.1743  1.1021
 6918SOL     OW25600   4.695   3.275   6.198  0.5132  0.5342  0.0443
 6918SOL    HW125601   4.747   3.195   6.199 -0.6549 -0.2407  0.0444
 6918SOL    HW225602   4.678   3.295   6.290  0.9368  0.8840  0.0517
 6919SOL     OW25603   5.297   1.692   0.882 -0.5903 -0.0760 -0.7614
 6919SOL    HW125604   5.204   1.675   0.892 -0.5171 -0.3630 -0.5578
 6919SOL    HW225605   5.329   1.709   0.971 -0.5244  0.4195 -0.8779
 6920SOL     OW25606   2.642   3.498   0.569 -0.1299  0.1075 -0.5697
 6920SOL    HW125607   2.710   3.443   0.609  1.2893  2.2413  0.1314
 6920SOL    HW225608   2.614   3.556   0.639 -3.7051 -1.4694 -0.4715
 6921SOL     OW25609   2.578   4.057   1.045  0.0083 -0.7535  0.0918
 6921SOL    HW125610   2.484   4.049   1.065  0.2416  0.3224  1.8196
 6921SOL    HW225611   2.587   4.018   0.958 -2.0066 -1.0732 -0.0285
 6922SOL     OW25612   4.234   5.568   0.897 -0.7286 -0.3362  0.1177
 6922SOL    HW125613   4.241   5.632   0.826  0.2673 -0.2680  0.2595
 6922SOL    HW225614   4.140   5.557   0.911 -0.9244  1.6309  0.5849
 6923SOL     OW25615   3.275   2.550   9.364 -0.3374 -0.3878 -0.0121
 6923SOL    HW125616   3.186   2.552   9.328 -1.4719  1.0919  2.5699
 6923SOL    HW225617   3.329   2.517   9.292 -3.1096 -2.5410 -1.3075
 6924SOL     OW25618   3.462   4.959   9.328 -0.3183  0.3590 -0.1184
 6924SOL    HW125619   3.405   5.028   9.361  1.1544  2.1422 -1.1067
 6924SOL    HW225620   3.543   4.969   9.377 -0.5973 -1.8028  0.9061
 6925SOL     OW25621   2.655   2.418   1.651  0.1796 -0.3766  0.4519
 6925SOL    HW125622   2.619   2.424   1.739  0.0867  0.2202  0.3785
 6925SOL    HW225623   2.629   2.331   1.620 -0.3109 -0.3518  0.7836
 6926SOL     OW25624   1.494   2.354   1.351 -0.4388 -0.4554  0.6287
 6926SOL    HW125625   1.550   2.303   1.410 -1.0686 -0.6979  1.0249
 6926SOL    HW225626   1.513   2.318   1.264 -0.7658 -1.2881  0.8832
 6927SOL     OW25627   0.599   2.928   1.637  0.2133 -0.2465 -0.6604
 6927SOL    HW125628   0.620   3.020   1.621  0.7902 -0.5077 -1.5054
 6927SOL    HW225629   0.575   2.894   1.550 -2.4604 -0.3073  0.0117
 6928SOL     OW25630   2.809   1.158   8.471 -0.5324 -0.6398 -0.1403
 6928SOL    HW125631   2.763   1.151   8.387  1.6547 -0.5325 -1.4163
 6928SOL    HW225632   2.882   1.097   8.464  1.5104  1.5667  0.3902
 6929SOL     OW25633   3.760   3.719   3.563  0.2036  0.5406  0.3917
 6929SOL    HW125634   3.726   3.632   3.585  0.5794  0.3650  0.2950
 6929SOL    HW225635   3.705   3.749   3.491 -0.6806  0.8854  1.2001
 6930SOL     OW25636   1.270   1.267   1.130 -0.2811 -0.7155  0.5019
 6930SOL    HW125637   1.188   1.234   1.092  1.2601 -1.1494 -2.8404
 6930SOL    HW225638   1.309   1.192   1.173  0.6218 -2.0160 -2.3182
 6931SOL     OW25639   1.846   1.994   9.153  0.0708  0.2511  0.3232
 6931SOL    HW125640   1.849   1.936   9.077  1.7665  2.1499 -1.1747
 6931SOL    HW225641   1.789   2.066   9.127 -3.5267 -1.4027  2.8227
 6932SOL     OW25642   3.668   2.443   4.047  0.4711 -0.4990 -0.1175
 6932SOL    HW125643   3.711   2.529   4.045  1.5798 -0.9607  1.4088
 6932SOL    HW225644   3.725   2.386   3.996  0.4820 -0.6242  0.0325
 6933SOL     OW25645   1.783   1.688   1.077 -0.6332  0.5202 -0.2068
 6933SOL    HW125646   1.834   1.612   1.049  0.0594  0.7853  0.3061
 6933SOL    HW225647   1.697   1.652   1.101  0.5237 -0.5711  2.7043
 6934SOL     OW25648   2.141   2.177   7.914 -0.0372 -0.3040  0.5428
 6934SOL    HW125649   2.103   2.115   7.977 -0.3195  0.7978  1.4861
 6934SOL    HW225650   2.180   2.122   7.846 -1.5171 -1.5031  0.6222
 6935SOL     OW25651   3.273   3.381   2.464  0.3666 -0.1861 -0.1927
 6935SOL    HW125652   3.213   3.311   2.437  0.2387 -0.2525  0.2540
 6935SOL    HW225653   3.304   3.354   2.550  1.8053 -0.6467 -0.8186
 6936SOL     OW25654   2.261   3.333   9.496 -0.1819 -0.2281  0.3426
 6936SOL    HW125655   2.309   3.370   9.570 -0.7125  0.9506  0.1231
 6936SOL    HW225656   2.178   3.304   9.532  0.1318 -0.9865  0.4656
 6937SOL     OW25657   3.027   3.955   9.077 -0.0595 -0.0306  0.8541
 6937SOL    HW125658   2.962   4.001   9.131 -1.5677 -0.3675 -0.6126
 6937SOL    HW225659   3.022   3.864   9.106 -0.8845 -0.2156  0.1724
 6938SOL     OW25660   0.371   1.912   2.747  0.1938 -0.1545 -0.0645
 6938SOL    HW125661   0.294   1.937   2.798  0.4992 -0.2904  0.4758
 6938SOL    HW225662   0.406   1.835   2.792  0.4538 -0.2950 -0.5012
 6939SOL     OW25663   4.819   6.583   0.285 -0.0147  0.1050 -0.0229
 6939SOL    HW125664   4.883   6.565   0.354 -0.2388  1.3271  0.5244
 6939SOL    HW225665   4.760   6.508   0.286  1.2696 -0.9522 -0.4052
 6940SOL     OW25666   9.441   3.134   2.479  0.2798  0.1760  0.3077
 6940SOL    HW125667   9.443   3.114   2.573 -0.3834  2.2028  0.7971
 6940SOL    HW225668   9.407   3.054   2.439 -1.0251 -0.1920  1.9923
 6941SOL     OW25669   1.422   2.475   0.937  0.0229  0.3829 -0.1467
 6941SOL    HW125670   1.327   2.484   0.952  0.3113  1.2606  1.4469
 6941SOL    HW225671   1.429   2.418   0.861 -1.8176  2.0379 -1.6623
 6942SOL     OW25672   3.943   3.211   0.634  0.7423  0.0127  0.0793
 6942SOL    HW125673   3.945   3.235   0.541 -1.3032  0.8153  0.1835
 6942SOL    HW225674   4.032   3.230   0.665  1.8793 -1.5640 -1.9680
 6943SOL     OW25675   3.210   3.712   0.339 -0.0247  0.0631  0.9563
 6943SOL    HW125676   3.126   3.682   0.374 -0.4313 -0.1605 -0.1880
 6943SOL    HW225677   3.242   3.639   0.287  0.3165  0.5719  0.4421
 6944SOL     OW25678   2.197   0.802   9.523  0.9726 -0.3810 -0.6371
 6944SOL    HW125679   2.252   0.789   9.601  0.5050  2.1603  0.2233
 6944SOL    HW225680   2.258   0.797   9.450  1.9367 -0.1450  0.1149
 6945SOL     OW25681   2.077   2.018   0.236 -0.2822 -0.2564  0.6654
 6945SOL    HW125682   2.016   1.958   0.278  0.3566 -1.7528 -0.4700
 6945SOL    HW225683   2.105   2.076   0.307 -2.1488 -0.2152  1.4476
 6946SOL     OW25684   5.179   4.484   1.513 -0.0810 -0.0924  0.6082
 6946SOL    HW125685   5.161   4.449   1.600  0.3613 -0.2558  0.6363
 6946SOL    HW225686   5.220   4.411   1.466 -1.2995 -0.3656 -0.0942
 6947SOL     OW25687   2.517   2.005   9.071 -0.6049 -0.2409 -0.2528
 6947SOL    HW125688   2.435   2.016   9.119 -0.6475  0.0783 -0.3947
 6947SOL    HW225689   2.552   1.921   9.101 -0.0601  0.4560  1.1860
 6948SOL     OW25690   0.500   4.141   8.736 -0.5653 -0.5118  0.1586
 6948SOL    HW125691   0.416   4.109   8.702 -2.2857  3.1383  0.5436
 6948SOL    HW225692   0.518   4.083   8.810 -1.8374 -2.4234 -0.9252
 6949SOL     OW25693   2.257   3.407   0.591 -0.0061 -0.5194  0.1946
 6949SOL    HW125694   2.341   3.370   0.563  0.1627 -0.3485  0.4666
 6949SOL    HW225695   2.191   3.352   0.549  0.2408 -0.3861 -0.3797
 6950SOL     OW25696   3.252   0.062   1.141 -0.1418  0.2973 -0.3435
 6950SOL    HW125697   3.221   0.130   1.081 -1.7098 -0.4164 -0.3954
 6950SOL    HW225698   3.342   0.046   1.115  0.0850  1.9564 -0.6878
 6951SOL     OW25699   1.972   2.628   0.954 -0.1594 -0.0711 -0.9457
 6951SOL    HW125700   1.877   2.615   0.946 -0.1950  0.6027 -1.7882
 6951SOL    HW225701   1.981   2.691   1.026 -0.4526  0.8188 -1.6538
 6952SOL     OW25702   0.248   0.333   1.014  0.1141  0.3962  0.5634
 6952SOL    HW125703   0.309   0.303   1.081  0.8971  0.8411  0.0708
 6952SOL    HW225704   0.224   0.421   1.041 -0.3372  0.2147  0.7662
 6953SOL     OW25705   1.945   1.821   4.360  0.0351 -0.1614 -0.4079
 6953SOL    HW125706   1.890   1.791   4.287 -0.8088 -2.2378  1.0176
 6953SOL    HW225707   1.936   1.754   4.427  1.3150  1.3574  1.3943
 6954SOL     OW25708   3.543   2.344   0.007  0.0792  0.7614  0.0383
 6954SOL    HW125709   3.603   2.312   0.074 -0.7362 -0.2087  0.3330
 6954SOL    HW225710   3.495   2.266  -0.021 -1.3551  1.5617  0.1505
 6955SOL     OW25711   2.317   4.668   0.504  0.0477 -0.1665  0.0011
 6955SOL    HW125712   2.340   4.589   0.552 -1.7356 -0.9969 -0.4112
 6955SOL    HW225713   2.322   4.641   0.412  0.6169  0.5609 -0.1818
 6956SOL     OW25714   3.696   3.501   0.734  0.4794 -0.2050  0.6748
 6956SOL    HW125715   3.603   3.521   0.726  0.6110  0.0474 -0.5168
 6956SOL    HW225716   3.731   3.515   0.645  2.1134  2.1030  1.5892
 6957SOL     OW25717   2.779   3.198   1.295 -0.0471 -0.0286 -0.0356
 6957SOL    HW125718   2.842   3.151   1.241  1.1913  2.9799 -1.4809
 6957SOL    HW225719   2.828   3.223   1.374  0.0889  0.8648 -0.3908
 6958SOL     OW25720   2.375   3.200   1.820  0.2217  0.8667  0.1464
 6958SOL    HW125721   2.352   3.240   1.903 -1.2194  1.5462 -0.5490
 6958SOL    HW225722   2.296   3.152   1.794  1.5832 -1.7467  0.5190
 6959SOL     OW25723   0.240   3.768   1.272  0.4049  0.3786  0.4156
 6959SOL    HW125724   0.251   3.673   1.265  1.8600  0.4850  0.9178
 6959SOL    HW225725   0.166   3.780   1.331 -0.7607 -0.4238 -0.8173
 6960SOL     OW25726   2.912   2.044   2.039 -0.2610  0.3259  0.2741
 6960SOL    HW125727   3.007   2.054   2.046 -0.4061  2.0559  0.0987
 6960SOL    HW225728   2.891   1.972   2.098  1.2538 -0.7089 -0.3942
 6961SOL     OW25729   2.675   2.406   4.369 -0.4468 -0.1280 -0.1678
 6961SOL    HW125730   2.723   2.485   4.347  0.3377 -0.5325  0.0557
 6961SOL    HW225731   2.586   2.422   4.338 -0.0093  0.3699 -1.1895
 6962SOL     OW25732   2.559   1.968   2.160  0.2815  1.0262 -0.1208
 6962SOL    HW125733   2.630   1.909   2.133  0.0763  0.1247  1.2046
 6962SOL    HW225734   2.486   1.945   2.103  0.3080  0.2130  0.1542
 6963SOL     OW25735   3.046   4.051   0.311  0.2103  0.2013 -0.3705
 6963SOL    HW125736   3.113   3.995   0.272 -0.7749 -2.6229  1.7090
 6963SOL    HW225737   3.093   4.101   0.378  0.1886 -3.1116  2.3971
 6964SOL     OW25738   2.601   3.207   3.258  0.2922 -0.0912 -0.0178
 6964SOL    HW125739   2.526   3.262   3.234  1.0913  1.1595  0.2728
 6964SOL    HW225740   2.620   3.156   3.179 -0.6695 -0.2106 -0.1840
 6965SOL     OW25741   2.659   2.109   0.487 -0.1241  0.3448  0.1220
 6965SOL    HW125742   2.721   2.163   0.536 -1.2567 -0.1715  2.2592
 6965SOL    HW225743   2.636   2.038   0.548 -2.5850  0.3770 -0.6749
 6966SOL     OW25744   3.748   1.423   0.480 -0.2044 -0.2913 -0.9240
 6966SOL    HW125745   3.738   1.380   0.565 -0.2027 -0.6431 -1.0998
 6966SOL    HW225746   3.663   1.464   0.463 -0.8481 -1.8258 -1.6227
 6967SOL     OW25747   2.228   1.182   0.665  0.2539 -0.0458  0.1730
 6967SOL    HW125748   2.194   1.127   0.595  0.6385 -1.1881  0.8547
 6967SOL    HW225749   2.309   1.220   0.629 -0.7630  1.2702 -0.8152
 6968SOL     OW25750   1.218   2.449   0.204 -0.1461 -0.3153  0.5469
 6968SOL    HW125751   1.165   2.414   0.132 -1.5435  2.2412  0.1891
 6968SOL    HW225752   1.180   2.535   0.222  3.4015  1.3771  0.8443
 6969SOL     OW25753   6.777   6.929   1.951  0.9200  0.3114 -0.1886
 6969SOL    HW125754   6.736   6.846   1.976  1.5380 -0.3247 -1.1853
 6969SOL    HW225755   6.840   6.946   2.020 -0.2242  0.7253  0.7831
 6970SOL     OW25756   2.042   2.279   0.866  0.5590  0.2002 -0.1962
 6970SOL    HW125757   2.006   2.200   0.827  1.3738 -0.4885  0.3855
 6970SOL    HW225758   1.966   2.328   0.898  0.0667 -0.4967 -0.2848
 6971SOL     OW25759   1.039   1.227   2.278  0.2033 -0.5433  0.6807
 6971SOL    HW125760   1.077   1.303   2.321  1.8738 -1.3216  0.6281
 6971SOL    HW225761   1.098   1.155   2.299 -0.0572 -1.3627 -1.2131
 6972SOL     OW25762   3.285   3.327   1.275 -0.0052 -0.8482  0.1442
 6972SOL    HW125763   3.316   3.251   1.226 -0.3465  0.0301 -1.5170
 6972SOL    HW225764   3.325   3.318   1.361  0.4099 -2.6053 -0.1915
 6973SOL     OW25765   3.044   4.110   2.893 -0.1372  0.1584  0.3882
 6973SOL    HW125766   3.098   4.037   2.862  0.3721  0.9788 -0.7601
 6973SOL    HW225767   2.985   4.129   2.821  1.9077  2.9297 -0.7729
 6974SOL     OW25768   3.138   1.246   2.483 -0.1984  0.3290 -0.0542
 6974SOL    HW125769   3.122   1.280   2.394 -0.8007 -0.7355 -0.3787
 6974SOL    HW225770   3.200   1.175   2.471 -1.4834 -0.8737  0.1356
 6975SOL     OW25771   0.399   9.856   2.292 -0.6400 -1.0215  0.6187
 6975SOL    HW125772   0.452   9.809   2.356 -0.6348  0.4908  1.7883
 6975SOL    HW225773   0.455   9.927   2.262 -1.5838 -0.0773  1.0305
 6976SOL     OW25774   2.416   3.836   5.199  0.4940 -0.4581 -0.2048
 6976SOL    HW125775   2.419   3.896   5.273 -0.2174  0.0694 -0.5879
 6976SOL    HW225776   2.327   3.846   5.164  1.2175  0.2647 -1.9203
 6977SOL     OW25777   4.036   2.836   2.575  0.3838 -0.2996 -0.0685
 6977SOL    HW125778   4.056   2.792   2.492  1.0256 -0.4047  0.1363
 6977SOL    HW225779   4.100   2.907   2.580 -0.2871  0.3168 -0.1281
 6978SOL     OW25780   1.557   4.430   4.172 -0.4019  0.2084  0.3539
 6978SOL    HW125781   1.526   4.471   4.253 -0.4820 -0.9475  0.9263
 6978SOL    HW225782   1.552   4.500   4.107  1.6162  1.7828  1.7454
 6979SOL     OW25783   3.675   4.939   2.632 -0.1763 -0.1966  0.0352
 6979SOL    HW125784   3.652   4.959   2.541  0.3040  3.6500  0.5653
 6979SOL    HW225785   3.595   4.903   2.670 -0.1771 -2.5907 -1.9936
 6980SOL     OW25786   3.589   5.105   4.447  0.2056 -0.0660 -0.0446
 6980SOL    HW125787   3.605   5.132   4.357  1.2034  0.7962  0.3620
 6980SOL    HW225788   3.526   5.034   4.441  0.9429 -0.6260 -1.4837
 6981SOL     OW25789   2.950   2.651   3.226 -0.0000 -0.3889  0.1808
 6981SOL    HW125790   3.023   2.678   3.282  0.1354 -0.0620 -0.1471
 6981SOL    HW225791   2.890   2.605   3.285  0.0957  0.0293  0.6079
 6982SOL     OW25792   4.458   3.093   2.544  0.3332 -0.0992  0.2699
 6982SOL    HW125793   4.414   3.054   2.468 -0.3840  2.8349 -0.9571
 6982SOL    HW225794   4.392   3.091   2.613  0.6088 -1.7651  0.5220
 6983SOL     OW25795   2.717   1.333   3.491 -0.3098 -0.0074  0.1804
 6983SOL    HW125796   2.722   1.241   3.465  2.5899 -0.0975  0.7903
 6983SOL    HW225797   2.655   1.333   3.565  0.5479 -1.7088  0.9553
 6984SOL     OW25798   4.219   1.581   2.276 -0.5062  0.0072 -0.7630
 6984SOL    HW125799   4.266   1.516   2.225  0.7912  0.7954 -0.6048
 6984SOL    HW225800   4.266   1.662   2.262 -2.2705  1.0116 -1.1847
 6985SOL     OW25801   3.317   2.680   1.688  0.1009 -0.5174  0.2284
 6985SOL    HW125802   3.394   2.678   1.630 -1.0151 -2.3931 -1.3244
 6985SOL    HW225803   3.345   2.634   1.767  0.9515  0.0045  0.2460
 6986SOL     OW25804   4.264   2.750   3.297  0.2180  0.1263 -0.2854
 6986SOL    HW125805   4.275   2.842   3.320 -1.5768 -0.1801  2.2332
 6986SOL    HW225806   4.200   2.750   3.226 -0.8404  0.7872  0.6434
 6987SOL     OW25807   2.777   1.245   4.432 -0.3261  0.1628 -0.4633
 6987SOL    HW125808   2.858   1.206   4.399 -0.7707 -0.0138 -1.3705
 6987SOL    HW225809   2.708   1.204   4.380 -1.0101  0.2578  0.3535
 6988SOL     OW25810   4.974   1.344   4.509  0.0036  0.9076  0.1167
 6988SOL    HW125811   5.057   1.373   4.547  1.3489  0.3762 -2.1462
 6988SOL    HW225812   4.945   1.418   4.455 -1.1722  1.1895  1.1068
 6989SOL     OW25813   2.992   3.542   0.382 -0.2049  0.0721  0.2309
 6989SOL    HW125814   3.022   3.470   0.437 -0.0597 -0.0542 -0.0099
 6989SOL    HW225815   3.043   3.533   0.301 -0.6161  0.0818 -0.0351
 6990SOL     OW25816   0.889   2.280   1.940  0.6226  0.3504  0.2609
 6990SOL    HW125817   0.919   2.353   1.884  2.3693  0.8267  1.7036
 6990SOL    HW225818   0.869   2.322   2.024  0.1712 -0.6344  0.6484
 6991SOL     OW25819   1.016   1.787   2.877  0.0714 -0.4636 -0.6532
 6991SOL    HW125820   1.050   1.779   2.788 -0.3754  1.2794 -1.0211
 6991SOL    HW225821   1.077   1.847   2.920 -1.2510  0.9916 -0.6835
 6992SOL     OW25822   2.797   4.430   3.755 -0.0107  0.2848  0.1216
 6992SOL    HW125823   2.808   4.507   3.809 -0.3978  1.8598 -1.9119
 6992SOL    HW225824   2.751   4.461   3.677 -0.5832 -2.0894 -0.6016
 6993SOL     OW25825   2.223   3.086   2.107  0.1326 -0.5508 -0.5477
 6993SOL    HW125826   2.152   3.071   2.171  1.3203  0.4269  1.0791
 6993SOL    HW225827   2.202   3.170   2.066 -0.9561 -1.4663 -1.9579
 6994SOL     OW25828   3.883   1.816   2.745  0.3101  0.1983  0.5088
 6994SOL    HW125829   3.802   1.766   2.750  0.4407 -0.2205 -1.0918
 6994SOL    HW225830   3.953   1.751   2.758  0.4271  0.2999  0.3961
 6995SOL     OW25831   4.661   3.381   0.154 -0.3324 -0.3006  0.2096
 6995SOL    HW125832   4.576   3.423   0.170  0.5504  1.4319  0.5437
 6995SOL    HW225833   4.676   3.328   0.233  0.3789  2.0295  1.7514
 6996SOL     OW25834   1.164   0.924   4.243  0.2802  0.2630  0.2482
 6996SOL    HW125835   1.225   0.969   4.184 -0.1206  1.6408  0.8442
 6996SOL    HW225836   1.168   0.833   4.216  0.2056  0.8223 -1.8526
 6997SOL     OW25837   1.596   1.817   2.635  0.1791  0.1975 -0.3362
 6997SOL    HW125838   1.632   1.756   2.699  1.4914  1.7255  0.4696
 6997SOL    HW225839   1.667   1.880   2.620 -1.4944  2.2509 -0.1436
 6998SOL     OW25840   2.585   4.939   2.956  0.4937 -0.2136 -0.2920
 6998SOL    HW125841   2.630   5.008   3.005  2.1670 -1.0897 -0.4936
 6998SOL    HW225842   2.656   4.891   2.913 -0.4634 -2.9340  0.9499
 6999SOL     OW25843   1.631   1.219   3.596  0.3326 -0.3357  0.8960
 6999SOL    HW125844   1.558   1.282   3.602  0.1759 -0.4460  0.1933
 6999SOL    HW225845   1.675   1.227   3.680  0.2404  0.6371  0.8723
 7000SOL     OW25846   5.171   3.080   7.640 -0.6162 -0.5679 -0.2977
 7000SOL    HW125847   5.124   2.996   7.638  0.2859 -1.1344  0.7076
 7000SOL    HW225848   5.103   3.145   7.654 -1.4499 -1.0046 -2.0298
 7001SOL     OW25849   4.345   1.093   4.548  0.0413 -0.7488 -0.5597
 7001SOL    HW125850   4.395   1.122   4.624  0.2295 -0.9533 -0.6061
 7001SOL    HW225851   4.411   1.067   4.484 -0.1157 -2.5134 -0.0606
 7002SOL     OW25852   1.127   1.638   4.863  0.2542 -0.4282 -0.2159
 7002SOL    HW125853   1.161   1.691   4.791  3.2381 -0.3540  1.1054
 7002SOL    HW225854   1.090   1.702   4.925  0.5396 -0.2124 -0.2678
 7003SOL     OW25855   3.713   3.223   3.715  0.1491 -0.5304  0.2306
 7003SOL    HW125856   3.651   3.156   3.745 -0.9384  0.0123 -0.7375
 7003SOL    HW225857   3.782   3.173   3.670 -0.9386 -1.0057 -0.9860
 7004SOL     OW25858   3.319   2.489   0.029  0.0843 -1.0482  0.0585
 7004SOL    HW125859   3.409   2.461   0.011  0.3599 -0.4742  0.4903
 7004SOL    HW225860   3.280   2.502  -0.058  1.1429  0.8971 -0.1964
 7005SOL     OW25861   2.962   4.056   0.685 -0.1697  0.2702 -0.2017
 7005SOL    HW125862   2.873   4.041   0.652 -0.3231 -0.3659  0.4722
 7005SOL    HW225863   2.986   3.973   0.726 -0.8223  1.5846  3.1645
 7006SOL     OW25864   1.357   0.354   3.292 -0.0798  0.4801  0.2170
 7006SOL    HW125865   1.281   0.354   3.234  0.7219  1.3338 -0.8611
 7006SOL    HW225866   1.369   0.262   3.316 -0.8071  0.2060 -0.4380
 7007SOL     OW25867   2.761   1.739   3.315  0.2426 -0.2075 -0.3814
 7007SOL    HW125868   2.824   1.672   3.338 -0.6672 -1.6982 -2.0005
 7007SOL    HW225869   2.706   1.749   3.394  0.2435 -1.5473 -0.1994
 7008SOL     OW25870   3.159   4.696   1.196  0.5496 -0.1852  0.4071
 7008SOL    HW125871   3.127   4.770   1.246 -0.0329  0.7136 -1.2049
 7008SOL    HW225872   3.088   4.675   1.135  1.3679 -0.9399 -0.3381
 7009SOL     OW25873   3.235   1.371   0.491 -0.3003 -0.3110 -0.0117
 7009SOL    HW125874   3.167   1.363   0.424 -0.7868  1.8235  0.1489
 7009SOL    HW225875   3.190   1.351   0.573 -0.0767 -1.4307 -0.1496
 7010SOL     OW25876   1.209   0.714   6.108  0.0314 -0.0147 -0.2190
 7010SOL    HW125877   1.140   0.674   6.162 -1.1215  1.3114 -0.6530
 7010SOL    HW225878   1.268   0.754   6.171 -0.4598  0.1956  0.1205
 7011SOL     OW25879   1.871   2.911   4.888 -0.0647  0.1438 -0.4758
 7011SOL    HW125880   1.845   2.942   4.975  1.0234 -0.8252  0.2342
 7011SOL    HW225881   1.948   2.964   4.865 -0.0390  0.0483 -0.6125
 7012SOL     OW25882   2.424   2.523   4.338 -0.7241 -0.2213  0.3644
 7012SOL    HW125883   2.462   2.604   4.374 -2.4564  1.7959 -1.9603
 7012SOL    HW225884   2.331   2.544   4.326 -1.1737 -2.4833 -0.6360
 7013SOL     OW25885   3.865   4.152   4.944 -0.1109  0.0664 -0.4802
 7013SOL    HW125886   3.835   4.103   4.867  0.8494  0.7335 -1.2944
 7013SOL    HW225887   3.920   4.090   4.991 -0.0087 -0.0737 -0.7804
 7014SOL     OW25888   5.069   2.490   3.869  0.1161  0.1463 -0.1711
 7014SOL    HW125889   5.117   2.571   3.850 -1.3093  1.4664  1.4865
 7014SOL    HW225890   4.983   2.504   3.830  0.2999 -1.2242 -1.1231
 7015SOL     OW25891   2.127   0.835   4.414 -0.2984  0.8464  0.0091
 7015SOL    HW125892   2.143   0.928   4.431  1.0467  0.2182  2.6923
 7015SOL    HW225893   2.209   0.792   4.436 -0.4453 -0.9256 -2.4903
 7016SOL     OW25894   5.373   2.286   5.512  0.3879 -0.5515 -0.7035
 7016SOL    HW125895   5.387   2.200   5.473 -0.4552 -0.6640 -0.7718
 7016SOL    HW225896   5.345   2.341   5.439  0.6717 -0.2809 -0.6113
 7017SOL     OW25897   4.246   2.172   4.196 -0.1322 -0.7000  0.3609
 7017SOL    HW125898   4.205   2.115   4.260  1.0443 -2.6093 -0.4870
 7017SOL    HW225899   4.293   2.112   4.137 -1.6169  0.8698 -2.6588
 7018SOL     OW25900   1.259   2.259   1.716  0.6007 -0.2305  0.2833
 7018SOL    HW125901   1.250   2.301   1.801  1.9187  0.9484 -0.1265
 7018SOL    HW225902   1.195   2.303   1.661  1.1047  0.3764  0.1764
 7019SOL     OW25903   1.502   2.759   0.885 -0.8286  0.8957  0.5958
 7019SOL    HW125904   1.492   2.664   0.891  1.1942  0.5327 -0.7476
 7019SOL    HW225905   1.482   2.780   0.794  1.2973  1.3343  0.1829
 7020SOL     OW25906   3.148   3.593   4.401 -0.5553  0.3020  0.1070
 7020SOL    HW125907   3.079   3.615   4.464  0.0707  2.1694  0.1882
 7020SOL    HW225908   3.105   3.534   4.339 -1.4779 -0.7198  1.6464
 7021SOL     OW25909   1.328   1.260   1.844  0.3354 -0.3714 -0.0003
 7021SOL    HW125910   1.410   1.216   1.865  2.3941  2.4789 -1.2477
 7021SOL    HW225911   1.306   1.310   1.923 -0.5254 -1.5045  0.5007
 7022SOL     OW25912   2.775   1.284   2.540 -0.1730  0.8449 -0.3590
 7022SOL    HW125913   2.797   1.194   2.516 -1.2302  0.6366 -0.6329
 7022SOL    HW225914   2.706   1.275   2.606  0.2410  1.4573  0.1734
 7023SOL     OW25915   3.231   2.552   2.148  0.4380 -0.2679 -0.7718
 7023SOL    HW125916   3.226   2.552   2.053  0.6562  1.3593 -0.8088
 7023SOL    HW225917   3.161   2.493   2.176  1.0309 -1.5874 -1.9339
 7024SOL     OW25918   2.359   2.826   5.086  1.0598  0.2989 -0.6461
 7024SOL    HW125919   2.299   2.896   5.060 -0.7279 -0.9426 -0.0436
 7024SOL    HW225920   2.446   2.859   5.062  0.0811  1.7916 -2.3593
 7025SOL     OW25921   3.456   3.917   2.338  0.3733  0.4394  0.6859
 7025SOL    HW125922   3.538   3.934   2.384  0.4235 -0.9530  1.1515
 7025SOL    HW225923   3.389   3.957   2.393  0.4791 -0.8283  1.7834
 7026SOL     OW25924   5.158   4.999   0.556  0.5091 -0.0071 -0.6428
 7026SOL    HW125925   5.118   4.943   0.490  1.6052 -1.4615 -0.1081
 7026SOL    HW225926   5.092   5.067   0.573  0.2623  0.5245 -3.3164
 7027SOL     OW25927   4.773   4.725   2.925 -0.3101  0.1792  0.0910
 7027SOL    HW125928   4.857   4.730   2.880  0.4992 -2.1117  1.2084
 7027SOL    HW225929   4.783   4.779   3.003 -0.8281  2.0254 -1.0561
 7028SOL     OW25930   2.056   4.673   0.651  0.3809  0.0802  0.1085
 7028SOL    HW125931   2.011   4.655   0.569  1.5502 -0.5307 -0.4212
 7028SOL    HW225932   2.148   4.661   0.631  0.7557  0.7639  1.3046
 7029SOL     OW25933   2.834   0.837   1.124  0.0774 -0.6984  0.0194
 7029SOL    HW125934   2.859   0.868   1.210 -1.7811  0.2702  0.2652
 7029SOL    HW225935   2.746   0.800   1.136 -0.6676  0.4135 -1.6180
 7030SOL     OW25936   3.019   5.393   0.676  0.2343 -0.4580 -0.1817
 7030SOL    HW125937   3.022   5.489   0.678 -0.9890 -0.3999 -0.4752
 7030SOL    HW225938   2.954   5.372   0.609  0.0820 -1.4831  0.2622
 7031SOL     OW25939   3.233   3.379   3.943  0.0047 -0.5466 -0.3638
 7031SOL    HW125940   3.302   3.316   3.921 -1.4291 -2.9643  1.5554
 7031SOL    HW225941   3.166   3.364   3.877 -1.0908 -2.4359  1.0739
 7032SOL     OW25942   3.121   1.924   0.436 -0.3053 -0.2863 -0.0749
 7032SOL    HW125943   3.147   1.845   0.484  1.7148  1.0450  1.1990
 7032SOL    HW225944   3.106   1.894   0.346 -0.9766 -2.3293  0.6687
 7033SOL     OW25945   4.414   2.963   6.967  0.0978 -0.0969 -0.2499
 7033SOL    HW125946   4.338   3.015   6.938  0.1652 -0.5445 -1.2747
 7033SOL    HW225947   4.429   2.901   6.896  1.2966 -0.1570  0.0344
 7034SOL     OW25948   1.672   9.819   1.406 -0.0116 -0.2334 -0.0383
 7034SOL    HW125949   1.732   9.850   1.338 -0.6936  0.1545 -0.4695
 7034SOL    HW225950   1.652   9.729   1.381 -0.9676  0.1949 -0.8578
 7035SOL     OW25951   4.346   1.597   5.205 -0.2834 -0.3462 -0.4997
 7035SOL    HW125952   4.384   1.573   5.290  0.1856  0.3509 -0.5088
 7035SOL    HW225953   4.419   1.591   5.143 -0.5090 -0.3615 -0.7657
 7036SOL     OW25954   2.898   2.844   1.692 -0.4206 -0.5867 -0.0988
 7036SOL    HW125955   2.908   2.856   1.598 -0.3297 -0.7108 -0.1059
 7036SOL    HW225956   2.922   2.929   1.730 -0.6420 -0.4785 -0.1974
 7037SOL     OW25957   1.142   0.603   3.606 -0.2743 -0.3360 -0.1173
 7037SOL    HW125958   1.077   0.612   3.536  0.2395  0.0240 -0.5566
 7037SOL    HW225959   1.227   0.607   3.561  0.0744 -2.7265  0.1724
 7038SOL     OW25960   3.722   1.249   3.516 -0.4716 -0.2800 -0.2175
 7038SOL    HW125961   3.799   1.221   3.566  0.0698 -1.1582 -1.4936
 7038SOL    HW225962   3.658   1.180   3.531 -0.5856 -0.1534 -0.1203
 7039SOL     OW25963   3.624   3.726   4.478  0.1858 -0.0447 -0.4287
 7039SOL    HW125964   3.541   3.683   4.500  0.0749 -0.4230 -1.5154
 7039SOL    HW225965   3.601   3.819   4.468 -0.1862 -0.1994 -1.0669
 7040SOL     OW25966   0.030   0.765   1.986 -0.2945 -0.5507  0.1584
 7040SOL    HW125967   0.099   0.717   1.939  0.8977  2.1060 -1.0346
 7040SOL    HW225968   0.045   0.743   2.078  0.8002 -1.6796 -0.2501
 7041SOL     OW25969   2.553   3.030   0.945  0.7992  0.6045 -0.2564
 7041SOL    HW125970   2.500   3.051   0.868  1.3506 -0.5224 -0.9606
 7041SOL    HW225971   2.643   3.045   0.917  0.9376  1.3481  0.5601
 7042SOL     OW25972   3.423   3.863   3.518 -0.0595 -0.1941  0.2803
 7042SOL    HW125973   3.356   3.801   3.543  1.2038 -1.0624  1.6824
 7042SOL    HW225974   3.473   3.879   3.598  0.4307  1.6808 -0.3255
 7043SOL     OW25975   1.397   3.341   3.301  0.4642 -0.0497 -0.5450
 7043SOL    HW125976   1.363   3.316   3.215 -0.8679 -1.1627  0.2705
 7043SOL    HW225977   1.412   3.259   3.347 -0.9243  0.5430  1.0592
 7044SOL     OW25978   0.213   0.820   3.586  0.4164  0.0257 -0.3757
 7044SOL    HW125979   0.249   0.908   3.581 -2.0361  1.2351  1.4921
 7044SOL    HW225980   0.217   0.797   3.679 -1.6473 -0.5596 -0.3725
 7045SOL     OW25981   2.309   3.199   2.479 -0.2036  0.6247  0.2877
 7045SOL    HW125982   2.319   3.194   2.574 -0.0028 -1.9742  0.1989
 7045SOL    HW225983   2.311   3.108   2.450  0.4044  1.3827 -2.2932
 7046SOL     OW25984   4.032   3.911   2.810 -0.0775 -0.4274 -0.3705
 7046SOL    HW125985   4.028   3.985   2.870 -2.0059 -0.4924 -0.3637
 7046SOL    HW225986   4.112   3.925   2.759  1.4284 -0.2012  1.9351
 7047SOL     OW25987   2.975   5.601   1.549 -0.0366 -0.9057  0.0333
 7047SOL    HW125988   2.979   5.644   1.635  0.5435 -0.4131 -0.2328
 7047SOL    HW225989   2.914   5.528   1.562 -1.8618  0.5883  0.2183
 7048SOL     OW25990   1.658   2.468   2.002  0.5246  0.3602  0.1138
 7048SOL    HW125991   1.648   2.422   2.086  0.3435 -0.2140 -0.2180
 7048SOL    HW225992   1.753   2.478   1.992  0.5439  0.4876  0.4187
 7049SOL     OW25993   2.978   3.521   3.262  0.0698  0.3503  0.3131
 7049SOL    HW125994   3.071   3.541   3.274  0.1017  0.4524 -0.0836
 7049SOL    HW225995   2.973   3.425   3.269  0.2126  0.3406  0.2839
 7050SOL     OW25996   1.234   1.728   1.876  0.2362 -0.1816 -0.2423
 7050SOL    HW125997   1.289   1.652   1.896  1.3689 -0.1785 -2.9239
 7050SOL    HW225998   1.288   1.803   1.900  0.8216 -0.2105 -1.3792
 7051SOL     OW25999   4.034   1.706   2.453  0.0748 -0.3247 -0.3535
 7051SOL    HW126000   3.996   1.631   2.498  1.2826  0.5003  2.1974
 7051SOL    HW226001   4.112   1.670   2.409 -0.5505 -0.9322 -1.0061
 7052SOL     OW26002   0.002   3.941   2.282 -0.1401  0.1859 -0.5850
 7052SOL    HW126003   0.045   4.004   2.340 -0.4243  0.2615 -0.4564
 7052SOL    HW226004  -0.064   3.899   2.336  0.2080 -0.4049 -0.6017
 7053SOL     OW26005   1.944   2.455   2.021  0.3911  0.1664  0.7774
 7053SOL    HW126006   2.020   2.466   2.077  0.7986 -2.2438  0.7968
 7053SOL    HW226007   1.905   2.372   2.049 -1.9347  1.0364  0.3789
 7054SOL     OW26008   2.881   1.013   2.610 -0.1168 -0.2841 -0.1169
 7054SOL    HW126009   2.943   0.998   2.538  1.7535 -1.1107  1.5635
 7054SOL    HW226010   2.832   0.931   2.617  0.4890 -0.6208  0.2517
 7055SOL     OW26011   3.727   1.854   2.496  0.8018 -0.4005 -0.4752
 7055SOL    HW126012   3.655   1.803   2.535  0.6905  0.4172  0.4171
 7055SOL    HW226013   3.684   1.930   2.457  1.2044  0.2538  0.3359
 7056SOL     OW26014   0.601   3.703   1.326  0.6946  0.1241  0.5294
 7056SOL    HW126015   0.694   3.716   1.305  0.3042 -1.6782 -3.1020
 7056SOL    HW226016   0.589   3.609   1.320 -1.2877  0.2899  1.4611
 7057SOL     OW26017   1.301   1.083   4.025  0.3660  0.2036  0.5011
 7057SOL    HW126018   1.331   0.998   3.995  1.8805  1.7138 -2.8133
 7057SOL    HW226019   1.207   1.084   4.003  0.6983 -0.0567 -1.0935
 7058SOL     OW26020   2.970   0.815   2.137  0.3547  0.5115  0.4805
 7058SOL    HW126021   3.020   0.744   2.096  0.7981  0.3834  1.2344
 7058SOL    HW226022   2.881   0.803   2.104  0.5949  0.1000 -0.0436
 7059SOL     OW26023   3.150   1.796   9.722  0.8918 -0.1235 -0.0740
 7059SOL    HW126024   3.129   1.876   9.771 -1.2712 -1.1860  0.9199
 7059SOL    HW226025   3.105   1.727   9.771  2.3965 -1.9108 -1.1042
 7060SOL     OW26026   4.527   1.977   2.145  0.6207 -0.2939 -0.4637
 7060SOL    HW126027   4.595   1.925   2.101  1.2704 -0.7810  1.0490
 7060SOL    HW226028   4.559   2.067   2.140  1.0450 -0.4360 -0.3727
 7061SOL     OW26029   3.432   3.588   3.872 -0.0702 -0.2831  0.6207
 7061SOL    HW126030   3.378   3.528   3.924  0.1032  0.2885  1.4947
 7061SOL    HW226031   3.370   3.647   3.831 -0.2820 -1.3473 -0.6712
 7062SOL     OW26032   1.505   5.113   9.433 -0.2565 -0.0563  0.2484
 7062SOL    HW126033   1.562   5.042   9.464 -0.2668 -0.2711 -0.2047
 7062SOL    HW226034   1.417   5.083   9.453 -0.3588 -0.8490 -1.2257
 7063SOL     OW26035   1.813   3.643   2.866 -0.3123 -0.0061 -0.3343
 7063SOL    HW126036   1.751   3.697   2.915 -0.9933 -1.6790  0.7748
 7063SOL    HW226037   1.900   3.675   2.893 -0.6937  0.0348  0.9055
 7064SOL     OW26038   3.433   2.591   1.905  0.4897  0.4038  0.0739
 7064SOL    HW126039   3.475   2.537   1.973  1.5380  0.4983 -0.4788
 7064SOL    HW226040   3.489   2.668   1.898  0.4163  0.3791 -0.9286
 7065SOL     OW26041   2.895   3.088   1.776  0.5190  0.0371 -0.2141
 7065SOL    HW126042   2.809   3.087   1.735  0.7424 -1.1770 -0.7009
 7065SOL    HW226043   2.877   3.075   1.869  0.2063 -1.1864 -0.4286
 7066SOL     OW26044   2.480   3.943   2.459  0.2537  0.4134 -0.4276
 7066SOL    HW126045   2.552   3.975   2.514  0.1817  1.4284 -0.8917
 7066SOL    HW226046   2.402   3.985   2.495 -0.0534 -0.3533 -0.1864
 7067SOL     OW26047   5.568   2.991   2.682 -0.0074  0.1585  0.0769
 7067SOL    HW126048   5.613   3.018   2.603 -0.3498  3.2570  0.8253
 7067SOL    HW226049   5.488   3.043   2.684 -1.3067 -1.7376  1.1958
 7068SOL     OW26050   2.266   4.416   3.538 -0.0648  0.3426  0.2535
 7068SOL    HW126051   2.233   4.441   3.625  0.2586  1.0290  0.1852
 7068SOL    HW226052   2.196   4.363   3.501 -2.3215  3.7945 -0.9034
 7069SOL     OW26053   3.661   3.229   2.865 -0.4782  0.6580 -0.3400
 7069SOL    HW126054   3.706   3.285   2.802  3.8043 -3.5052 -1.5811
 7069SOL    HW226055   3.630   3.154   2.813  0.2754 -1.3811  1.9370
 7070SOL     OW26056   0.675   2.640   1.774  0.4665 -0.4275 -0.0434
 7070SOL    HW126057   0.687   2.688   1.692  1.1063  1.1138  0.9120
 7070SOL    HW226058   0.580   2.641   1.789  0.2713 -1.2978 -1.0591
 7071SOL     OW26059   2.618   1.674   4.508 -0.4323 -0.1449  0.0007
 7071SOL    HW126060   2.568   1.753   4.527 -0.7181 -0.1881 -0.5656
 7071SOL    HW226061   2.668   1.696   4.429  2.4619  0.8274  1.9015
 7072SOL     OW26062   4.358   4.501   2.454 -0.0499  0.3345 -0.2217
 7072SOL    HW126063   4.380   4.423   2.505 -0.0505 -0.1753 -0.9941
 7072SOL    HW226064   4.292   4.546   2.507 -0.7647 -0.6875 -0.1983
 7073SOL     OW26065   4.832   2.579   4.354 -0.1589  0.4863  0.2980
 7073SOL    HW126066   4.865   2.590   4.265 -2.8349 -1.0003 -1.0042
 7073SOL    HW226067   4.853   2.488   4.377 -0.9701  0.3347  0.4797
 7074SOL     OW26068   5.412   2.596   1.860  0.2981  0.2794 -0.2135
 7074SOL    HW126069   5.382   2.668   1.916 -0.4277 -0.6264  0.6110
 7074SOL    HW226070   5.430   2.636   1.776 -0.5116  1.3520  0.1054
 7075SOL     OW26071   1.539   3.505   3.530  0.2831  0.0632 -0.6317
 7075SOL    HW126072   1.518   3.415   3.556 -1.4323 -0.1887 -2.6431
 7075SOL    HW226073   1.539   3.554   3.612 -1.4095 -1.2751  0.2352
 7076SOL     OW26074   2.754   2.830   4.503  0.5550  0.5697 -0.0092
 7076SOL    HW126075   2.780   2.746   4.465  0.5600  0.0237  1.1481
 7076SOL    HW226076   2.830   2.887   4.491  0.4111  0.5352 -1.1464
 7077SOL     OW26077   3.175   4.188   0.525 -0.2325  0.5119  0.0381
 7077SOL    HW126078   3.245   4.192   0.590 -0.4824 -1.2109  0.4680
 7077SOL    HW226079   3.097   4.163   0.576 -0.9289  1.3194 -0.6002
 7078SOL     OW26080   1.626   1.758   3.515 -0.2988  0.2720  0.0914
 7078SOL    HW126081   1.612   1.729   3.425 -0.0535  1.1186 -0.2277
 7078SOL    HW226082   1.566   1.831   3.526 -0.1903  0.2926  0.5505
 7079SOL     OW26083   1.473   0.318   3.859  0.4303  0.1809 -0.1824
 7079SOL    HW126084   1.486   0.287   3.769  0.6713 -0.5093  0.0819
 7079SOL    HW226085   1.489   0.412   3.854 -0.7175  0.3443 -1.0798
 7080SOL     OW26086   1.457   4.114   2.650  0.7068 -0.1598 -0.3686
 7080SOL    HW126087   1.384   4.062   2.682 -1.5589  3.2225  0.5029
 7080SOL    HW226088   1.444   4.118   2.555  1.2800 -1.5554 -0.5360
 7081SOL     OW26089   3.454   0.093   1.668 -0.4571 -0.1900  0.2652
 7081SOL    HW126090   3.391   0.160   1.693 -1.4134 -1.2155  0.7053
 7081SOL    HW226091   3.476   0.049   1.751  0.2057 -0.3700 -0.0031
 7082SOL     OW26092   2.236   2.760   3.880  0.4486 -0.0130 -0.2508
 7082SOL    HW126093   2.161   2.706   3.855  0.6957  0.0122 -1.0706
 7082SOL    HW226094   2.299   2.746   3.810  0.0435  2.2794 -1.1500
 7083SOL     OW26095   1.597   3.388   4.471 -0.5969  0.1708  0.0452
 7083SOL    HW126096   1.566   3.382   4.562 -0.1833  0.8516  0.2355
 7083SOL    HW226097   1.572   3.304   4.432  1.4659 -1.2071  1.5074
 7084SOL     OW26098   2.272   1.591   5.249  0.2033  0.5693  0.6515
 7084SOL    HW126099   2.347   1.596   5.190  0.2480  0.2054  0.6766
 7084SOL    HW226100   2.255   1.497   5.260 -0.0799  0.6411  0.8680
 7085SOL     OW26101   2.932   2.182   4.750 -0.2743  0.7050 -0.6065
 7085SOL    HW126102   2.877   2.260   4.760 -1.7608  0.0266 -2.8143
 7085SOL    HW226103   2.888   2.115   4.803 -1.5795  0.2221 -2.2025
 7086SOL     OW26104   4.949   0.797   2.183  0.3100  0.1101 -0.5299
 7086SOL    HW126105   4.879   0.740   2.216 -0.8180  0.9838 -1.2947
 7086SOL    HW226106   5.024   0.739   2.171 -0.2070 -0.8149  0.5333
 7087SOL     OW26107   2.880   1.552   2.833 -0.0656 -0.3113 -0.3887
 7087SOL    HW126108   2.786   1.567   2.841  0.3405  2.2504  0.4643
 7087SOL    HW226109   2.897   1.556   2.739 -0.9199 -1.8457 -0.6317
 7088SOL     OW26110   1.428   4.589   4.649 -0.2920  0.0272  1.0393
 7088SOL    HW126111   1.474   4.672   4.639 -0.3374 -0.0199  0.4417
 7088SOL    HW226112   1.386   4.596   4.735  0.2325  0.3584  1.2763
 7089SOL     OW26113   4.311   4.515   3.838  0.0434  0.4148 -0.0765
 7089SOL    HW126114   4.298   4.507   3.932  0.2417  0.7515 -0.0199
 7089SOL    HW226115   4.234   4.474   3.799 -0.1957  0.5696  0.2329
 7090SOL     OW26116   9.850   3.296   2.647  0.0347  0.1579 -0.1785
 7090SOL    HW126117   9.863   3.370   2.707 -0.9028  0.9838 -0.9629
 7090SOL    HW226118   9.819   3.336   2.566  0.0797 -1.0559 -0.8158
 7091SOL     OW26119   2.456   0.253   9.333 -0.3927  0.0358  0.0171
 7091SOL    HW126120   2.468   0.310   9.257 -1.0768  0.8770  0.5274
 7091SOL    HW226121   2.496   0.301   9.406  1.2536 -1.2491  0.0235
 7092SOL     OW26122   2.696   4.324   2.123  0.1201  0.6883  0.4670
 7092SOL    HW126123   2.626   4.274   2.165  0.4574 -1.5994 -1.4673
 7092SOL    HW226124   2.654   4.367   2.048  0.8595 -1.7749 -1.5120
 7093SOL     OW26125   2.653   2.060   2.408  0.6268  0.5051  0.7213
 7093SOL    HW126126   2.734   2.094   2.370  0.6645 -0.8083 -0.4787
 7093SOL    HW226127   2.611   2.012   2.336 -0.3899 -0.2542  1.7691
 7094SOL     OW26128   2.474   0.990   3.112  0.1451  0.7507  0.2841
 7094SOL    HW126129   2.393   0.998   3.162 -0.3333  0.0304 -0.3500
 7094SOL    HW226130   2.544   0.997   3.178 -0.4643 -0.0008  1.0395
 7095SOL     OW26131   3.653   1.527   5.055  0.0687  0.6984 -0.9027
 7095SOL    HW126132   3.698   1.509   5.138 -1.0805  0.8595 -0.2225
 7095SOL    HW226133   3.675   1.618   5.035  1.7540  0.1607 -1.7047
 7096SOL     OW26134   1.999   3.405   2.859  0.2124 -0.3584 -0.0565
 7096SOL    HW126135   1.965   3.495   2.851  1.2559  0.2492  1.6938
 7096SOL    HW226136   2.045   3.389   2.777 -1.6260 -0.0674 -1.2182
 7097SOL     OW26137   0.976   1.189   4.641  0.2414 -0.8275  0.0834
 7097SOL    HW126138   1.000   1.209   4.551 -2.4060 -1.7496 -0.9271
 7097SOL    HW226139   0.896   1.136   4.634 -1.4872  1.0902  3.0330
 7098SOL     OW26140   1.285   3.880   2.692 -0.5633 -0.1152  0.5645
 7098SOL    HW126141   1.199   3.916   2.711 -0.4919  0.8455 -0.7779
 7098SOL    HW226142   1.332   3.886   2.775 -1.5199  0.1261  1.1027
 7099SOL     OW26143   3.550   5.456   0.796 -0.6732 -0.1587  0.4465
 7099SOL    HW126144   3.529   5.451   0.889 -1.7338 -0.0990  0.2235
 7099SOL    HW226145   3.507   5.536   0.766 -0.4009 -0.2188 -0.1119
 7100SOL     OW26146   2.256   4.256   4.852  0.7496 -0.2238 -0.5226
 7100SOL    HW126147   2.188   4.315   4.886  1.6959  0.3804  0.3709
 7100SOL    HW226148   2.335   4.279   4.901  1.3712 -1.6031 -0.8187
 7101SOL     OW26149   2.341   2.733   4.114  0.4115  0.2305 -0.6269
 7101SOL    HW126150   2.309   2.794   4.048 -1.0169  0.4737  0.2253
 7101SOL    HW226151   2.343   2.649   4.070 -0.7940  0.3375 -0.9376
 7102SOL     OW26152   3.669   4.367   2.839  0.3418 -0.0583 -0.1407
 7102SOL    HW126153   3.691   4.458   2.858 -1.5272  0.2182  0.8997
 7102SOL    HW226154   3.649   4.329   2.924 -3.4841 -0.1138 -0.9154
 7103SOL     OW26155   0.584   0.532   3.439 -0.3799  0.7273 -0.2300
 7103SOL    HW126156   0.616   0.454   3.484 -0.4113  0.9727  0.2284
 7103SOL    HW226157   0.541   0.499   3.360 -0.4682  0.2751  0.0034
 7104SOL     OW26158   5.185   2.502   2.064 -0.1791 -0.0883 -0.6027
 7104SOL    HW126159   5.110   2.477   2.011  0.2758 -0.0687 -1.2684
 7104SOL    HW226160   5.240   2.424   2.066 -1.2248 -0.8532  1.7288
 7105SOL     OW26161   2.140   1.443   6.234 -0.1356  0.2692 -0.1834
 7105SOL    HW126162   2.131   1.415   6.142  3.2687 -0.3714 -0.4623
 7105SOL    HW226163   2.184   1.528   6.229  2.1300 -0.7662  0.7843
 7106SOL     OW26164   1.671   3.745   4.006  0.7431 -0.0530  0.1197
 7106SOL    HW126165   1.705   3.684   3.941 -0.0770  0.9425 -1.3154
 7106SOL    HW226166   1.706   3.830   3.979  0.0647  0.4339  0.7532
 7107SOL     OW26167   1.942   3.163   2.957 -0.9597 -0.0225  0.0668
 7107SOL    HW126168   1.970   3.247   2.920  3.5840 -1.1738  0.2359
 7107SOL    HW226169   1.944   3.176   3.052  0.0616 -0.3497  0.1011
 7108SOL     OW26170   1.855   3.069   0.289 -0.1464  0.2166 -0.5499
 7108SOL    HW126171   1.783   3.090   0.230 -1.1455  0.8672  0.8386
 7108SOL    HW226172   1.880   3.153   0.328  1.4950  0.0316 -1.1140
 7109SOL     OW26173   0.707   4.842   3.685 -0.1010 -0.2066 -0.5433
 7109SOL    HW126174   0.624   4.869   3.645 -0.0590 -0.0840 -0.5474
 7109SOL    HW226175   0.774   4.871   3.624 -0.0860 -0.9221 -0.8816
 7110SOL     OW26176   3.465   5.577   2.712  0.1435 -0.1606  0.3020
 7110SOL    HW126177   3.545   5.629   2.709  0.6493 -0.8715  1.1402
 7110SOL    HW226178   3.403   5.626   2.658  1.1873  0.3105 -0.4950
 7111SOL     OW26179   3.037   2.229   0.903  0.5037 -0.1321 -0.1660
 7111SOL    HW126180   3.024   2.187   0.988 -0.3252 -1.0636 -0.7374
 7111SOL    HW226181   3.128   2.211   0.881  0.7344  0.1338  0.5201
 7112SOL     OW26182   4.312   2.707   5.069 -0.1858  0.4281  0.2357
 7112SOL    HW126183   4.294   2.652   4.993 -0.9463 -0.9356  1.3352
 7112SOL    HW226184   4.386   2.665   5.112  0.5457  1.4594  0.0244
 7113SOL     OW26185   1.250   3.927   2.089  0.3840  0.3609 -0.1541
 7113SOL    HW126186   1.234   3.848   2.139  0.6735 -1.5314 -2.8299
 7113SOL    HW226187   1.263   3.995   2.155 -1.5669 -1.4096  2.2518
 7114SOL     OW26188   0.743   2.042   0.507 -0.0585 -0.3158  0.1783
 7114SOL    HW126189   0.692   2.006   0.579  0.0159  2.3278  1.6774
 7114SOL    HW226190   0.683   2.041   0.432 -1.3883  0.1611  1.1968
 7115SOL     OW26191   5.085   4.977   3.436 -0.0248 -0.0393 -0.2626
 7115SOL    HW126192   5.087   4.881   3.440  0.6455 -0.0065  0.3044
 7115SOL    HW226193   5.012   4.997   3.378 -0.6773 -0.8905  0.2396
 7116SOL     OW26194   3.178   0.792   2.597  0.3609 -0.7497 -0.2222
 7116SOL    HW126195   3.109   0.844   2.556  2.2112  2.0849 -0.0353
 7116SOL    HW226196   3.252   0.798   2.536  1.7532 -0.1444  1.4541
 7117SOL     OW26197   2.390   3.708   2.364  0.3656 -0.0009  0.3512
 7117SOL    HW126198   2.413   3.786   2.414 -1.0654  0.2812  0.6302
 7117SOL    HW226199   2.307   3.731   2.322  0.4891 -0.9816 -0.4576
 7118SOL     OW26200   3.620   3.780   3.312  0.1805  0.1686 -0.0100
 7118SOL    HW126201   3.544   3.796   3.368 -0.2402  1.6935 -0.9343
 7118SOL    HW226202   3.603   3.695   3.272 -1.5646  0.8856 -0.9208
 7119SOL     OW26203   3.507   0.858   4.522 -0.5729 -0.2139 -0.1467
 7119SOL    HW126204   3.498   0.935   4.467  0.4952 -0.2408 -0.3808
 7119SOL    HW226205   3.479   0.785   4.467  3.1312 -0.6299 -1.7544
 7120SOL     OW26206   1.342   1.330   5.440  0.1842 -1.0031  0.1947
 7120SOL    HW126207   1.409   1.304   5.504  0.3436  1.6886  1.2607
 7120SOL    HW226208   1.390   1.338   5.357  1.0340 -0.0142  0.7502
 7121SOL     OW26209   1.814   2.880   2.907 -1.0190 -0.1293 -0.4470
 7121SOL    HW126210   1.802   2.975   2.905 -0.3368 -0.0221  0.0882
 7121SOL    HW226211   1.828   2.861   3.000 -0.5402 -0.6718 -0.6284
 7122SOL     OW26212   2.577   4.163   3.139 -0.1866  0.0492 -0.1885
 7122SOL    HW126213   2.583   4.140   3.232 -2.0342 -2.4014 -0.5712
 7122SOL    HW226214   2.531   4.089   3.099  1.0481  0.7626 -3.1859
 7123SOL     OW26215   3.002   3.394   1.111 -0.7591 -0.1257 -0.0769
 7123SOL    HW126216   3.051   3.342   1.175 -0.8717 -0.4485 -0.2501
 7123SOL    HW226217   2.913   3.400   1.148 -0.9575 -0.7320 -0.4303
 7124SOL     OW26218   3.386   0.885   3.232  0.2965  0.2269  0.0676
 7124SOL    HW126219   3.471   0.857   3.266 -0.2060 -2.4777 -0.6730
 7124SOL    HW226220   3.400   0.893   3.137 -0.4198 -1.0523 -0.1728
 7125SOL     OW26221   1.143   3.713   4.227  0.0469  1.1516 -0.3424
 7125SOL    HW126222   1.118   3.785   4.169  0.6260  1.0855 -0.6883
 7125SOL    HW226223   1.149   3.753   4.313  0.7699  1.6284 -0.5966
 7126SOL     OW26224   2.454   2.981   2.917  0.8486 -0.2945  0.0442
 7126SOL    HW126225   2.447   2.892   2.951  1.1520 -0.3720 -0.0903
 7126SOL    HW226226   2.528   3.019   2.965  0.3902  0.0606  0.4821
 7127SOL     OW26227   2.092   1.439   4.631  0.4137 -0.2294  0.2888
 7127SOL    HW126228   2.051   1.523   4.611  0.1021 -0.5297 -0.3795
 7127SOL    HW226229   2.023   1.387   4.673 -0.0294 -0.8452 -1.1186
 7128SOL     OW26230   5.256   3.752   9.321 -0.0916  0.4140  0.0695
 7128SOL    HW126231   5.202   3.788   9.391 -0.9029 -0.3707 -0.1405
 7128SOL    HW226232   5.205   3.679   9.286  1.0766 -0.3030 -0.1855
 7129SOL     OW26233   3.145   4.499   3.746 -0.3057 -0.2273 -0.2883
 7129SOL    HW126234   3.134   4.593   3.761  0.5939  0.1929 -2.0404
 7129SOL    HW226235   3.203   4.493   3.670  0.8846 -2.2136  0.6911
 7130SOL     OW26236   2.460   3.582   4.333 -0.6560  0.3183  0.0112
 7130SOL    HW126237   2.390   3.520   4.355  0.5507 -2.1320 -2.3378
 7130SOL    HW226238   2.449   3.597   4.239  1.3215  0.7121 -0.1935
 7131SOL     OW26239   2.854   4.373   1.543 -0.7103 -0.0312 -0.4073
 7131SOL    HW126240   2.931   4.322   1.515 -0.1715  0.1546  0.7031
 7131SOL    HW226241   2.800   4.311   1.591 -1.8488 -0.4592 -2.1227
 7132SOL     OW26242   2.789   2.393   4.837 -0.1442 -0.2078 -0.3613
 7132SOL    HW126243   2.807   2.412   4.929  1.2871 -1.4451 -0.3526
 7132SOL    HW226244   2.742   2.471   4.806  0.6149  0.8726  1.0326
 7133SOL     OW26245   2.126   7.335   2.954 -0.5944 -0.2061  0.1486
 7133SOL    HW126246   2.183   7.408   2.931  0.4585 -1.2093 -0.6246
 7133SOL    HW226247   2.056   7.373   3.006 -0.2426  1.3827 -0.4945
 7134SOL     OW26248   5.050   0.547   2.055  0.2139 -0.1678  0.2777
 7134SOL    HW126249   5.004   0.527   1.973  0.5892 -1.0357  0.2675
 7134SOL    HW226250   4.989   0.520   2.124 -0.1677  0.7119  0.2993
 7135SOL     OW26251   0.270   3.622   9.839  0.2330  0.2235  0.2676
 7135SOL    HW126252   0.304   3.647   9.753 -0.4077  0.1944 -0.0005
 7135SOL    HW226253   0.327   3.550   9.867  2.0505  1.8888  1.0322
 7136SOL     OW26254   2.691   1.779   3.001  0.0111 -0.5272 -0.3770
 7136SOL    HW126255   2.617   1.786   2.941 -0.3962 -1.1570  0.0380
 7136SOL    HW226256   2.688   1.689   3.033 -0.8530  0.2632  1.9394
 7137SOL     OW26257   2.996   4.178   3.554 -0.0744  0.2524 -0.2857
 7137SOL    HW126258   2.948   4.194   3.635 -0.7033 -0.2408 -0.5576
 7137SOL    HW226259   2.969   4.249   3.496 -0.0361  0.2988 -0.2473
 7138SOL     OW26260   1.417   8.901   2.841  0.4530 -0.1449  0.0637
 7138SOL    HW126261   1.475   8.875   2.913  0.9691  0.2578 -0.1995
 7138SOL    HW226262   1.371   8.978   2.875  0.6755  0.0280 -0.0246
 7139SOL     OW26263   1.316   2.257   2.865 -0.2907  0.4627 -0.5116
 7139SOL    HW126264   1.261   2.335   2.868  0.3184  0.9520 -1.5752
 7139SOL    HW226265   1.395   2.285   2.818  0.4057 -0.5062  0.0395
 7140SOL     OW26266   2.029   2.187   1.820 -0.3021  0.1365  0.1361
 7140SOL    HW126267   1.945   2.231   1.807 -0.2176  0.1215 -0.4869
 7140SOL    HW226268   2.014   2.128   1.895 -0.9559 -0.1481 -0.2108
 7141SOL     OW26269   2.315   1.666   3.860 -0.1951  0.0306 -0.4113
 7141SOL    HW126270   2.394   1.719   3.875  0.1806 -0.9434  1.3053
 7141SOL    HW226271   2.258   1.688   3.934 -0.1623 -1.6806  0.1650
 7142SOL     OW26272   3.071   2.950   4.746  0.2136 -0.1444 -0.5594
 7142SOL    HW126273   2.996   3.008   4.731  0.5313  0.4191 -0.0231
 7142SOL    HW226274   3.034   2.862   4.747 -0.5891  0.1784  0.6015
 7143SOL     OW26275   1.918   1.803   2.961 -0.1702  0.1554 -0.3443
 7143SOL    HW126276   2.007   1.773   2.980  0.4163  1.5545 -0.7425
 7143SOL    HW226277   1.874   1.726   2.927  0.3127 -1.0742  1.5993
 7144SOL     OW26278   2.821   2.625   4.314  0.2754 -0.0120 -0.1486
 7144SOL    HW126279   2.884   2.553   4.306 -0.4609 -0.6797 -0.1141
 7144SOL    HW226280   2.802   2.650   4.223 -1.2822 -1.5221 -0.3059
 7145SOL     OW26281   3.479   3.141   3.381  0.5401 -0.1971 -0.3879
 7145SOL    HW126282   3.521   3.115   3.463  0.0002  0.6756  0.1819
 7145SOL    HW226283   3.392   3.102   3.386  0.9189 -1.1971 -1.1342
 7146SOL     OW26284   1.976   3.985   5.842  0.0554 -0.6206 -0.7115
 7146SOL    HW126285   1.880   3.980   5.837  0.1294 -2.0520 -1.2837
 7146SOL    HW226286   2.004   3.894   5.850  1.2355 -0.0884  3.2873
 7147SOL     OW26287   3.126   2.272   2.266  0.3342 -0.0868 -0.2744
 7147SOL    HW126288   3.155   2.315   2.346  2.1903 -0.0078 -0.9351
 7147SOL    HW226289   3.033   2.255   2.280  0.5636  0.0792  1.8174
 7148SOL     OW26290   3.138   2.414   1.911  0.2181  0.7277 -0.1363
 7148SOL    HW126291   3.049   2.378   1.909  0.0652  0.8721  2.2099
 7148SOL    HW226292   3.144   2.465   1.830 -1.5313  0.0560 -0.7546
 7149SOL     OW26293   1.464   1.551   1.856  0.2138 -0.4107 -0.4487
 7149SOL    HW126294   1.467   1.485   1.926 -0.7668 -1.1673 -1.0865
 7149SOL    HW226295   1.523   1.620   1.885 -0.6225 -0.4330  1.4037
 7150SOL     OW26296   2.299   2.398   3.813 -0.1661 -0.3848 -0.1203
 7150SOL    HW126297   2.213   2.388   3.771  0.5156  0.2150 -1.7501
 7150SOL    HW226298   2.282   2.383   3.906 -2.0612 -0.0924 -0.3767
 7151SOL     OW26299   3.436   4.112   0.257  0.4288  0.2682 -0.2844
 7151SOL    HW126300   3.511   4.148   0.212  1.2497  0.1202  0.9108
 7151SOL    HW226301   3.391   4.059   0.191  1.0798  0.7579 -1.1396
 7152SOL     OW26302   0.198   2.861   0.753 -0.3572  0.3474 -0.2542
 7152SOL    HW126303   0.283   2.831   0.784 -0.3411 -0.2171 -0.8303
 7152SOL    HW226304   0.193   2.830   0.663 -0.7424  1.2638 -0.5620
 7153SOL     OW26305   2.220   4.034   1.984 -0.5008 -0.1936  0.0540
 7153SOL    HW126306   2.202   4.016   1.891 -0.2253  1.4655 -0.3398
 7153SOL    HW226307   2.157   4.101   2.009 -0.2454 -0.2736  0.9534
 7154SOL     OW26308   1.897   1.550   2.217 -0.2999  0.2764  0.0806
 7154SOL    HW126309   1.954   1.560   2.140 -1.2221 -1.4360 -0.8905
 7154SOL    HW226310   1.958   1.544   2.290  0.6202  1.6250 -0.5381
 7155SOL     OW26311   2.402   4.363   1.704  0.1460  0.1538  0.3095
 7155SOL    HW126312   2.366   4.306   1.636  0.3918  2.2506 -1.6830
 7155SOL    HW226313   2.325   4.401   1.747 -0.0021  0.3250 -0.1125
 7156SOL     OW26314   4.112   4.087   3.719 -0.0388 -0.1285 -0.4975
 7156SOL    HW126315   4.133   3.996   3.741  0.1485  0.2391  1.0015
 7156SOL    HW226316   4.164   4.139   3.781  2.0281  1.1363 -3.1079
 7157SOL     OW26317   1.882   2.688   4.422  0.4724 -0.0808  0.5865
 7157SOL    HW126318   1.881   2.603   4.378  1.5749 -0.2798  0.9128
 7157SOL    HW226319   1.821   2.678   4.495 -2.3885  0.6422 -1.5020
 7158SOL     OW26320   4.415   2.494   2.049  0.3611  1.0488 -0.2113
 7158SOL    HW126321   4.483   2.474   1.986  0.1677  0.3500 -0.2120
 7158SOL    HW226322   4.462   2.525   2.127  0.8110 -0.9316  0.3661
 7159SOL     OW26323   3.002   3.601   4.630 -0.1260  0.3077  0.2715
 7159SOL    HW126324   2.964   3.667   4.689 -1.5447 -0.5213  0.3368
 7159SOL    HW226325   3.064   3.554   4.685  0.7050  1.3917  0.2995
 7160SOL     OW26326   2.321   1.797   3.502  0.2800 -0.2255 -0.9369
 7160SOL    HW126327   2.330   1.719   3.446  1.0201 -0.1569 -0.9279
 7160SOL    HW226328   2.275   1.861   3.447  0.2715 -0.4371 -1.1785
 7161SOL     OW26329   4.016   7.300   1.396 -0.2420  0.4143  0.1408
 7161SOL    HW126330   4.045   7.208   1.402 -0.3316  0.3787  0.0169
 7161SOL    HW226331   4.097   7.349   1.381 -0.1397  0.3979  0.6067
 7162SOL     OW26332   1.511   5.404   1.668  0.6957  0.1376  0.0117
 7162SOL    HW126333   1.493   5.403   1.574  0.7242  0.2084  0.0053
 7162SOL    HW226334   1.575   5.475   1.679  0.0892  0.6727  0.1955
 7163SOL     OW26335   3.431   2.590   2.988 -0.4535  0.0973  0.4573
 7163SOL    HW126336   3.404   2.518   2.930 -3.2713  1.0284  0.4877
 7163SOL    HW226337   3.399   2.564   3.074  0.3083  0.4981  0.8677
 7164SOL     OW26338   1.654   2.573   0.565  0.0725  0.4779 -0.3548
 7164SOL    HW126339   1.588   2.570   0.495 -1.2087 -1.2498  0.8714
 7164SOL    HW226340   1.612   2.531   0.640  2.9794 -1.7931  0.1414
 7165SOL     OW26341   2.786   0.090   4.759  0.0727  0.0223  0.7268
 7165SOL    HW126342   2.809   0.077   4.667  0.5668 -0.9112  0.9676
 7165SOL    HW226343   2.744   0.176   4.762 -2.0291 -0.8775 -0.7564
 7166SOL     OW26344   1.967   3.476   4.188  0.0033  0.3106 -0.3260
 7166SOL    HW126345   2.011   3.485   4.104  0.9408  0.2062  0.1381
 7166SOL    HW226346   2.008   3.542   4.244 -0.9365  0.7033 -0.0721
 7167SOL     OW26347   2.600   6.623   2.870  0.0527 -0.4842 -0.2553
 7167SOL    HW126348   2.642   6.688   2.813 -0.9250  0.8366  0.4886
 7167SOL    HW226349   2.672   6.566   2.898  0.7735 -0.3255 -1.6875
 7168SOL     OW26350   2.473   0.728   4.290 -0.0897  0.0705 -0.6390
 7168SOL    HW126351   2.449   0.793   4.356 -0.4667  0.6426 -1.3172
 7168SOL    HW226352   2.423   0.650   4.314 -2.2333  1.0420 -1.6474
 7169SOL     OW26353   2.797   2.573   2.001  0.9547 -0.4364 -0.3817
 7169SOL    HW126354   2.741   2.517   2.056 -1.3774  0.8598 -1.2693
 7169SOL    HW226355   2.838   2.513   1.939 -0.7172 -1.3128 -0.6967
 7170SOL     OW26356   1.330   2.760   3.205 -0.1703 -0.1527  0.1719
 7170SOL    HW126357   1.254   2.800   3.247  0.0735 -0.2901  0.7666
 7170SOL    HW226358   1.318   2.775   3.112 -1.6440 -1.4074  0.1221
 7171SOL     OW26359   2.700   3.532   1.832  0.0515 -0.0499  0.3189
 7171SOL    HW126360   2.660   3.545   1.746  0.1779  0.9637  0.3972
 7171SOL    HW226361   2.627   3.534   1.893  0.1397  1.2234  0.4074
 7172SOL     OW26362   3.367   3.402   1.827  0.5983  0.1646 -0.2727
 7172SOL    HW126363   3.429   3.412   1.755  0.8492  4.1461  0.2737
 7172SOL    HW226364   3.421   3.399   1.905  0.2096  1.9577  0.0942
 7173SOL     OW26365   2.744   2.846   5.979  0.1311  0.2335 -0.5489
 7173SOL    HW126366   2.798   2.876   5.906 -0.0672  1.3628 -0.2406
 7173SOL    HW226367   2.675   2.794   5.938  0.3001  0.4501 -1.1176
 7174SOL     OW26368   1.377   0.761   6.684  0.0904  0.3110 -0.1445
 7174SOL    HW126369   1.355   0.689   6.743 -0.1877 -0.2135 -0.8718
 7174SOL    HW226370   1.457   0.733   6.640  0.0783  0.5178 -0.3017
 7175SOL     OW26371   0.479   2.134   4.104  0.3127 -0.6331 -0.0779
 7175SOL    HW126372   0.414   2.147   4.034  0.6247 -1.8278 -0.6053
 7175SOL    HW226373   0.429   2.094   4.176  0.1062  0.0989  0.1985
 7176SOL     OW26374   2.515   4.553   2.330 -0.4235 -0.0962  0.1224
 7176SOL    HW126375   2.475   4.556   2.243 -0.7820 -1.3065  0.2285
 7176SOL    HW226376   2.446   4.583   2.389 -0.1908  0.6933  0.0111
 7177SOL     OW26377   3.609   1.912   6.567  0.0532 -0.3094 -0.2555
 7177SOL    HW126378   3.515   1.895   6.571 -0.1961  1.0343  0.2660
 7177SOL    HW226379   3.620   1.975   6.496  0.2542  1.1020  0.9572
 7178SOL     OW26380   5.968   3.577   1.951  0.0090 -0.4054 -0.4726
 7178SOL    HW126381   6.059   3.589   1.980 -0.4921 -0.0609  1.0357
 7178SOL    HW226382   5.963   3.625   1.868  1.3053 -0.7980 -0.8094
 7179SOL     OW26383   1.411   3.835   4.299  0.4414 -0.1104 -0.0965
 7179SOL    HW126384   1.334   3.855   4.352 -0.3161  1.2586 -1.6176
 7179SOL    HW226385   1.450   3.920   4.279  0.3480 -0.4897 -2.1869
 7180SOL     OW26386   2.955   3.285   2.440  0.4486 -0.0710  0.2298
 7180SOL    HW126387   2.974   3.308   2.349 -1.8949 -1.5033 -0.7346
 7180SOL    HW226388   2.934   3.191   2.437 -0.6830  0.0664  2.0459
 7181SOL     OW26389   3.450   4.066   2.914 -0.1318 -0.0290  0.5904
 7181SOL    HW126390   3.408   3.988   2.951 -0.4779  0.4397  1.2047
 7181SOL    HW226391   3.401   4.139   2.950  1.7058  0.5710  2.0373
 7182SOL     OW26392   1.908   2.392   5.379 -0.3612  0.2719  0.0259
 7182SOL    HW126393   1.873   2.368   5.464  1.2650 -0.3179  0.5707
 7182SOL    HW226394   1.910   2.487   5.379 -2.9235  0.3849 -0.4731
 7183SOL     OW26395   4.231   3.023   3.056  0.6347  0.6597 -0.0921
 7183SOL    HW126396   4.291   2.949   3.066  0.7247  0.8558  0.8967
 7183SOL    HW226397   4.285   3.100   3.073  0.3260  0.9006 -0.1966
 7184SOL     OW26398   3.269   0.145   3.102 -0.0108  0.2958 -0.2783
 7184SOL    HW126399   3.335   0.196   3.147 -0.3172  0.4129  0.0452
 7184SOL    HW226400   3.317   0.095   3.037  0.5956 -0.7277  0.9115
 7185SOL     OW26401   5.270   0.422   3.792 -0.2157 -0.2934 -0.1061
 7185SOL    HW126402   5.318   0.341   3.808 -0.5250 -0.3061  0.8859
 7185SOL    HW226403   5.302   0.454   3.708  1.2994 -0.4659  0.3623
 7186SOL     OW26404   1.945   5.030   4.858  0.6400  0.2424 -0.1698
 7186SOL    HW126405   1.863   5.051   4.904  0.1584  1.7570 -1.6236
 7186SOL    HW226406   1.985   4.961   4.911 -2.3444 -1.7482 -0.2559
 7187SOL     OW26407   2.376   2.282   6.527 -0.1437 -0.1426  0.0008
 7187SOL    HW126408   2.307   2.341   6.496  0.8870  1.6449  0.9595
 7187SOL    HW226409   2.435   2.274   6.452  0.6160  1.4987  0.3829
 7188SOL     OW26410   0.958   2.157   5.178  0.2918 -0.6888  0.4325
 7188SOL    HW126411   0.908   2.198   5.248  1.4852 -0.9650  1.4694
 7188SOL    HW226412   1.041   2.204   5.176  0.8366 -1.6334  0.1790
 7189SOL     OW26413   1.595   3.169   2.907 -0.1239  0.9204 -0.1042
 7189SOL    HW126414   1.625   3.116   2.833  0.3075  0.1997  0.5736
 7189SOL    HW226415   1.668   3.227   2.926  1.7580 -2.0641  2.7171
 7190SOL     OW26416   2.229   2.580   1.498  0.1425  0.0053 -0.0804
 7190SOL    HW126417   2.303   2.568   1.557  0.0964  0.3892  0.0596
 7190SOL    HW226418   2.262   2.555   1.412  0.2336 -0.4796  0.0956
 7191SOL     OW26419   1.018   0.660   4.478  0.5469  0.2111  0.4668
 7191SOL    HW126420   1.097   0.655   4.532  2.2255  2.8040 -1.5116
 7191SOL    HW226421   0.957   0.713   4.529  0.7813 -0.2259  1.2237
 7192SOL     OW26422   3.941   0.888   6.553 -0.1726 -0.0823  0.1485
 7192SOL    HW126423   3.847   0.886   6.570 -0.1480  0.8835  0.4632
 7192SOL    HW226424   3.953   0.964   6.497  0.2631 -0.9829 -1.0323
 7193SOL     OW26425   4.868   1.347   4.902 -0.1124 -0.1803  0.2112
 7193SOL    HW126426   4.958   1.364   4.875 -0.1194  0.2977  0.4891
 7193SOL    HW226427   4.875   1.276   4.965  0.1817  0.5582  1.0341
 7194SOL     OW26428   1.447   4.399   2.697  0.1395 -0.0518 -0.6432
 7194SOL    HW126429   1.455   4.306   2.719  1.8254  0.3456  0.5575
 7194SOL    HW226430   1.392   4.436   2.766 -1.0850 -0.2296 -1.4763
 7195SOL     OW26431   2.703   2.042   5.461  0.0731 -0.0562  0.3681
 7195SOL    HW126432   2.656   2.001   5.388  1.2076 -0.0327 -0.3945
 7195SOL    HW226433   2.651   2.019   5.539 -1.8664  0.9477 -0.5452
 7196SOL     OW26434   2.193   1.809   5.365 -0.0419 -0.8479  0.3833
 7196SOL    HW126435   2.228   1.731   5.321  1.9437  0.0201  0.3579
 7196SOL    HW226436   2.221   1.799   5.456 -1.0179 -0.8388  0.6981
 7197SOL     OW26437   4.188   0.255   4.632  0.3627  0.1594 -0.9634
 7197SOL    HW126438   4.236   0.326   4.674 -0.2005 -0.5350  0.9168
 7197SOL    HW226439   4.255   0.190   4.610  0.7191  0.7328 -1.6209
 7198SOL     OW26440   3.127   3.428   4.183 -0.3011  0.8172 -0.0731
 7198SOL    HW126441   3.062   3.358   4.193  0.3334  0.2576  0.2986
 7198SOL    HW226442   3.169   3.410   4.099  2.1923 -1.3472  1.4621
 7199SOL     OW26443   0.849   1.808   3.182 -0.5080 -0.4379  0.0110
 7199SOL    HW126444   0.816   1.813   3.272  0.5676 -0.7776  0.4303
 7199SOL    HW226445   0.885   1.895   3.165  0.0316 -0.6250  0.1988
 7200SOL     OW26446   2.142   1.746   4.086  0.4294  0.4080  0.1480
 7200SOL    HW126447   2.123   1.796   4.165 -0.0266 -0.4951  0.6212
 7200SOL    HW226448   2.069   1.766   4.027  1.1006  1.5962 -0.3215
 7201SOL     OW26449   4.988   5.618   2.170 -0.2677 -0.2623 -0.2403
 7201SOL    HW126450   5.078   5.648   2.152 -0.8616  1.7074 -0.1188
 7201SOL    HW226451   4.977   5.629   2.264 -0.8231  0.0729 -0.3395
 7202SOL     OW26452   1.358   2.019   5.050  0.6009  0.0877 -0.0443
 7202SOL    HW126453   1.356   1.927   5.076  1.7368  0.3436  1.0474
 7202SOL    HW226454   1.272   2.035   5.011  0.8449 -1.7692 -1.4705
 7203SOL     OW26455   4.876   1.696   2.560  0.1384  0.4847 -0.2420
 7203SOL    HW126456   4.788   1.726   2.539 -0.4128 -0.6158  0.4214
 7203SOL    HW226457   4.909   1.761   2.623 -0.6135  0.3232  0.3318
 7204SOL     OW26458   1.560   2.917   3.066  0.3540  0.1210 -0.2142
 7204SOL    HW126459   1.567   2.982   2.996 -1.1279  0.7621  0.1884
 7204SOL    HW226460   1.474   2.877   3.052 -0.0800  0.4397  1.3644
 7205SOL     OW26461   2.165   3.044   5.184  0.0543  0.1097  0.3142
 7205SOL    HW126462   2.212   3.049   5.101 -2.0805 -0.9645 -1.0454
 7205SOL    HW226463   2.134   3.133   5.201 -0.5799  0.0959 -0.7270
 7206SOL     OW26464   2.353   0.121   4.861  0.0371  0.3301 -0.1327
 7206SOL    HW126465   2.331   0.107   4.768  1.2264 -1.6524 -0.1617
 7206SOL    HW226466   2.271   0.152   4.900 -1.2290 -1.2748 -1.3666
 7207SOL     OW26467   2.513   2.985   1.297  0.0156 -0.2031 -0.3309
 7207SOL    HW126468   2.548   2.956   1.382 -1.2598 -1.8680 -0.3204
 7207SOL    HW226469   2.549   3.073   1.285  1.3875 -0.4984  1.2515
 7208SOL     OW26470   2.926   9.277   6.782 -0.0688  0.2113 -0.1515
 7208SOL    HW126471   2.888   9.352   6.736  1.1152 -0.0522 -1.6379
 7208SOL    HW226472   3.003   9.254   6.731  2.1163  0.6935  2.7089
 7209SOL     OW26473   2.790   1.209   5.169  0.6481  0.3581 -0.6276
 7209SOL    HW126474   2.727   1.275   5.198  0.4333  0.8065 -2.0625
 7209SOL    HW226475   2.874   1.241   5.203  0.2936  0.3772  0.2725
 7210SOL     OW26476   4.619   3.121   3.814 -0.4377  0.1618 -0.2576
 7210SOL    HW126477   4.711   3.097   3.803 -0.1367  1.2822 -0.2167
 7210SOL    HW226478   4.579   3.102   3.728  0.0580  0.6866 -0.6055
 7211SOL     OW26479   2.066   0.950   6.476  0.0749 -0.4433 -0.0960
 7211SOL    HW126480   2.010   0.873   6.484  1.2793 -1.1862  1.8618
 7211SOL    HW226481   2.017   1.020   6.517 -0.5080 -0.4445 -0.7765
 7212SOL     OW26482   3.488   3.192   4.190  0.6176  0.6056  0.6963
 7212SOL    HW126483   3.582   3.181   4.200  0.8513 -1.7956 -2.5578
 7212SOL    HW226484   3.458   3.111   4.148 -1.7960  3.4437 -3.9072
 7213SOL     OW26485   2.380   0.705   4.841  0.3689 -0.3246 -0.4746
 7213SOL    HW126486   2.393   0.800   4.848 -0.8219 -0.1283 -0.8380
 7213SOL    HW226487   2.454   0.668   4.891  0.6089  0.7913  0.0405
 7214SOL     OW26488   1.084   3.807   7.080 -0.1433  0.6878  0.3952
 7214SOL    HW126489   1.105   3.822   6.988  0.6886  1.6444  0.7266
 7214SOL    HW226490   1.167   3.818   7.126 -0.8789  2.0855  1.4642
 7215SOL     OW26491   1.999   1.121   4.038 -0.2063  0.9541 -0.3254
 7215SOL    HW126492   1.983   1.141   3.946  1.3164  0.0960 -0.7999
 7215SOL    HW226493   2.020   1.206   4.078 -2.4587  1.6089 -0.3575
 7216SOL     OW26494   2.497   1.552   5.084  0.5221  0.3939  0.6741
 7216SOL    HW126495   2.519   1.643   5.066  1.3444 -0.0769 -0.9187
 7216SOL    HW226496   2.491   1.512   4.997  1.8032 -1.4430  1.3725
 7217SOL     OW26497   2.135   2.041   3.843  0.3874  0.4994  0.0548
 7217SOL    HW126498   2.089   2.113   3.799 -0.4014 -0.2553 -0.3762
 7217SOL    HW226499   2.115   2.053   3.936 -0.8567  0.0613 -0.1465
 7218SOL     OW26500   3.714   3.902   2.981  0.0473  0.0067  0.1843
 7218SOL    HW126501   3.685   3.959   3.051 -0.8067 -2.5842  2.1136
 7218SOL    HW226502   3.637   3.895   2.923  0.1560  0.7540 -0.0620
 7219SOL     OW26503   2.309   4.591   4.737  0.6263 -0.3093 -0.2957
 7219SOL    HW126504   2.297   4.566   4.646  1.3794 -0.0627 -0.4688
 7219SOL    HW226505   2.272   4.518   4.787 -1.4074  0.3397 -0.7622
 7220SOL     OW26506   1.525   4.633   3.994 -0.3346 -0.3126 -0.2873
 7220SOL    HW126507   1.485   4.717   4.016  0.3033  0.2949 -1.3954
 7220SOL    HW226508   1.477   4.602   3.918  0.7141  0.0079 -1.0956
 7221SOL     OW26509   2.666   1.416   6.152  0.1804  0.2000 -0.3774
 7221SOL    HW126510   2.724   1.455   6.218  0.2156 -1.3127  0.5375
 7221SOL    HW226511   2.722   1.356   6.103 -0.2303  0.0030 -0.6130
 7222SOL     OW26512   9.446   1.717   5.110  0.1718 -0.1262 -0.0407
 7222SOL    HW126513   9.383   1.735   5.179 -1.5687 -0.8423 -1.3681
 7222SOL    HW226514   9.406   1.751   5.030  0.6673 -2.0677 -1.2014
 7223SOL     OW26515   1.425   1.587   3.370 -0.6240  0.6075 -0.5197
 7223SOL    HW126516   1.367   1.633   3.431  1.2998  1.9499  0.3741
 7223SOL    HW226517   1.432   1.646   3.294 -0.8747  0.1808 -0.8791
 7224SOL     OW26518   3.292   2.070   5.161 -0.4691 -0.1209 -0.7206
 7224SOL    HW126519   3.347   2.082   5.238  0.1815 -0.5797 -1.0919
 7224SOL    HW226520   3.216   2.126   5.175 -0.8240 -0.9249  0.6794
 7225SOL     OW26521   3.268   4.273   3.327 -0.4951  0.4828 -0.2057
 7225SOL    HW126522   3.340   4.283   3.389 -0.1181  0.9945 -0.7221
 7225SOL    HW226523   3.211   4.207   3.367 -0.5694  1.2382  0.9714
 7226SOL     OW26524   2.814   0.120   6.197  0.1506 -0.1565 -0.1192
 7226SOL    HW126525   2.732   0.092   6.238  0.1910 -1.0987 -0.6673
 7226SOL    HW226526   2.808   0.089   6.107  1.5179 -1.0718  0.0767
 7227SOL     OW26527   3.843   5.340   3.222  0.2419 -0.2263  0.5042
 7227SOL    HW126528   3.805   5.293   3.148 -0.0460 -1.8802  1.6566
 7227SOL    HW226529   3.918   5.286   3.249  1.5388  1.3612  0.2373
 7228SOL     OW26530   1.722   3.678   4.281 -0.5493 -0.3647 -0.4930
 7228SOL    HW126531   1.732   3.714   4.193  1.2958  1.0954  0.2371
 7228SOL    HW226532   1.635   3.707   4.310 -1.1966 -0.9139 -1.8025
 7229SOL     OW26533   2.471   1.702   6.197  0.5009 -0.3091 -0.0132
 7229SOL    HW126534   2.381   1.675   6.215  0.3453  0.4825  0.4658
 7229SOL    HW226535   2.508   1.717   6.284  0.5129  1.1886 -0.2584
 7230SOL     OW26536   9.723   4.335   4.056  0.2459 -0.4708  0.3261
 7230SOL    HW126537   9.759   4.334   4.144  1.4188 -1.6676 -0.1375
 7230SOL    HW226538   9.800   4.339   3.999 -0.4696 -0.3182 -0.6587
 7231SOL     OW26539   1.810   4.254   0.409 -0.0141  0.6525  0.3557
 7231SOL    HW126540   1.754   4.299   0.346 -1.5022 -0.9012  0.4694
 7231SOL    HW226541   1.776   4.281   0.495  0.8838  1.4139  0.4917
 7232SOL     OW26542   2.443   3.624   4.068 -0.2655 -0.5404  1.0966
 7232SOL    HW126543   2.482   3.538   4.053 -2.3770 -1.4335  0.2840
 7232SOL    HW226544   2.511   3.687   4.044  0.7736 -1.9868  0.1604
 7233SOL     OW26545   4.198   0.075   4.223  0.3211 -0.5001  0.1859
 7233SOL    HW126546   4.178   0.037   4.308 -0.4201  2.0198  1.2259
 7233SOL    HW226547   4.114   0.105   4.189  0.7450 -0.5869 -1.0218
 7234SOL     OW26548   0.542   2.215   4.962 -0.0186 -0.3836 -0.5783
 7234SOL    HW126549   0.466   2.166   4.995 -0.0518 -0.6003 -0.9661
 7234SOL    HW226550   0.504   2.294   4.923  0.0920  0.3145  0.6870
 7235SOL     OW26551   0.750   1.313   5.767 -0.0840  0.9800 -0.1441
 7235SOL    HW126552   0.713   1.231   5.799 -0.7945  1.6188  0.7024
 7235SOL    HW226553   0.733   1.377   5.836  1.5925  1.5704 -0.2294
 7236SOL     OW26554   2.194   4.492   5.555 -0.3233 -0.0404 -0.1613
 7236SOL    HW126555   2.278   4.517   5.517  0.3727 -0.7484  0.8476
 7236SOL    HW226556   2.139   4.470   5.480  0.9007 -1.0847 -0.8064
 7237SOL     OW26557   3.205   4.138   5.246  0.3451 -0.9969 -0.0544
 7237SOL    HW126558   3.134   4.201   5.254  1.4546  0.2390  0.6312
 7237SOL    HW226559   3.197   4.082   5.324 -0.0226 -1.0188 -0.1088
 7238SOL     OW26560   2.838   4.197   4.178 -0.1373  0.4384 -0.5776
 7238SOL    HW126561   2.912   4.212   4.237  0.2336  0.8903 -1.1440
 7238SOL    HW226562   2.868   4.129   4.118 -1.2721 -1.5993  1.0403
 7239SOL     OW26563   3.632   9.459   4.991  0.1759  0.0130  0.6504
 7239SOL    HW126564   3.612   9.391   5.056 -0.6914 -0.5659 -0.1891
 7239SOL    HW226565   3.613   9.541   5.036  1.1708 -0.2910  1.6565
 7240SOL     OW26566   1.199   9.674   5.380 -0.6524  0.5863 -0.3350
 7240SOL    HW126567   1.197   9.747   5.319 -0.8954  0.6837 -0.2138
 7240SOL    HW226568   1.225   9.712   5.463  0.9204  0.2448 -0.6453
 7241SOL     OW26569   2.435   4.660   3.768 -0.6119 -0.3235 -0.4161
 7241SOL    HW126570   2.384   4.622   3.840 -0.4216 -0.8684 -0.5611
 7241SOL    HW226571   2.380   4.731   3.734 -0.9306 -0.4019 -0.0688
 7242SOL     OW26572   2.281   0.587   5.785  0.0445  0.2213 -0.6928
 7242SOL    HW126573   2.305   0.544   5.868  0.7759  0.4779 -0.7626
 7242SOL    HW226574   2.247   0.516   5.730  0.8834 -0.2114 -0.6734
 7243SOL     OW26575   3.088   1.642   6.358  0.3947  0.7525  0.0270
 7243SOL    HW126576   3.088   1.559   6.405 -1.2233  1.4007  1.2787
 7243SOL    HW226577   3.117   1.706   6.423 -0.3819  1.4464 -0.3007
 7244SOL     OW26578   2.119   2.838   5.356  0.3403 -0.0957  0.2855
 7244SOL    HW126579   2.061   2.872   5.424 -1.1017 -0.9111 -0.4949
 7244SOL    HW226580   2.110   2.901   5.284 -0.8156 -1.0445 -0.4243
 7245SOL     OW26581   2.729   2.743   4.791  0.4368  0.5099  0.2302
 7245SOL    HW126582   2.660   2.696   4.744 -1.5969  1.9568  1.6088
 7245SOL    HW226583   2.810   2.714   4.750 -1.0330 -0.5393 -2.1145
 7246SOL     OW26584   3.168   2.246   4.077 -0.0743 -0.2687  0.2013
 7246SOL    HW126585   3.225   2.235   4.001 -0.5598  0.0607 -0.2147
 7246SOL    HW226586   3.123   2.162   4.085 -0.4318 -0.1196 -0.2162
 7247SOL     OW26587   1.473   2.151   4.516 -0.2088 -0.4929  0.2472
 7247SOL    HW126588   1.421   2.228   4.541  2.0840  0.7690  1.5213
 7247SOL    HW226589   1.416   2.077   4.534 -2.0984  0.8633  0.1083
 7248SOL     OW26590   9.672   1.632   6.098 -0.0382  0.0025  0.1355
 7248SOL    HW126591   9.674   1.723   6.069  0.3323  0.1465  0.5994
 7248SOL    HW226592   9.735   1.588   6.040  0.7668  0.3065  0.7637
 7249SOL     OW26593   1.919   1.822   3.654 -0.4658 -0.1356  0.1208
 7249SOL    HW126594   1.955   1.898   3.607 -1.5111  1.0019  1.0875
 7249SOL    HW226595   1.838   1.800   3.607 -0.6907 -0.0002  0.4404
 7250SOL     OW26596   4.881   1.167   4.684 -0.1464 -0.0972  0.0905
 7250SOL    HW126597   4.932   1.216   4.620 -0.8661  0.8437  0.2270
 7250SOL    HW226598   4.848   1.233   4.744  0.6038 -0.9826  1.5099
 7251SOL     OW26599   2.728   0.879   4.136 -0.1615  0.6826  0.3032
 7251SOL    HW126600   2.774   0.802   4.103 -1.3056 -0.1286  0.5592
 7251SOL    HW226601   2.648   0.884   4.083 -0.6468  1.0169  1.0492
 7252SOL     OW26602   3.182   1.186   5.721 -0.0504 -0.1927 -0.6101
 7252SOL    HW126603   3.107   1.246   5.723  1.2525  1.5097 -0.5640
 7252SOL    HW226604   3.250   1.230   5.772  0.6837 -2.1699  0.2312
 7253SOL     OW26605   1.991   1.771   1.423  0.6962 -0.5034  0.0134
 7253SOL    HW126606   2.024   1.847   1.471  0.9514 -0.8347  0.3700
 7253SOL    HW226607   1.971   1.805   1.336 -0.8370  0.3505  0.6717
 7254SOL     OW26608   2.183   4.482   3.953 -0.2716 -0.0374  0.2891
 7254SOL    HW126609   2.165   4.513   4.042  3.8839 -0.0021  1.3035
 7254SOL    HW226610   2.227   4.398   3.965 -0.3368 -0.4263 -1.8289
 7255SOL     OW26611   0.800   9.228   5.372  0.0843 -0.4781  0.5582
 7255SOL    HW126612   0.824   9.295   5.308 -2.5173 -0.4076 -0.4793
 7255SOL    HW226613   0.866   9.159   5.362  0.8957  0.4490 -0.7309
 7256SOL     OW26614   2.110   0.120   5.505 -0.1480 -0.0113 -0.6256
 7256SOL    HW126615   2.089   0.066   5.429 -0.2615  0.1165 -0.6856
 7256SOL    HW226616   2.034   0.110   5.563  0.3981 -0.9630 -0.0449
 7257SOL     OW26617   2.091   5.571   5.160  0.1434  0.3936 -0.1658
 7257SOL    HW126618   2.054   5.500   5.108  1.3609 -1.7991  1.8092
 7257SOL    HW226619   2.144   5.621   5.097 -0.5405 -0.5605 -1.5520
 7258SOL     OW26620   4.770   4.148   4.763 -0.1091  0.1912 -0.0300
 7258SOL    HW126621   4.738   4.238   4.776 -0.6439  0.2028 -1.3192
 7258SOL    HW226622   4.796   4.144   4.671 -0.0616 -0.9653  0.0161
 7259SOL     OW26623   1.538   1.235   5.595  0.4181  0.4574  0.0643
 7259SOL    HW126624   1.584   1.261   5.675  0.0105 -0.2162  0.5306
 7259SOL    HW226625   1.518   1.142   5.608  0.7998  0.2028 -1.0488
 7260SOL     OW26626   3.680   0.113   3.048  0.2869 -0.4191 -0.1262
 7260SOL    HW126627   3.661   0.019   3.044 -2.6693  0.1087 -1.0900
 7260SOL    HW226628   3.656   0.138   3.137 -1.3176 -0.2066 -0.5874
 7261SOL     OW26629   1.723   3.807   5.240  0.1923  0.1107 -0.1937
 7261SOL    HW126630   1.635   3.808   5.277  0.7276 -0.7110  1.1742
 7261SOL    HW226631   1.712   3.838   5.150 -1.3347  0.9474  0.2561
 7262SOL     OW26632   3.439   1.718   6.308 -0.5012  0.0299  0.4861
 7262SOL    HW126633   3.421   1.790   6.247 -0.6664 -0.6040 -0.2194
 7262SOL    HW226634   3.380   1.735   6.382  0.1117  1.1190  0.7528
 7263SOL     OW26635   2.152   1.220   6.434  0.0400 -0.1864  0.1795
 7263SOL    HW126636   2.164   1.295   6.376 -4.2956 -0.1991 -1.0804
 7263SOL    HW226637   2.174   1.144   6.379  0.8730 -0.0280  0.2747
 7264SOL     OW26638   3.518   0.296   3.230 -1.0753  0.2331 -0.0560
 7264SOL    HW126639   3.531   0.313   3.136 -1.3484 -1.0221 -0.3469
 7264SOL    HW226640   3.541   0.378   3.273 -0.0091  0.5409 -1.1496
 7265SOL     OW26641   2.615   1.672   4.794 -0.1790 -0.5273 -0.0635
 7265SOL    HW126642   2.626   1.664   4.699 -0.9124  2.0919 -0.4598
 7265SOL    HW226643   2.532   1.629   4.813 -0.6548  0.0135 -0.8566
 7266SOL     OW26644   1.522   0.508   3.058  0.2899  0.5212 -0.1991
 7266SOL    HW126645   1.430   0.485   3.049  0.1166 -0.3414  2.8221
 7266SOL    HW226646   1.569   0.428   3.033 -0.0978 -1.0786  3.4923
 7267SOL     OW26647   0.536   4.165   4.579 -0.2794  0.6464 -0.1413
 7267SOL    HW126648   0.575   4.096   4.633  0.5244  1.1829 -0.0270
 7267SOL    HW226649   0.552   4.245   4.628 -2.1775  0.8256  0.2761
 7268SOL     OW26650   2.790   3.262   5.233 -0.0591  0.3128 -0.2936
 7268SOL    HW126651   2.863   3.323   5.221 -0.1496  0.4925  0.0604
 7268SOL    HW226652   2.749   3.289   5.315  1.4639 -1.8441  1.2851
 7269SOL     OW26653   3.436   1.410   4.770  0.7353  0.4823  0.5964
 7269SOL    HW126654   3.475   1.335   4.815 -0.4070  0.4449  1.6043
 7269SOL    HW226655   3.510   1.461   4.739  1.5689 -1.5272 -0.9718
 7270SOL     OW26656   2.668   3.459   3.370  0.3436  0.3996  0.3749
 7270SOL    HW126657   2.667   3.389   3.305 -0.6152 -0.9054  1.7329
 7270SOL    HW226658   2.735   3.520   3.339  0.3920 -0.5246 -1.4459
 7271SOL     OW26659   2.307   2.415   6.070 -0.1768 -0.0255  0.3606
 7271SOL    HW126660   2.273   2.400   6.158  0.2151 -0.5994  0.4175
 7271SOL    HW226661   2.259   2.353   6.015  0.9902 -1.0761  0.4913
 7272SOL     OW26662   1.184   1.677   6.443  0.4256  0.1128  0.2834
 7272SOL    HW126663   1.272   1.670   6.408  0.4615 -0.5704  0.4950
 7272SOL    HW226664   1.181   1.764   6.484  1.0902  0.0345  0.5107
 7273SOL     OW26665   2.626   1.972   5.073  0.6563 -0.7644  0.0908
 7273SOL    HW126666   2.599   2.062   5.089 -0.9352 -0.6312 -2.7506
 7273SOL    HW226667   2.550   1.919   5.095  1.7860 -1.5927  2.3701
 7274SOL     OW26668   4.754   2.098   6.450  0.5163 -0.2300  0.2479
 7274SOL    HW126669   4.663   2.084   6.424 -0.1225  2.2011  0.9655
 7274SOL    HW226670   4.766   2.043   6.528 -0.1382 -0.9641 -0.1540
 7275SOL     OW26671   3.458   0.387   4.404  0.2428 -0.3913  0.5539
 7275SOL    HW126672   3.435   0.345   4.321 -0.6416  5.4304 -2.7159
 7275SOL    HW226673   3.550   0.412   4.394 -0.0051  0.8002  0.9828
 7276SOL     OW26674   4.575   1.605   5.018  0.0745  0.0419 -0.6751
 7276SOL    HW126675   4.624   1.594   5.100  0.0141  0.0338 -0.6407
 7276SOL    HW226676   4.643   1.605   4.950  0.2088  0.9387 -0.5546
 7277SOL     OW26677   0.845   3.477   3.186 -0.4116  0.4880 -0.2857
 7277SOL    HW126678   0.840   3.383   3.200 -0.9496  0.6967  1.0360
 7277SOL    HW226679   0.755   3.508   3.192 -0.0073  1.4179  2.0101
 7278SOL     OW26680   1.983   2.574   3.172 -0.3440  0.3278 -0.1770
 7278SOL    HW126681   2.076   2.596   3.160  0.0066 -1.1981 -0.4768
 7278SOL    HW226682   1.978   2.481   3.152 -2.1800  0.6409 -1.3922
 7279SOL     OW26683   6.485   2.003   4.981 -0.2557 -0.0639  0.5245
 7279SOL    HW126684   6.484   1.969   4.892 -1.2764  0.5942  0.2656
 7279SOL    HW226685   6.425   1.947   5.029 -0.7777  0.4274  0.4564
 7280SOL     OW26686   2.878   9.713   3.002 -0.2876 -0.2254 -0.1148
 7280SOL    HW126687   2.917   9.704   3.089 -0.6173  2.6045  0.4369
 7280SOL    HW226688   2.953   9.722   2.943 -0.0782 -0.8181  0.0530
 7281SOL     OW26689   1.427   4.118   7.196 -0.6565  0.0563  0.1551
 7281SOL    HW126690   1.376   4.195   7.171 -1.3943 -0.2366  0.7386
 7281SOL    HW226691   1.466   4.141   7.280  0.3347  0.3408 -0.3602
 7282SOL     OW26692   3.182   2.871   3.611 -0.0572 -0.0895  0.3424
 7282SOL    HW126693   3.111   2.927   3.643  0.3827  0.6700  0.0221
 7282SOL    HW226694   3.159   2.783   3.640 -1.2171  0.1236  0.0819
 7283SOL     OW26695   6.858   4.935   4.817  0.4889 -0.1371 -0.0098
 7283SOL    HW126696   6.806   4.898   4.746  1.3930  1.2078 -1.4683
 7283SOL    HW226697   6.844   5.030   4.809  1.1144  0.0725  1.2137
 7284SOL     OW26698   0.482   2.528   5.477  0.0125  0.6343 -0.3300
 7284SOL    HW126699   0.438   2.492   5.554  0.6276  1.6046  0.4872
 7284SOL    HW226700   0.417   2.588   5.439 -0.0989  0.5519 -0.2727
 7285SOL     OW26701   2.492   1.291   4.825 -0.1720  0.1654  0.6503
 7285SOL    HW126702   2.511   1.312   4.734 -1.2663  0.0813  0.3885
 7285SOL    HW226703   2.578   1.280   4.866  0.3303  0.4953 -0.2972
 7286SOL     OW26704   3.548   1.058   7.839 -0.2153  0.0404  0.0508
 7286SOL    HW126705   3.532   1.075   7.746 -0.6993 -1.0735 -0.0911
 7286SOL    HW226706   3.638   1.027   7.842  0.5940  2.2505  0.2822
 7287SOL     OW26707   1.763   2.006   6.737  0.1199 -0.3017  0.5236
 7287SOL    HW126708   1.733   2.004   6.828  0.5585 -0.3439  0.6692
 7287SOL    HW226709   1.786   1.915   6.718  1.4725 -0.0528  0.8631
 7288SOL     OW26710   3.166   5.679   6.597 -0.3417  0.3510  0.6912
 7288SOL    HW126711   3.199   5.768   6.601  0.4701  0.1204 -0.5844
 7288SOL    HW226712   3.222   5.630   6.658 -0.9532  0.7319  1.5916
 7289SOL     OW26713   3.413   1.742   4.420 -0.2533 -0.4937  0.1468
 7289SOL    HW126714   3.335   1.703   4.458 -0.4404  0.0348  0.3166
 7289SOL    HW226715   3.485   1.686   4.449 -0.4623 -0.4393  0.7780
 7290SOL     OW26716   3.782   2.137   4.483 -0.5527 -0.6850  0.2391
 7290SOL    HW126717   3.733   2.155   4.403 -0.5983  0.2674  0.4742
 7290SOL    HW226718   3.730   2.071   4.529 -0.2328 -1.6788 -0.7812
 7291SOL     OW26719   3.488   3.469   3.454 -0.2018  1.2333 -0.0400
 7291SOL    HW126720   3.536   3.487   3.535 -2.0150 -0.2718  1.4794
 7291SOL    HW226721   3.537   3.398   3.413 -0.6128  0.2634  1.0767
 7292SOL     OW26722   4.423   2.136   2.456  0.4495  0.2181 -0.6308
 7292SOL    HW126723   4.454   2.054   2.494  1.7608  1.2149  0.5825
 7292SOL    HW226724   4.461   2.204   2.512 -1.6412  1.6298 -0.8259
 7293SOL     OW26725   2.406   0.472   5.566  0.3634 -0.0590 -0.0013
 7293SOL    HW126726   2.419   0.566   5.550 -1.4969  0.5792  1.6666
 7293SOL    HW226727   2.443   0.458   5.653  0.7942 -0.9320 -0.3163
 7294SOL     OW26728   2.414   1.548   5.850 -0.3938  0.2753  0.5052
 7294SOL    HW126729   2.458   1.632   5.835  0.8054 -0.4917 -0.5072
 7294SOL    HW226730   2.466   1.505   5.917 -0.4197 -0.0625  0.3117
 7295SOL     OW26731   1.647   1.463   6.439  0.3362  0.5269 -0.0649
 7295SOL    HW126732   1.632   1.439   6.531  0.8139 -0.7005 -0.2972
 7295SOL    HW226733   1.739   1.489   6.436  0.7069 -0.7845 -0.4640
 7296SOL     OW26734   0.354   1.099   4.710  0.7813  0.3777  0.2755
 7296SOL    HW126735   0.370   1.126   4.619 -2.6143  2.4456  0.1077
 7296SOL    HW226736   0.384   1.173   4.762 -1.5701  1.3621  0.3751
 7297SOL     OW26737   1.914   0.807   4.032 -0.1479 -0.5352 -0.3373
 7297SOL    HW126738   1.899   0.902   4.029 -1.3806 -0.7336 -0.9531
 7297SOL    HW226739   1.990   0.793   3.974  0.7381  0.1767  0.6071
 7298SOL     OW26740   1.405   3.945   4.875 -0.0558 -0.1674  0.5087
 7298SOL    HW126741   1.342   3.943   4.803 -0.3922  1.4238  0.7372
 7298SOL    HW226742   1.416   3.853   4.898  0.2827 -0.7605 -1.7500
 7299SOL     OW26743   4.349   3.836   8.426 -0.2529  0.2349  0.1887
 7299SOL    HW126744   4.288   3.905   8.452  0.7492  1.0083  0.5193
 7299SOL    HW226745   4.434   3.865   8.459  0.4597 -0.4032 -1.0289
 7300SOL     OW26746   3.516   1.326   4.370 -0.1404  0.0228  0.5216
 7300SOL    HW126747   3.423   1.350   4.368  0.0776  0.9350  0.7652
 7300SOL    HW226748   3.521   1.253   4.431 -0.8770 -0.8863 -0.4676
 7301SOL     OW26749   1.439   1.101   2.193  0.0585 -0.6246 -0.1100
 7301SOL    HW126750   1.518   1.070   2.149  0.4469 -0.4978  0.4744
 7301SOL    HW226751   1.464   1.107   2.285 -0.8237 -1.1693  0.1785
 7302SOL     OW26752   2.679   2.635   7.590 -0.0575 -0.0716 -0.5100
 7302SOL    HW126753   2.628   2.564   7.631 -0.7401  0.9119  0.4070
 7302SOL    HW226754   2.636   2.715   7.620  0.6959  0.7357 -1.5423
 7303SOL     OW26755   0.808   3.857   4.057 -0.4817 -0.6828 -0.2397
 7303SOL    HW126756   0.793   3.780   4.113 -2.5823 -0.2764 -0.1452
 7303SOL    HW226757   0.831   3.820   3.972  1.8871 -1.3262  0.6029
 7304SOL     OW26758   2.115   0.394   5.719  0.3095  0.5986 -0.2460
 7304SOL    HW126759   2.101   0.363   5.808  1.2278 -2.3287 -1.0123
 7304SOL    HW226760   2.041   0.357   5.669  1.0056  0.3040 -1.0769
 7305SOL     OW26761   4.676   1.257   4.402 -0.5886  0.7435 -0.3211
 7305SOL    HW126762   4.642   1.284   4.488  0.0413  0.0540  0.1572
 7305SOL    HW226763   4.767   1.285   4.403 -0.1740 -0.5876 -0.1718
 7306SOL     OW26764   3.138   1.660   8.092  0.0019  0.6266 -0.1361
 7306SOL    HW126765   3.224   1.620   8.080 -0.1180  0.6258 -1.0274
 7306SOL    HW226766   3.150   1.751   8.067  0.5905  1.5634  3.1176
 7307SOL     OW26767   1.468   2.664   7.283 -0.3719  0.6789  0.3482
 7307SOL    HW126768   1.498   2.751   7.257 -1.7281  0.9908 -0.2502
 7307SOL    HW226769   1.373   2.671   7.286 -0.4856 -0.6971  0.6076
 7308SOL     OW26770   2.802   4.544   5.300  0.2251  0.5211  0.2677
 7308SOL    HW126771   2.787   4.575   5.211  0.4495 -1.0278 -0.3282
 7308SOL    HW226772   2.719   4.503   5.325  0.1401  1.0067  0.8151
 7309SOL     OW26773   3.791   2.312   5.611  0.3586  0.1481 -0.1424
 7309SOL    HW126774   3.852   2.301   5.538  2.6599 -0.6117  1.7683
 7309SOL    HW226775   3.708   2.335   5.570  1.0835 -2.0018 -3.0961
 7310SOL     OW26776   2.318   1.505   4.476  0.7888  0.5604  0.1422
 7310SOL    HW126777   2.249   1.484   4.540  0.9719 -0.0587  0.1388
 7310SOL    HW226778   2.386   1.441   4.493  1.1199  0.8098 -0.2469
 7311SOL     OW26779   2.375   1.738   1.698 -0.6807  0.5063 -0.2323
 7311SOL    HW126780   2.448   1.678   1.683 -0.3797  0.6184  0.7150
 7311SOL    HW226781   2.297   1.688   1.673 -0.2689  0.4768 -1.4921
 7312SOL     OW26782   4.600   3.048   3.168  0.4033  0.2583 -0.0342
 7312SOL    HW126783   4.579   2.955   3.155 -0.8017  0.4006  0.7471
 7312SOL    HW226784   4.682   3.047   3.219  1.6251 -0.3265 -1.9073
 7313SOL     OW26785   4.549   2.287   4.302  0.3323  0.0857  0.3000
 7313SOL    HW126786   4.495   2.289   4.381  0.6653  3.7421  0.6027
 7313SOL    HW226787   4.637   2.265   4.333  0.1051 -0.2929  0.6746
 7314SOL     OW26788   1.327   1.873   2.732  0.1392 -0.3745 -0.3330
 7314SOL    HW126789   1.275   1.793   2.719  0.0349 -0.2454 -0.7053
 7314SOL    HW226790   1.409   1.855   2.687  1.0128 -1.1459  1.4275
 7315SOL     OW26791   3.837   2.351   4.942  0.2293 -0.0494 -0.0640
 7315SOL    HW126792   3.846   2.324   4.850 -2.5328 -2.0962  0.1357
 7315SOL    HW226793   3.911   2.410   4.957  1.4274 -0.5328 -3.2586
 7316SOL     OW26794   4.049   2.685   5.182 -0.1939 -0.5428  0.0043
 7316SOL    HW126795   4.144   2.695   5.170  0.0323 -3.0193 -0.9242
 7316SOL    HW226796   4.017   2.662   5.095 -1.9361  1.7146 -0.0246
 7317SOL     OW26797   4.132   1.959   3.584  0.0045 -0.3025  0.5618
 7317SOL    HW126798   4.123   1.884   3.524 -1.1676 -1.7188  2.3686
 7317SOL    HW226799   4.054   1.953   3.640  0.8422  1.1733  1.9584
 7318SOL     OW26800   0.868   2.821   7.776 -0.0068  0.3762 -0.3099
 7318SOL    HW126801   0.835   2.850   7.861 -0.1590  2.6505 -1.0989
 7318SOL    HW226802   0.790   2.792   7.728  0.1602 -1.6725  0.5163
 7319SOL     OW26803   3.809   4.715   2.663  0.4968  0.0951  0.2412
 7319SOL    HW126804   3.743   4.781   2.644  0.1326 -0.2664  0.2320
 7319SOL    HW226805   3.783   4.680   2.748 -1.0066 -2.0603 -1.0148
 7320SOL     OW26806   4.551   1.990   4.332 -0.1463 -0.2411  0.3451
 7320SOL    HW126807   4.509   1.977   4.417 -2.2243  0.9156 -0.4380
 7320SOL    HW226808   4.583   2.080   4.334 -1.5131  0.2986 -0.5773
 7321SOL     OW26809   3.172   3.828   4.761  0.0826 -0.1988  0.6152
 7321SOL    HW126810   3.082   3.828   4.794 -0.2538  1.5475 -0.1701
 7321SOL    HW226811   3.224   3.865   4.833  0.0557 -0.4763  0.7785
 7322SOL     OW26812   4.401   3.200   4.773 -0.6145  0.0770  0.3807
 7322SOL    HW126813   4.445   3.235   4.851  1.8472 -2.9337  0.5508
 7322SOL    HW226814   4.472   3.160   4.722 -2.7019 -1.6972 -1.3084
 7323SOL     OW26815   4.800   1.358   5.243  0.4490  0.2215 -0.6205
 7323SOL    HW126816   4.830   1.442   5.208 -1.0917  1.6122  1.1423
 7323SOL    HW226817   4.827   1.360   5.335 -0.2768 -0.8625 -0.3720
 7324SOL     OW26818   2.894   2.363   3.845  0.8857 -0.7762 -0.4169
 7324SOL    HW126819   2.968   2.412   3.880 -0.3030  0.3191  0.7110
 7324SOL    HW226820   2.926   2.274   3.835  2.3532 -0.3223  0.0236
 7325SOL     OW26821   9.354   1.357   3.963 -0.2074 -0.3065 -0.0081
 7325SOL    HW126822   9.305   1.431   3.998 -0.3169 -0.3430 -0.0840
 7325SOL    HW226823   9.369   1.301   4.039 -0.0780 -0.1812  0.0602
 7326SOL     OW26824   4.504   2.737   2.372  0.0367  0.2774 -0.1555
 7326SOL    HW126825   4.486   2.643   2.362 -0.5040  0.2237  1.1400
 7326SOL    HW226826   4.549   2.761   2.291 -0.9488 -0.8247 -1.0724
 7327SOL     OW26827   4.128   3.045   1.864 -0.0657  0.2349  0.0016
 7327SOL    HW126828   4.170   3.130   1.869  0.4083  0.0638 -0.8394
 7327SOL    HW226829   4.196   2.983   1.890 -0.5394  0.1400  1.0450
 7328SOL     OW26830   1.995   4.149   5.544  0.0575 -0.0982  0.1078
 7328SOL    HW126831   2.030   4.105   5.467  0.8261 -0.0933  0.4538
 7328SOL    HW226832   1.903   4.121   5.547 -0.2527  0.6057 -1.3219
 7329SOL     OW26833   4.448   3.308   4.381 -0.0331 -0.3926 -0.1980
 7329SOL    HW126834   4.408   3.395   4.385 -0.4648 -0.5865 -0.2554
 7329SOL    HW226835   4.374   3.247   4.382  0.2325 -0.7416 -0.8125
 7330SOL     OW26836   3.267   2.045   6.879  0.0877  0.0724  0.3222
 7330SOL    HW126837   3.272   1.980   6.809 -0.9985 -1.2743  1.4304
 7330SOL    HW226838   3.177   2.039   6.910 -0.0160  2.0517  0.5644
 7331SOL     OW26839   0.937   3.079   4.919 -0.4817  0.1646 -0.3615
 7331SOL    HW126840   0.973   3.156   4.875 -1.7691  0.1877 -1.4351
 7331SOL    HW226841   1.011   3.020   4.928  0.7371  1.8385  1.2693
 7332SOL     OW26842   3.453   3.459   2.086 -0.0155 -0.3187  0.2983
 7332SOL    HW126843   3.464   3.420   2.173  0.1389 -0.6214  0.1428
 7332SOL    HW226844   3.455   3.553   2.102  0.8528 -0.3643  0.5236
 7333SOL     OW26845   5.665   1.828   4.267  0.2109  0.5797 -0.1262
 7333SOL    HW126846   5.585   1.880   4.266 -0.5555 -0.5719 -0.6992
 7333SOL    HW226847   5.667   1.788   4.355 -0.2394  0.0380 -0.3550
 7334SOL     OW26848   2.489   3.599   3.538 -0.3917  0.0878  0.1331
 7334SOL    HW126849   2.491   3.537   3.612  0.3062  0.5162  0.4927
 7334SOL    HW226850   2.542   3.556   3.470 -1.0077 -0.2925 -0.1172
 7335SOL     OW26851   2.850   1.727   6.204 -0.0682 -0.1358  0.2518
 7335SOL    HW126852   2.928   1.685   6.239 -0.2767 -0.8761 -0.1392
 7335SOL    HW226853   2.870   1.821   6.205  1.2124 -0.3664 -0.7533
 7336SOL     OW26854   4.708   2.248   5.622  0.1835 -0.7508  0.0705
 7336SOL    HW126855   4.702   2.187   5.696  0.5459 -1.8131 -0.7558
 7336SOL    HW226856   4.755   2.324   5.657 -1.2439 -0.4290  1.4255
 7337SOL     OW26857   4.281   2.188   3.042 -0.3969 -0.0019 -0.1962
 7337SOL    HW126858   4.315   2.128   3.108  0.7382  1.4632  0.5997
 7337SOL    HW226859   4.191   2.205   3.069  0.1619  0.8504  1.1845
 7338SOL     OW26860   1.707   2.057   5.398  0.0170  1.2039  0.6732
 7338SOL    HW126861   1.659   2.049   5.481  1.5786 -0.7277  1.4776
 7338SOL    HW226862   1.781   1.997   5.407  0.1549  0.7815 -2.2063
 7339SOL     OW26863   1.007   1.571   4.245 -0.1771  0.2239 -0.0642
 7339SOL    HW126864   0.939   1.622   4.290 -2.2002 -3.1328  1.0989
 7339SOL    HW226865   0.961   1.528   4.173  0.9007 -1.3434  0.1288
 7340SOL     OW26866   1.112   2.887   4.848 -0.1501  0.2454  0.0685
 7340SOL    HW126867   1.061   2.868   4.769 -0.3998 -1.6862  0.6304
 7340SOL    HW226868   1.191   2.931   4.817 -1.6107  2.3584 -0.9263
 7341SOL     OW26869   3.341   1.454   4.116 -0.1035 -0.2147  0.0972
 7341SOL    HW126870   3.315   1.390   4.182  1.3472  1.2852  2.2225
 7341SOL    HW226871   3.292   1.533   4.138  2.4175  1.1352  1.1456
 7342SOL     OW26872   5.147   5.714   3.679 -0.0973  0.2867 -0.2156
 7342SOL    HW126873   5.156   5.748   3.768 -0.0968 -0.3974  0.0475
 7342SOL    HW226874   5.235   5.722   3.641 -0.5515  2.7208 -0.9578
 7343SOL     OW26875   8.829   9.637   7.465 -0.4658  0.2686 -0.0535
 7343SOL    HW126876   8.767   9.706   7.442 -0.4275  2.2028  4.4730
 7343SOL    HW226877   8.775   9.558   7.471 -0.9968  0.3124 -2.8776
 7344SOL     OW26878   3.208   0.904   3.896  0.1051  0.0730  0.0470
 7344SOL    HW126879   3.143   0.962   3.856 -0.7996 -1.7348 -1.2722
 7344SOL    HW226880   3.225   0.838   3.829  1.7829 -0.6900  1.1485
 7345SOL     OW26881   0.861   2.812   6.143 -0.2612 -0.4078 -0.2935
 7345SOL    HW126882   0.805   2.861   6.083 -0.8860 -0.7297  0.0253
 7345SOL    HW226883   0.842   2.848   6.230  1.4435  0.8267 -0.3736
 7346SOL     OW26884   5.057   4.030   4.840 -0.9830 -0.1728  0.1446
 7346SOL    HW126885   5.002   4.061   4.912  0.6073  1.8783  0.5885
 7346SOL    HW226886   5.077   4.110   4.790  1.6206 -0.7688  0.0904
 7347SOL     OW26887   0.421   2.823   5.296 -0.2065  0.0161 -0.5370
 7347SOL    HW126888   0.333   2.820   5.258 -0.6739 -1.1215  0.5691
 7347SOL    HW226889   0.467   2.751   5.253  0.6315  1.4045 -2.0715
 7348SOL     OW26890   2.316   3.466   5.907 -0.2207 -0.4824 -0.0576
 7348SOL    HW126891   2.394   3.425   5.944  1.0817  0.5707 -1.4799
 7348SOL    HW226892   2.313   3.434   5.817 -1.9431 -1.1453  0.1977
 7349SOL     OW26893   4.071   1.402   4.841  0.3698 -0.3785  0.8434
 7349SOL    HW126894   4.145   1.342   4.832  0.0093 -0.9536  1.6242
 7349SOL    HW226895   4.002   1.363   4.787  0.8151  0.4940 -0.4079
 7350SOL     OW26896   2.537   0.264   3.485 -0.0118 -0.0606  0.2717
 7350SOL    HW126897   2.455   0.243   3.529 -2.6670  3.0567 -2.5612
 7350SOL    HW226898   2.539   0.205   3.409  0.0004  0.2730  0.0085
 7351SOL     OW26899   2.665   2.826   5.050  0.1528 -0.0519 -0.0369
 7351SOL    HW126900   2.664   2.776   4.968  0.2588 -0.2675  0.0940
 7351SOL    HW226901   2.723   2.900   5.032  2.0114 -1.3075  0.5567
 7352SOL     OW26902   3.194   2.984   5.530  0.0670  0.5596 -0.2361
 7352SOL    HW126903   3.230   2.924   5.596 -1.2916  0.5756  0.5465
 7352SOL    HW226904   3.152   3.053   5.581 -0.4805  0.8954 -1.1217
 7353SOL     OW26905   1.365   3.780   5.797 -0.3559  0.4465  0.4260
 7353SOL    HW126906   1.350   3.870   5.767  1.9435  0.1857 -1.8045
 7353SOL    HW226907   1.389   3.790   5.889  1.1457  2.3040 -0.0942
 7354SOL     OW26908   4.784   4.826   3.978 -0.2886  0.0052 -0.2210
 7354SOL    HW126909   4.872   4.838   4.013 -1.1683 -0.4790  2.4299
 7354SOL    HW226910   4.738   4.907   4.000 -0.8588 -0.2784 -0.3445
 7355SOL     OW26911   3.841   4.200   4.298 -0.1766  0.3691  0.0279
 7355SOL    HW126912   3.756   4.215   4.338 -1.1079  1.4678 -2.2215
 7355SOL    HW226913   3.850   4.105   4.295 -1.7004  0.2264 -0.4804
 7356SOL     OW26914   3.988   3.425   7.164 -0.1398  0.0226 -0.0377
 7356SOL    HW126915   3.979   3.473   7.082  0.7715  3.3529  1.6262
 7356SOL    HW226916   4.082   3.407   7.170  0.1477  1.6411  1.1044
 7357SOL     OW26917   3.962   1.037   3.481  0.6319  0.3507  0.3011
 7357SOL    HW126918   3.916   0.954   3.492 -0.6145  1.1458  1.3754
 7357SOL    HW226919   3.948   1.060   3.389 -0.1749  0.0109  0.3312
 7358SOL     OW26920   2.753   2.579   6.931 -0.0059 -0.0042 -0.1680
 7358SOL    HW126921   2.768   2.637   6.856  0.7655  1.0468  0.7572
 7358SOL    HW226922   2.761   2.491   6.896 -2.0206  0.3867 -1.7954
 7359SOL     OW26923   4.095   0.734   5.702  0.0533  0.7392  0.8878
 7359SOL    HW126924   4.031   0.806   5.707  0.4648  1.0719  1.5568
 7359SOL    HW226925   4.156   0.752   5.774  0.8289  0.3578  0.3383
 7360SOL     OW26926   1.124   2.132   4.908  0.3449  0.2060  0.2379
 7360SOL    HW126927   1.146   2.160   4.997  2.2078  2.7077 -0.8858
 7360SOL    HW226928   1.056   2.192   4.879  0.2415 -0.1430 -0.2589
 7361SOL     OW26929   0.405   2.981   3.698  0.7142 -0.7310  0.1204
 7361SOL    HW126930   0.373   3.014   3.614  0.1151  1.3870  1.0856
 7361SOL    HW226931   0.383   2.888   3.698  0.3477 -0.6861 -1.8673
 7362SOL     OW26932   2.242   1.319   5.305  0.1663 -0.5418  0.6088
 7362SOL    HW126933   2.271   1.257   5.371 -0.9907  0.1189  1.7986
 7362SOL    HW226934   2.162   1.281   5.270  0.0610 -0.2624  0.5441
 7363SOL     OW26935   3.638   4.692   4.413  0.3616 -0.0167  0.0239
 7363SOL    HW126936   3.642   4.614   4.359  1.3423  0.5703 -0.7900
 7363SOL    HW226937   3.719   4.691   4.464  1.1173  1.1971 -1.0840
 7364SOL     OW26938   3.706   0.311   4.640 -0.3479  0.0589  0.4530
 7364SOL    HW126939   3.739   0.304   4.551 -0.6436  1.1026  0.2561
 7364SOL    HW226940   3.781   0.289   4.695  0.3126  1.0886 -0.0205
 7365SOL     OW26941   1.744   3.114   5.903  0.7088 -1.1631 -0.2716
 7365SOL    HW126942   1.793   3.049   5.953  1.9197 -0.0522  0.0399
 7365SOL    HW226943   1.687   3.155   5.967  0.8665 -1.0477 -0.2051
 7366SOL     OW26944   2.610   3.268   3.545  0.2749 -0.6831 -0.0543
 7366SOL    HW126945   2.657   3.333   3.492  0.4042  0.0075  0.8737
 7366SOL    HW226946   2.534   3.244   3.491  0.7651 -0.5227 -0.8368
 7367SOL     OW26947   3.523   3.383   2.341  0.1874  0.6129  0.2654
 7367SOL    HW126948   3.451   3.366   2.402 -0.7506  1.6977 -0.5194
 7367SOL    HW226949   3.571   3.299   2.337 -2.0168 -0.6871 -0.5309
 7368SOL     OW26950   3.892   3.198   5.396 -0.5186 -0.0455 -0.2337
 7368SOL    HW126951   3.830   3.178   5.466  0.4479 -0.1579  0.6097
 7368SOL    HW226952   3.962   3.134   5.406 -0.9556 -0.8991 -2.1165
 7369SOL     OW26953   4.052   0.017   5.078 -0.5057 -0.1319  0.6770
 7369SOL    HW126954   4.114   0.090   5.086 -1.2598  0.6377 -0.3066
 7369SOL    HW226955   4.089  -0.038   5.009 -0.7014  0.0985  0.3904
 7370SOL     OW26956   4.575   9.282   3.644 -0.5742 -0.1285  0.2743
 7370SOL    HW126957   4.544   9.275   3.734 -0.8758  0.6976  0.2480
 7370SOL    HW226958   4.557   9.196   3.606 -3.3049  0.4043  0.1217
 7371SOL     OW26959   2.551   2.490   4.074  0.1386 -0.4714 -0.1880
 7371SOL    HW126960   2.481   2.502   4.138  1.6107  0.5723  1.3064
 7371SOL    HW226961   2.521   2.417   4.019 -0.3310 -2.8584  2.9390
 7372SOL     OW26962   1.492   4.860   3.344  0.0440  0.1834  0.2056
 7372SOL    HW126963   1.576   4.905   3.347 -0.3403  0.8956  0.3903
 7372SOL    HW226964   1.429   4.924   3.377 -0.9346  0.4750 -2.0388
 7373SOL     OW26965   3.258   2.279   7.712 -0.3646 -0.1541 -0.7746
 7373SOL    HW126966   3.243   2.336   7.788  1.2760  0.6789 -1.0189
 7373SOL    HW226967   3.237   2.334   7.637  0.6020 -0.0680 -0.9912
 7374SOL     OW26968   3.122   0.658   5.660  0.1434 -0.3277  0.6659
 7374SOL    HW126969   3.062   0.604   5.609  1.7040 -1.2610 -0.2857
 7374SOL    HW226970   3.073   0.682   5.739 -1.2644 -1.4781  0.1763
 7375SOL     OW26971   0.483   1.495   7.768  0.0846  0.0658 -0.1992
 7375SOL    HW126972   0.460   1.428   7.705 -0.1266  1.6999 -1.9439
 7375SOL    HW226973   0.578   1.502   7.762  0.3516 -1.3756  1.4357
 7376SOL     OW26974   3.522   1.608   5.421  0.0848 -0.3978 -0.2378
 7376SOL    HW126975   3.613   1.614   5.392  0.5097 -1.8478  0.7142
 7376SOL    HW226976   3.496   1.519   5.402 -0.1562 -0.9046  2.1508
 7377SOL     OW26977   3.421   2.862   6.650 -0.2272 -0.1835  0.1166
 7377SOL    HW126978   3.384   2.845   6.737 -0.3894 -0.5811 -0.0277
 7377SOL    HW226979   3.366   2.932   6.614  0.1505  0.3300  0.5298
 7378SOL     OW26980   4.228   1.237   6.522  0.4336  0.2093  0.6939
 7378SOL    HW126981   4.321   1.221   6.535  0.4682  0.7960  1.1658
 7378SOL    HW226982   4.208   1.314   6.575  0.0115  1.0346 -0.6264
 7379SOL     OW26983   4.497   4.179   8.595  0.1274 -0.0702 -0.2218
 7379SOL    HW126984   4.459   4.185   8.507  2.5177 -0.5524 -1.3558
 7379SOL    HW226985   4.591   4.187   8.581  0.5709 -0.1044  2.3331
 7380SOL     OW26986   2.463   1.169   7.967  0.6970  0.0227  0.4009
 7380SOL    HW126987   2.512   1.238   8.012  0.4041 -0.0958  0.9099
 7380SOL    HW226988   2.522   1.095   7.965  0.3124 -0.3421  1.6270
 7381SOL     OW26989   2.212   4.491   4.472  0.1348  0.4464  0.2018
 7381SOL    HW126990   2.167   4.523   4.394  0.7454  2.3839  0.5846
 7381SOL    HW226991   2.144   4.450   4.524 -0.5014  0.1726 -0.8197
 7382SOL     OW26992   0.651   2.318   8.319 -0.3280 -0.0480 -0.0115
 7382SOL    HW126993   0.575   2.363   8.282 -0.5964 -0.7859 -0.3691
 7382SOL    HW226994   0.725   2.352   8.270 -0.6941 -1.1259 -1.3716
 7383SOL     OW26995   9.413   4.364   6.658 -0.4026  0.3039 -0.7713
 7383SOL    HW126996   9.367   4.447   6.668 -0.5624  0.1123  0.1736
 7383SOL    HW226997   9.466   4.356   6.738 -1.3845 -1.1024 -0.2185
 7384SOL     OW26998   0.602   1.769   6.339 -0.3030 -0.0896  0.0961
 7384SOL    HW126999   0.636   1.795   6.425  0.7060  0.6806 -0.5146
 7384SOL    HW227000   0.635   1.680   6.327 -0.6595 -0.2965  0.6050
 7385SOL     OW27001   1.927   1.458   6.397 -0.2960  0.1502  0.4672
 7385SOL    HW127002   1.950   1.389   6.459  1.0528  1.2300  1.2406
 7385SOL    HW227003   1.977   1.438   6.318  0.5216  0.4927  0.8776
 7386SOL     OW27004   3.520   2.800   4.394 -0.2361  0.0659  0.9766
 7386SOL    HW127005   3.468   2.840   4.325 -0.8414 -1.1100  0.7341
 7386SOL    HW227006   3.516   2.706   4.376  0.8744 -0.1429  1.7204
 7387SOL     OW27007   2.930   3.291   6.491 -0.3955 -0.5024 -0.0830
 7387SOL    HW127008   2.950   3.199   6.472  0.2197 -0.4897  0.4536
 7387SOL    HW227009   2.984   3.341   6.430 -0.9427 -0.4964 -0.5669
 7388SOL     OW27010   2.572   3.710   5.741 -0.0581  0.0562 -0.8378
 7388SOL    HW127011   2.551   3.803   5.744 -2.0611 -0.3912  0.7285
 7388SOL    HW227012   2.513   3.674   5.675 -1.5711 -0.5668  0.7805
 7389SOL     OW27013   1.237   1.812   5.762  0.1270  0.3719  0.5433
 7389SOL    HW127014   1.150   1.824   5.723 -0.3356 -3.6608 -0.1147
 7389SOL    HW227015   1.223   1.821   5.856 -1.1976 -0.9195  0.4985
 7390SOL     OW27016   0.304   1.723   8.082 -0.2607 -0.6401 -0.3045
 7390SOL    HW127017   0.220   1.710   8.037 -0.2927 -0.0502 -0.4184
 7390SOL    HW227018   0.352   1.642   8.065  0.0896 -0.0873 -2.2019
 7391SOL     OW27019   2.602   4.606   7.263 -0.2493  0.0838  0.1736
 7391SOL    HW127020   2.687   4.643   7.239 -0.6279  0.2765 -0.9263
 7391SOL    HW227021   2.539   4.676   7.244 -0.5937  0.2967  1.8635
 7392SOL     OW27022   2.956   3.046   6.383 -0.2856  0.0600  0.3411
 7392SOL    HW127023   2.945   2.985   6.456  0.5182 -0.1867  0.2692
 7392SOL    HW227024   2.937   2.993   6.305  0.4690 -0.1338  0.2749
 7393SOL     OW27025   2.567   4.828   5.073  0.8613  0.1362 -0.1667
 7393SOL    HW127026   2.485   4.782   5.053  0.6606  1.0970 -1.6638
 7393SOL    HW227027   2.635   4.763   5.056  0.5957  0.3915 -2.4960
 7394SOL     OW27028   2.275   3.314   6.223 -0.4974 -0.1642  0.0186
 7394SOL    HW127029   2.222   3.358   6.157 -1.2034 -0.0296  0.6594
 7394SOL    HW227030   2.211   3.273   6.282  0.0411  0.9664  1.4684
 7395SOL     OW27031   2.613   3.529   7.147 -0.9099 -0.1875 -1.0074
 7395SOL    HW127032   2.586   3.443   7.180 -0.8398  0.6593  1.4602
 7395SOL    HW227033   2.533   3.581   7.147 -0.5496  0.3961 -0.1841
 7396SOL     OW27034   2.546   2.214   6.327  0.1987 -0.1837  0.5677
 7396SOL    HW127035   2.478   2.161   6.284 -0.2826  1.9030 -1.4463
 7396SOL    HW227036   2.619   2.215   6.265  0.0051  1.8203  0.3069
 7397SOL     OW27037   3.530   3.044   5.173 -0.9705 -0.4326 -0.7269
 7397SOL    HW127038   3.483   2.997   5.104  0.2554 -2.1508 -0.4478
 7397SOL    HW227039   3.478   3.027   5.252 -1.1925 -0.2882 -0.8403
 7398SOL     OW27040   1.574   3.324   4.721 -0.2658 -0.1953 -0.2034
 7398SOL    HW127041   1.611   3.240   4.747 -1.0808 -1.4268 -2.7635
 7398SOL    HW227042   1.501   3.337   4.782  1.1074 -0.2717  1.5387
 7399SOL     OW27043   3.697   2.492   6.424  0.3093  0.3190 -0.2266
 7399SOL    HW127044   3.746   2.412   6.405 -0.8024 -0.3768 -0.2369
 7399SOL    HW227045   3.632   2.498   6.354 -0.0868  0.8398  0.1759
 7400SOL     OW27046   9.138   3.717   7.311 -0.5040 -0.1175  0.0380
 7400SOL    HW127047   9.140   3.722   7.407 -1.1488 -1.1975  0.1270
 7400SOL    HW227048   9.226   3.686   7.287 -0.0529  1.0114  0.2092
 7401SOL     OW27049   1.044   1.498   6.249  0.3697 -0.2597 -0.0469
 7401SOL    HW127050   1.066   1.579   6.295  1.7519 -1.5868  1.7541
 7401SOL    HW227051   0.968   1.522   6.195  0.5202  2.1322  0.6721
 7402SOL     OW27052   3.204   1.101   4.648 -0.2007 -0.0451 -0.1245
 7402SOL    HW127053   3.248   1.047   4.713 -2.1016 -0.4975  0.8746
 7402SOL    HW227054   3.224   1.191   4.674  0.5633 -0.2341 -0.0348
 7403SOL     OW27055   0.755   4.109   8.534  0.0861  0.5128 -0.0603
 7403SOL    HW127056   0.781   4.028   8.490  0.4018  1.1018 -0.9751
 7403SOL    HW227057   0.667   4.090   8.568  0.2857 -0.3146  0.0157
 7404SOL     OW27058   2.572   3.147   5.593  0.5943 -0.2027 -0.5141
 7404SOL    HW127059   2.641   3.080   5.596  1.5761  0.7901 -0.0791
 7404SOL    HW227060   2.505   3.110   5.535  1.8728 -0.8555 -1.6283
 7405SOL     OW27061   4.626   2.443   7.057  0.3513  0.2106 -0.2678
 7405SOL    HW127062   4.673   2.362   7.037 -0.0721 -0.2878  0.6671
 7405SOL    HW227063   4.678   2.512   7.016  1.2769 -0.4352 -0.2105
 7406SOL     OW27064   2.266   1.029   4.706 -0.0674 -0.0798  0.6894
 7406SOL    HW127065   2.223   1.052   4.623  0.8841 -1.0711 -0.1055
 7406SOL    HW227066   2.211   0.960   4.743 -0.1284 -0.1069  0.5477
 7407SOL     OW27067   1.395   3.277   7.564 -0.1852 -0.2078  0.3223
 7407SOL    HW127068   1.395   3.299   7.657  1.6899  0.4628  0.1999
 7407SOL    HW227069   1.311   3.233   7.550 -0.8810  0.4611  2.1279
 7408SOL     OW27070   2.722   1.741   5.390 -0.3843 -0.1178 -0.0108
 7408SOL    HW127071   2.628   1.758   5.393 -0.0158  2.0389  0.5992
 7408SOL    HW227072   2.742   1.704   5.476 -0.4441  0.8714  0.4421
 7409SOL     OW27073   4.415   2.898   5.235 -0.1119 -0.4109 -0.6429
 7409SOL    HW127074   4.500   2.925   5.199 -0.3496  0.5147 -0.5358
 7409SOL    HW227075   4.357   2.893   5.160 -0.1724 -0.1820 -0.6141
 7410SOL     OW27076   3.739   4.119   7.122  0.0428 -0.2652  0.0296
 7410SOL    HW127077   3.827   4.102   7.157 -0.2825  2.2308  2.4172
 7410SOL    HW227078   3.683   4.059   7.171  0.0402  0.6258  1.1595
 7411SOL     OW27079   1.104   1.933   7.057  0.0477  0.1737  0.2225
 7411SOL    HW127080   1.104   1.913   7.150 -3.7428  0.5407  0.4543
 7411SOL    HW227081   1.105   1.848   7.014  2.2892  0.0053  0.4832
 7412SOL     OW27082   1.137   2.739   8.318  0.1264 -0.9135  0.1281
 7412SOL    HW127083   1.090   2.703   8.393 -0.0832  0.5697  0.7433
 7412SOL    HW227084   1.223   2.762   8.352  0.0890 -0.3961 -0.1118
 7413SOL     OW27085   2.562   2.037   8.070 -0.4289 -0.3919  0.4945
 7413SOL    HW127086   2.488   2.076   8.117 -0.7397 -0.4109  0.0237
 7413SOL    HW227087   2.597   1.972   8.132  0.0571  0.5711  1.2578
 7414SOL     OW27088   2.203   2.351   6.315  0.5237  0.0448  0.1808
 7414SOL    HW127089   2.208   2.258   6.292 -0.0743  0.7523 -3.4234
 7414SOL    HW227090   2.115   2.378   6.288  1.0711  1.9017  0.1038
 7415SOL     OW27091   1.070   0.688   5.345  0.1412 -0.5187 -0.5192
 7415SOL    HW127092   1.015   0.758   5.310 -0.7720 -1.6451 -1.4194
 7415SOL    HW227093   1.017   0.610   5.338  1.0055 -1.2783  0.8027
 7416SOL     OW27094   4.513   3.442   7.079  0.1831 -0.0593 -0.3463
 7416SOL    HW127095   4.580   3.399   7.026  1.0499 -2.9705  2.7330
 7416SOL    HW227096   4.558   3.518   7.116  2.2543 -2.3177  2.1962
 7417SOL     OW27097   9.544   2.589   8.421  0.1667 -0.1638  0.0492
 7417SOL    HW127098   9.597   2.599   8.500  0.4636 -0.7749 -0.0647
 7417SOL    HW227099   9.580   2.510   8.378 -0.5194 -0.3042 -0.2743
 7418SOL     OW27100   3.089   0.212   6.014  0.3632 -0.9210  0.0710
 7418SOL    HW127101   3.120   0.301   6.002 -1.0736 -0.2829  0.8649
 7418SOL    HW227102   3.051   0.187   5.929 -0.6501 -0.1842  0.2982
 7419SOL     OW27103   7.553   2.814   6.025  0.0486  0.5494 -0.1253
 7419SOL    HW127104   7.473   2.762   6.027  1.1536 -1.3273 -1.3340
 7419SOL    HW227105   7.559   2.846   5.935  0.7823  0.4639 -0.1127
 7420SOL     OW27106   3.432   4.298   5.294  0.0886 -0.0597  0.3384
 7420SOL    HW127107   3.353   4.245   5.281  0.8498 -0.9763 -0.7029
 7420SOL    HW227108   3.406   4.386   5.265 -0.3666 -0.4987 -0.6359
 7421SOL     OW27109   3.645   2.388   4.322  0.2234  0.0227 -0.1591
 7421SOL    HW127110   3.642   2.399   4.227 -1.4839 -0.4375 -0.1976
 7421SOL    HW227111   3.628   2.294   4.336 -0.1405  0.1916  0.6143
 7422SOL     OW27112   3.280   3.246   7.287  0.6605 -0.1061  0.0706
 7422SOL    HW127113   3.258   3.174   7.227 -0.1381  1.4448 -1.5800
 7422SOL    HW227114   3.227   3.320   7.257 -1.6817  0.1909  4.1771
 7423SOL     OW27115   9.305   2.203   7.766  0.7298  0.0711  1.0092
 7423SOL    HW127116   9.338   2.118   7.792  1.5637  0.2534  0.5862
 7423SOL    HW227117   9.314   2.204   7.670  0.4119  0.5059  0.9780
 7424SOL     OW27118   1.158   2.936   6.575  0.0654 -0.7907  0.4926
 7424SOL    HW127119   1.239   2.896   6.546 -0.8604 -1.8657 -0.7044
 7424SOL    HW227120   1.129   2.989   6.501 -1.6048 -2.4533 -0.1195
 7425SOL     OW27121   1.245   4.632   5.840 -0.3964  0.2240  0.1126
 7425SOL    HW127122   1.178   4.568   5.816  0.1274 -0.4660  0.4768
 7425SOL    HW227123   1.222   4.657   5.929 -1.2220  1.3627 -0.3856
 7426SOL     OW27124   2.872   4.729   5.910  0.2797 -0.4197 -0.3376
 7426SOL    HW127125   2.779   4.706   5.919 -0.2355  0.9813 -1.6292
 7426SOL    HW227126   2.899   4.687   5.828  0.4308  0.2162 -0.6164
 7427SOL     OW27127   1.647   2.221   6.301  0.2341  0.1002 -0.2726
 7427SOL    HW127128   1.606   2.200   6.217 -1.9860 -2.3972  1.2609
 7427SOL    HW227129   1.622   2.312   6.318 -1.5814 -0.1936 -1.1349
 7428SOL     OW27130   3.664   3.489   3.682 -0.9810 -0.5802  0.8486
 7428SOL    HW127131   3.669   3.393   3.680 -3.0242 -0.7193  0.6535
 7428SOL    HW227132   3.592   3.508   3.742 -2.0160  0.7453 -0.7440
 7429SOL     OW27133   1.526   2.556   6.776 -0.1246 -0.1634 -0.0351
 7429SOL    HW127134   1.564   2.482   6.728  0.2802  0.7613 -1.1864
 7429SOL    HW227135   1.459   2.516   6.831  0.4590 -1.4590 -0.2139
 7430SOL     OW27136   0.620   5.524   9.127  0.3531  0.2683 -0.3133
 7430SOL    HW127137   0.642   5.522   9.220 -1.0640  1.2801  0.0771
 7430SOL    HW227138   0.629   5.616   9.102  2.5994 -0.2392 -1.7080
 7431SOL     OW27139   1.811   1.385   4.590 -0.5407  0.0618 -0.7507
 7431SOL    HW127140   1.775   1.318   4.648  0.5770  0.2586  0.2187
 7431SOL    HW227141   1.755   1.461   4.603 -1.6836 -0.5779 -1.6931
 7432SOL     OW27142   3.310   0.214   6.943 -0.0116  0.3085 -0.2093
 7432SOL    HW127143   3.379   0.253   6.996  1.2843  0.0019 -1.5930
 7432SOL    HW227144   3.289   0.281   6.877  0.2859 -0.2756 -0.9174
 7433SOL     OW27145   2.210   2.536   3.522 -0.1669 -0.2916 -0.2281
 7433SOL    HW127146   2.158   2.588   3.584 -0.5911  0.8543 -1.4938
 7433SOL    HW227147   2.228   2.596   3.450  1.0688 -1.3353 -0.8207
 7434SOL     OW27148   1.686   0.960   5.241  0.2319 -0.2659  0.0559
 7434SOL    HW127149   1.742   0.890   5.209  0.5819 -0.7007  1.5726
 7434SOL    HW227150   1.603   0.948   5.194  0.9744 -0.3477 -1.3018
 7435SOL     OW27151   3.632   3.736   5.896  0.1403  0.2133  0.2672
 7435SOL    HW127152   3.592   3.688   5.823 -0.1142  0.3718  0.3004
 7435SOL    HW227153   3.718   3.696   5.907  0.6015  0.8767 -0.7977
 7436SOL     OW27154   2.467   4.516   6.752 -0.1497 -0.5584 -0.0095
 7436SOL    HW127155   2.549   4.488   6.712 -0.2091 -1.2344  0.3184
 7436SOL    HW227156   2.403   4.450   6.724 -0.9752  0.8290 -1.5952
 7437SOL     OW27157   2.264   4.648   5.160 -0.0297 -0.0253 -0.0905
 7437SOL    HW127158   2.269   4.730   5.208  0.6997 -0.6810  1.0254
 7437SOL    HW227159   2.175   4.616   5.176  0.6502 -1.0240  2.3171
 7438SOL     OW27160   3.366   2.595   7.700  0.1822 -0.1825 -0.6046
 7438SOL    HW127161   3.357   2.622   7.609  0.0369  0.3842 -0.4288
 7438SOL    HW227162   3.409   2.510   7.696  0.0723 -0.2147 -1.2064
 7439SOL     OW27163   3.125   0.501   6.028 -0.1004  0.3485 -0.8622
 7439SOL    HW127164   3.186   0.491   6.102  1.1444 -2.4207 -2.1018
 7439SOL    HW227165   3.133   0.593   6.003  0.8606  0.9077  1.2528
 7440SOL     OW27166   2.042   9.162   5.761 -0.1789  0.1104 -0.0130
 7440SOL    HW127167   2.037   9.256   5.779  0.0884  0.3395 -1.0575
 7440SOL    HW227168   2.117   9.132   5.812 -0.2950  0.4588  0.3647
 7441SOL     OW27169   3.908   3.737   5.906  0.9282 -0.0618 -0.8828
 7441SOL    HW127170   3.945   3.778   5.985 -2.0023  0.3286  0.4104
 7441SOL    HW227171   3.927   3.800   5.836  0.3116  1.4630  0.2607
 7442SOL     OW27172   1.887   1.082   6.232  0.4762 -1.0470  0.2988
 7442SOL    HW127173   1.892   1.108   6.324 -1.4868 -0.0518  0.1762
 7442SOL    HW227174   1.918   0.992   6.230 -1.5484 -1.8635  2.3252
 7443SOL     OW27175   3.944   2.320   4.287 -0.4725 -0.3900  0.7023
 7443SOL    HW127176   3.851   2.335   4.307 -0.6967  1.0610 -1.1733
 7443SOL    HW227177   3.952   2.338   4.194  1.9624  0.9022  1.0869
 7444SOL     OW27178   2.852   3.749   5.719 -0.4227 -0.2715 -0.3656
 7444SOL    HW127179   2.847   3.839   5.686  0.3658 -0.2428 -0.4314
 7444SOL    HW227180   2.763   3.729   5.747 -0.4740  0.7572  0.2522
 7445SOL     OW27181   9.120   2.117   9.242  0.0968 -0.3532  0.3301
 7445SOL    HW127182   9.028   2.122   9.215 -0.0405 -0.1802  0.8199
 7445SOL    HW227183   9.150   2.033   9.208  0.5002  0.6861 -2.0969
 7446SOL     OW27184   5.291   3.343   8.700  0.5944  0.6649 -0.6617
 7446SOL    HW127185   5.335   3.361   8.617 -0.2492 -0.2840 -1.3406
 7446SOL    HW227186   5.200   3.325   8.676  0.4880 -0.3214  0.3809
 7447SOL     OW27187   2.373   7.676   4.550  0.2348  0.1592 -0.3053
 7447SOL    HW127188   2.298   7.625   4.581  0.3637  0.0121 -0.2338
 7447SOL    HW227189   2.335   7.747   4.498  0.1452 -1.5503 -2.7489
 7448SOL     OW27190   9.234   1.289   6.341 -0.8575 -0.1803 -0.1343
 7448SOL    HW127191   9.148   1.331   6.341 -0.8581 -0.1083  1.6605
 7448SOL    HW227192   9.297   1.362   6.341 -0.6687 -0.1927 -3.2374
 7449SOL     OW27193   4.654   1.497   6.120  0.6185  0.1241 -0.0062
 7449SOL    HW127194   4.580   1.512   6.180  0.7422 -0.1939  0.2285
 7449SOL    HW227195   4.729   1.481   6.177  0.9524  0.8258 -0.2439
 7450SOL     OW27196   2.318   0.096   3.547  0.0372 -0.3008  0.2999
 7450SOL    HW127197   2.248   0.119   3.485  0.3377  0.0531  0.0842
 7450SOL    HW227198   2.343   0.007   3.522 -0.8033 -0.7010  0.8246
 7451SOL     OW27199   4.617   1.925   7.439  0.0537 -0.5293 -0.3970
 7451SOL    HW127200   4.558   1.882   7.378 -1.4622  0.5897  0.2192
 7451SOL    HW227201   4.559   1.974   7.498  1.6316  2.0814 -0.8694
 7452SOL     OW27202   1.788   3.647   6.677  0.1323 -1.0802 -0.0439
 7452SOL    HW127203   1.867   3.643   6.731  1.3970 -1.6075 -1.8386
 7452SOL    HW227204   1.779   3.739   6.654  1.0620 -1.2111 -0.9806
 7453SOL     OW27205   3.793   3.900   7.537 -0.0514  0.6256  0.1633
 7453SOL    HW127206   3.748   3.923   7.618 -0.5478  0.3873 -0.0395
 7453SOL    HW227207   3.758   3.814   7.513  2.0928 -0.5875  1.1357
 7454SOL     OW27208   0.785   2.859   5.604  0.1251  0.2104 -0.4083
 7454SOL    HW127209   0.854   2.924   5.617  0.0648 -0.0980  1.6746
 7454SOL    HW227210   0.741   2.887   5.524  1.3547  1.5827 -0.6481
 7455SOL     OW27211   3.842   3.563   4.523  0.2784  0.0634 -0.4283
 7455SOL    HW127212   3.774   3.629   4.517 -0.4052 -0.7561 -2.3906
 7455SOL    HW227213   3.798   3.485   4.554  0.5338 -0.2010 -0.7232
 7456SOL     OW27214   4.353   0.677   2.707 -0.4085  0.4096  0.0962
 7456SOL    HW127215   4.322   0.666   2.796 -0.5099  0.5269  0.0746
 7456SOL    HW227216   4.287   0.730   2.664 -0.3677  0.3408 -0.0537
 7457SOL     OW27217   1.665   9.596   4.302  0.9140  0.5371 -0.9307
 7457SOL    HW127218   1.643   9.586   4.209  1.3742  0.0586 -0.9927
 7457SOL    HW227219   1.757   9.571   4.308  0.4309 -1.2358 -0.0632
 7458SOL     OW27220   4.278   3.108   4.458  0.4103  0.1065  0.5970
 7458SOL    HW127221   4.244   3.096   4.546 -1.9010  0.5073 -0.1844
 7458SOL    HW227222   4.202   3.129   4.405  1.9325  1.3381 -1.2501
 7459SOL     OW27223   3.962   4.569   8.266 -0.1639  0.0505  0.0353
 7459SOL    HW127224   4.026   4.598   8.330  1.4395 -1.1987 -0.9339
 7459SOL    HW227225   4.012   4.558   8.185 -2.0343  1.2040 -1.3779
 7460SOL     OW27226   4.049   3.525   6.716 -0.2014  0.3393  0.7271
 7460SOL    HW127227   4.008   3.481   6.791 -1.7292  0.9194  0.2702
 7460SOL    HW227228   3.975   3.556   6.663  0.8324 -0.4095 -1.2609
 7461SOL     OW27229   1.331   4.968   5.023 -0.8154  0.0213  0.4229
 7461SOL    HW127230   1.282   4.957   5.105 -3.0027  0.0519 -0.8099
 7461SOL    HW227231   1.394   5.037   5.043 -0.9845 -0.2704  2.2051
 7462SOL     OW27232   4.641   3.572   7.457 -0.4771 -0.1895  0.4542
 7462SOL    HW127233   4.667   3.495   7.509 -0.7344 -0.1998  0.5697
 7462SOL    HW227234   4.574   3.615   7.510 -0.0224  0.3600  0.5943
 7463SOL     OW27235   4.564   4.835   8.145  0.4907  0.0460 -0.0312
 7463SOL    HW127236   4.527   4.906   8.197  2.5503  0.9602  0.2512
 7463SOL    HW227237   4.571   4.761   8.206 -0.8203 -0.1608 -0.0986
 7464SOL     OW27238   2.977   4.173   7.972  0.0220 -0.2421 -0.2454
 7464SOL    HW127239   2.896   4.122   7.967 -0.8450  1.2151 -2.2568
 7464SOL    HW227240   3.018   4.144   8.054 -0.9780 -3.2745 -0.6656
 7465SOL     OW27241   9.675   1.553   6.619  0.5092 -0.5487  0.4442
 7465SOL    HW127242   9.729   1.474   6.628 -0.5176 -1.6000 -1.8264
 7465SOL    HW227243   9.702   1.592   6.536 -0.6246  0.1554  0.3812
 7466SOL     OW27244   2.075   2.284   6.844 -0.4920  0.1912 -1.0002
 7466SOL    HW127245   1.998   2.338   6.861 -1.2620 -1.0014 -0.5866
 7466SOL    HW227246   2.132   2.298   6.920 -0.5122  0.6971 -1.0756
 7467SOL     OW27247   2.237   1.976   6.986 -0.1124 -0.1303  0.1949
 7467SOL    HW127248   2.241   1.926   6.904  0.4809  0.9179 -0.4328
 7467SOL    HW227249   2.151   1.955   7.023  0.8306 -3.1694  0.9764
 7468SOL     OW27250   2.003   0.773   3.630 -0.0667 -0.3320 -0.3890
 7468SOL    HW127251   2.001   0.863   3.596 -0.6594 -0.7898 -1.6344
 7468SOL    HW227252   2.031   0.782   3.721  1.7983  0.9340 -1.0300
 7469SOL     OW27253   1.734   2.343   4.149  0.9370 -0.1898  0.1694
 7469SOL    HW127254   1.792   2.369   4.221  0.5872  1.5346 -0.1062
 7469SOL    HW227255   1.678   2.275   4.187 -0.0091  1.4466  1.9707
 7470SOL     OW27256   3.640   1.382   7.176 -0.2672  0.0656  0.5828
 7470SOL    HW127257   3.638   1.306   7.235  0.2925 -0.7724 -0.4535
 7470SOL    HW227258   3.718   1.430   7.201  0.0643 -0.3808  0.4061
 7471SOL     OW27259   3.685   5.562   7.312  0.1779 -0.5438 -0.2312
 7471SOL    HW127260   3.641   5.532   7.232  1.5612 -0.6083 -1.0039
 7471SOL    HW227261   3.716   5.482   7.353  0.5526 -0.4305 -0.2896
 7472SOL     OW27262   2.804   5.459   7.852  0.4674 -0.9164  0.2951
 7472SOL    HW127263   2.870   5.436   7.917  0.8082 -0.5602  0.0773
 7472SOL    HW227264   2.843   5.438   7.768 -0.2942 -2.1658  0.2309
 7473SOL     OW27265   3.437   1.853   4.927 -0.2446 -0.2057  0.0386
 7473SOL    HW127266   3.417   1.833   5.018 -0.2176 -0.3482  0.0127
 7473SOL    HW227267   3.531   1.835   4.917 -0.2195 -0.0687  0.0154
 7474SOL     OW27268   2.307   2.845   6.926  0.2070 -0.1630 -0.2788
 7474SOL    HW127269   2.298   2.778   6.858 -1.3406  1.2104 -1.5015
 7474SOL    HW227270   2.221   2.848   6.968  0.3420  0.8664 -0.0489
 7475SOL     OW27271   2.518   3.194   6.815  0.1636 -0.0064 -0.0053
 7475SOL    HW127272   2.569   3.250   6.756  1.4772  0.8239  1.8308
 7475SOL    HW227273   2.437   3.241   6.830  0.0677  0.0512 -0.6739
 7476SOL     OW27274   3.539   3.287   7.149 -0.3123 -0.6417 -0.4230
 7476SOL    HW127275   3.464   3.294   7.209  0.6396 -0.2851  0.7838
 7476SOL    HW227276   3.541   3.195   7.123  1.1213 -1.6224  2.6978
 7477SOL     OW27277   2.253   1.329   5.766 -0.4857 -0.0979  0.4978
 7477SOL    HW127278   2.188   1.305   5.832 -0.4817  0.2364  0.6238
 7477SOL    HW227279   2.309   1.393   5.810 -0.1626 -0.2675  0.3405
 7478SOL     OW27280   1.023   0.934   6.711 -0.1726 -0.4276  0.1958
 7478SOL    HW127281   1.105   0.956   6.669  0.5008 -0.7931  1.2744
 7478SOL    HW227282   0.955   0.966   6.651  0.7445  1.0466 -0.0955
 7479SOL     OW27283   4.846   3.090   5.299 -0.4248  0.5417  0.0483
 7479SOL    HW127284   4.889   3.174   5.283  0.9172  0.1654  1.3430
 7479SOL    HW227285   4.919   3.027   5.304 -1.2722 -0.4275  0.5709
 7480SOL     OW27286   3.207   3.185   8.118  0.0083  0.1256  0.2060
 7480SOL    HW127287   3.121   3.194   8.078 -0.8549  0.3774  2.0079
 7480SOL    HW227288   3.217   3.090   8.133  0.5457 -0.0219 -0.9908
 7481SOL     OW27289   3.265   1.577   6.145 -0.2559 -0.1645 -0.1989
 7481SOL    HW127290   3.218   1.606   6.223  0.2114  1.6009 -0.5137
 7481SOL    HW227291   3.338   1.525   6.178  0.9942  2.0257  0.7358
 7482SOL     OW27292   2.988   3.217   6.063 -0.8252 -0.0267  0.0862
 7482SOL    HW127293   3.048   3.228   6.136 -1.6912 -0.8532  0.9572
 7482SOL    HW227294   2.967   3.307   6.036  0.5882  0.2687 -0.0806
 7483SOL     OW27295   2.821   9.857   5.933 -0.2681 -0.0903 -0.0390
 7483SOL    HW127296   2.882   9.813   5.874 -0.8726  0.6272 -1.2414
 7483SOL    HW227297   2.734   9.831   5.902 -0.5992 -0.5071  1.1873
 7484SOL     OW27298   2.027   3.344   8.012  0.6143  0.4808 -0.3284
 7484SOL    HW127299   2.053   3.270   7.957  0.5012 -1.2338  1.7982
 7484SOL    HW227300   1.947   3.315   8.056  0.5927  1.8487  0.6018
 7485SOL     OW27301   1.196   9.844   5.181 -0.1028 -0.1299 -0.1257
 7485SOL    HW127302   1.267   9.802   5.134  3.2521  2.2238  2.3496
 7485SOL    HW227303   1.185   9.929   5.137  1.9009  1.3748  2.0063
 7486SOL     OW27304   4.527   1.819   5.610 -0.5665  0.3498  0.5803
 7486SOL    HW127305   4.498   1.788   5.524  1.5812  0.6500 -0.3152
 7486SOL    HW227306   4.471   1.773   5.672 -1.8915 -0.2024 -0.9538
 7487SOL     OW27307   3.583   1.888   5.421  0.0777 -0.1729 -0.2168
 7487SOL    HW127308   3.551   1.802   5.448  2.3691 -1.2335 -0.6467
 7487SOL    HW227309   3.647   1.912   5.488  1.7749 -0.3024 -1.7319
 7488SOL     OW27310   2.294   3.850   7.923  0.0211 -0.2619  0.0338
 7488SOL    HW127311   2.340   3.902   7.988 -0.6213  0.1495  0.1603
 7488SOL    HW227312   2.202   3.863   7.942 -0.1566 -1.4128  0.0397
 7489SOL     OW27313   2.841   5.223   7.144  0.6872 -0.2627 -0.3129
 7489SOL    HW127314   2.900   5.229   7.068  1.1699 -0.2731  0.0525
 7489SOL    HW227315   2.815   5.131   7.147  0.0199 -0.1072 -0.9368
 7490SOL     OW27316   2.878   4.431   6.697 -0.2760  0.5776  0.3426
 7490SOL    HW127317   2.930   4.410   6.775 -1.5682 -0.5009  0.9449
 7490SOL    HW227318   2.908   4.368   6.632  1.0119  1.6642 -0.1763
 7491SOL     OW27319   4.741   3.097   4.891 -1.4637  0.1112 -0.2290
 7491SOL    HW127320   4.836   3.093   4.880 -1.2604  0.3714  1.2370
 7491SOL    HW227321   4.712   3.163   4.828 -0.4815  1.0258  0.2400
 7492SOL     OW27322   2.928   1.509   3.385 -0.2911 -0.1058 -0.4531
 7492SOL    HW127323   2.850   1.462   3.413  0.3148 -0.3529  0.9102
 7492SOL    HW227324   2.963   1.458   3.312 -0.8621 -0.5429 -0.4217
 7493SOL     OW27325   2.035   1.730   6.948 -0.2636  0.2238  0.0620
 7493SOL    HW127326   1.996   1.653   6.989  0.4205 -0.4600 -0.5353
 7493SOL    HW227327   2.024   1.800   7.012  0.8040 -0.8140  1.4551
 7494SOL     OW27328   3.021   2.036   7.058 -0.4298  0.1700 -0.3380
 7494SOL    HW127329   3.053   1.951   7.089 -0.8553 -0.4072 -1.4473
 7494SOL    HW227330   2.929   2.022   7.038 -0.4912  0.8790 -0.5817
 7495SOL     OW27331   4.222   9.644   5.801 -0.2483  0.2034 -0.3594
 7495SOL    HW127332   4.185   9.712   5.857 -1.0186 -0.2685 -0.2859
 7495SOL    HW227333   4.198   9.670   5.712 -2.4780 -1.0920 -0.1943
 7496SOL     OW27334   3.721   9.739   5.689 -0.2409 -0.2394 -0.1307
 7496SOL    HW127335   3.803   9.784   5.708 -1.0716  1.4388 -0.3137
 7496SOL    HW227336   3.728   9.656   5.737  0.5673  0.9027  1.8815
 7497SOL     OW27337   6.109   3.149   6.414 -0.4638 -0.3135 -0.5906
 7497SOL    HW127338   6.062   3.069   6.390 -1.6069 -0.1499  0.9135
 7497SOL    HW227339   6.051   3.220   6.389 -0.9942 -0.0987  1.1047
 7498SOL     OW27340   0.827   2.515   6.322 -0.2607 -0.6304  0.3987
 7498SOL    HW127341   0.735   2.486   6.318  0.1450 -2.1274  1.1521
 7498SOL    HW227342   0.825   2.593   6.377 -1.0055 -1.0359  0.9612
 7499SOL     OW27343   3.264   3.369   6.574 -0.0818 -0.5252 -0.2650
 7499SOL    HW127344   3.260   3.274   6.576 -0.0280 -0.5232 -0.0187
 7499SOL    HW227345   3.327   3.392   6.643  1.5756 -0.4049 -1.7500
 7500SOL     OW27346   2.852   2.269   6.037 -0.5661 -0.6351  0.4250
 7500SOL    HW127347   2.933   2.221   6.056 -0.3046 -0.2308  0.3314
 7500SOL    HW227348   2.783   2.209   6.064 -0.2196 -0.5304  1.5968
 7501SOL     OW27349   1.403   2.684   6.210 -0.1972  0.5312  0.3517
 7501SOL    HW127350   1.393   2.594   6.178 -0.4502  0.6323  0.1401
 7501SOL    HW227351   1.314   2.719   6.211 -0.3214  0.2666  1.9817
 7502SOL     OW27352   1.861   4.873   8.311 -0.0706 -0.1022 -0.7313
 7502SOL    HW127353   1.863   4.842   8.401 -1.2494 -0.2399 -0.7447
 7502SOL    HW227354   1.802   4.812   8.266  0.4307  0.0173 -1.5825
 7503SOL     OW27355   3.961   4.264   7.706 -0.9154  0.0618  0.3956
 7503SOL    HW127356   3.881   4.282   7.656 -0.9391 -0.7907  0.1219
 7503SOL    HW227357   3.955   4.172   7.729  0.7856 -0.4658 -1.0643
 7504SOL     OW27358   2.845   2.411   6.429  0.1093 -0.1362 -0.1916
 7504SOL    HW127359   2.753   2.407   6.457  0.4171  1.8816  1.3030
 7504SOL    HW227360   2.868   2.320   6.411 -1.5159 -1.0028  1.7096
 7505SOL     OW27361   0.590   9.367   9.808  0.6427  0.0129  0.3376
 7505SOL    HW127362   0.598   9.341   9.900  3.4343  0.5522  0.3287
 7505SOL    HW227363   0.618   9.458   9.807  1.7429 -0.3186 -1.1989
 7506SOL     OW27364   3.807   1.021   3.807 -0.1833 -0.1109  0.0607
 7506SOL    HW127365   3.848   1.091   3.858 -1.4972 -0.4211  1.6377
 7506SOL    HW227366   3.878   0.981   3.759  0.8092  1.4601  0.1484
 7507SOL     OW27367   2.788   2.051   6.843  0.3113  0.6814  0.3665
 7507SOL    HW127368   2.800   2.058   6.748  0.7930 -1.0351  0.2640
 7507SOL    HW227369   2.765   1.959   6.857 -1.3547  1.2637  1.7764
 7508SOL     OW27370   1.672   2.780   4.725 -0.2975  0.5331 -0.2016
 7508SOL    HW127371   1.576   2.773   4.723 -0.3741  0.6276  1.7618
 7508SOL    HW227372   1.690   2.872   4.742  0.0685  0.1750  1.4909
 7509SOL     OW27373   0.458   3.760   8.312  0.1680 -0.7806 -0.0517
 7509SOL    HW127374   0.536   3.764   8.256 -0.2263 -0.6603 -0.6026
 7509SOL    HW227375   0.490   3.781   8.399  0.2767  2.2863 -0.7228
 7510SOL     OW27376   2.904   2.852   6.212  0.3959 -0.4014  0.0770
 7510SOL    HW127377   2.835   2.809   6.263 -0.2852 -0.2828 -0.7115
 7510SOL    HW227378   2.875   2.844   6.121  1.3503 -0.2026 -0.2622
 7511SOL     OW27379   3.851   0.437   6.653 -0.0916 -0.4313 -0.2365
 7511SOL    HW127380   3.903   0.373   6.605  0.0924  0.2918 -1.0242
 7511SOL    HW227381   3.797   0.479   6.586 -2.0986 -1.5085  0.6077
 7512SOL     OW27382   5.127   3.149   3.451 -0.2637 -0.3070  0.1753
 7512SOL    HW127383   5.140   3.104   3.534  0.5148  0.5318  0.5234
 7512SOL    HW227384   5.210   3.139   3.404 -0.8984 -1.3197 -0.7874
 7513SOL     OW27385   8.827   1.863   8.039 -0.3535  0.5146  0.2756
 7513SOL    HW127386   8.732   1.872   8.041 -0.4322 -0.3792  1.1470
 7513SOL    HW227387   8.843   1.770   8.022  0.3227  0.1840  2.4161
 7514SOL     OW27388   3.462   4.274   5.855 -0.3858  0.5112  0.5063
 7514SOL    HW127389   3.404   4.337   5.896 -1.3887 -0.2002  0.2151
 7514SOL    HW227390   3.456   4.293   5.761  0.3745  0.8575  0.5177
 7515SOL     OW27391   1.845   1.226   5.827  0.3676 -0.6188 -0.1406
 7515SOL    HW127392   1.917   1.164   5.815 -2.3146 -4.0001 -0.5480
 7515SOL    HW227393   1.800   1.194   5.905 -0.2178  1.9618  0.6548
 7516SOL     OW27394   2.535   2.162   6.740  0.1113  0.0738 -0.6590
 7516SOL    HW127395   2.482   2.211   6.676  0.9747  0.0788 -1.3953
 7516SOL    HW227396   2.604   2.123   6.688 -0.9370 -2.5738 -0.2069
 7517SOL     OW27397   1.621   2.232   8.343  0.5120 -0.5727  0.1729
 7517SOL    HW127398   1.595   2.177   8.417 -1.1532 -1.1453 -0.7967
 7517SOL    HW227399   1.714   2.212   8.330  1.2988  0.6350  2.9795
 7518SOL     OW27400   2.343   2.474   5.379 -0.0260  0.0709 -0.5430
 7518SOL    HW127401   2.369   2.435   5.462 -0.5285  1.4670  0.3079
 7518SOL    HW227402   2.350   2.403   5.316 -1.6741 -1.6145  1.0615
 7519SOL     OW27403   0.597   2.080   7.700 -0.3605 -0.1015 -0.2664
 7519SOL    HW127404   0.554   2.139   7.638  1.6136 -0.2478 -1.9057
 7519SOL    HW227405   0.642   2.016   7.644  0.0482 -1.3428  1.3979
 7520SOL     OW27406   2.935   2.161   6.349 -0.4369 -0.0273  0.0339
 7520SOL    HW127407   3.001   2.134   6.412  2.5876  1.3023 -2.3276
 7520SOL    HW227408   2.943   2.098   6.277 -0.8465  0.8806 -0.8420
 7521SOL     OW27409   4.680   2.398   8.813  0.1418  0.2651 -0.2403
 7521SOL    HW127410   4.658   2.337   8.742  0.3647 -1.0936  0.8218
 7521SOL    HW227411   4.772   2.382   8.831 -0.4126 -1.0613  1.8229
 7522SOL     OW27412   2.412   2.577   6.357  0.4967 -0.1558  0.2094
 7522SOL    HW127413   2.339   2.517   6.341  0.2376 -0.4249  2.2261
 7522SOL    HW227414   2.428   2.618   6.271 -0.5297 -1.7210 -0.7811
 7523SOL     OW27415   2.314   3.499   6.995 -0.1691  0.4114  0.4871
 7523SOL    HW127416   2.275   3.479   6.909 -0.9449  1.6696  0.5284
 7523SOL    HW227417   2.407   3.509   6.977 -0.3093  0.5697 -0.1880
 7524SOL     OW27418   2.163   2.532   7.763  0.2269  0.0572 -0.3028
 7524SOL    HW127419   2.141   2.451   7.717  2.0419 -0.5290 -0.2220
 7524SOL    HW227420   2.202   2.502   7.846  0.3363  1.0251  0.0011
 7525SOL     OW27421   3.269   2.977   4.975  0.3210 -0.1087  0.0584
 7525SOL    HW127422   3.222   2.972   5.058 -0.8716 -0.3608 -0.6028
 7525SOL    HW227423   3.201   2.995   4.910  1.4901  2.2320 -0.6284
 7526SOL     OW27424   0.809   3.373   7.809 -0.0879  0.3755  0.0483
 7526SOL    HW127425   0.717   3.346   7.810  0.2159 -0.7821  1.5830
 7526SOL    HW227426   0.857   3.291   7.798  0.7791  1.2015 -3.4358
 7527SOL     OW27427   2.566   3.916   5.456  0.2107 -0.3008 -0.5112
 7527SOL    HW127428   2.505   3.846   5.477  1.2336 -1.4763 -1.3063
 7527SOL    HW227429   2.555   3.979   5.527 -3.4360  0.6494 -1.6956
 7528SOL     OW27430   3.512   5.754   8.009  0.0410 -0.1638  0.0188
 7528SOL    HW127431   3.586   5.708   7.970  2.5345  3.4689  0.0191
 7528SOL    HW227432   3.453   5.771   7.936  1.3047  0.5486 -0.8679
 7529SOL     OW27433   2.815   0.844   7.590 -0.2500 -0.5845  0.8374
 7529SOL    HW127434   2.817   0.822   7.683 -0.2592 -1.6374  0.6004
 7529SOL    HW227435   2.906   0.833   7.561 -0.4791 -1.5167  0.4518
 7530SOL     OW27436   1.746   4.525   6.169  0.2323 -0.3661  0.2119
 7530SOL    HW127437   1.753   4.619   6.154  1.1182 -0.1551  1.6646
 7530SOL    HW227438   1.658   4.513   6.204  0.7596  0.2773  1.9083
 7531SOL     OW27439   3.268   0.540   6.264  0.3455 -0.2296 -0.2295
 7531SOL    HW127440   3.295   0.627   6.291  2.0476 -1.2354  1.6368
 7531SOL    HW227441   3.335   0.513   6.201  0.1230 -0.3662 -0.4063
 7532SOL     OW27442   2.121   4.365   6.040  0.6856 -0.5675 -0.2647
 7532SOL    HW127443   2.212   4.350   6.065  1.0805  0.7674 -0.8134
 7532SOL    HW227444   2.115   4.331   5.951  0.4088 -1.4289  0.0730
 7533SOL     OW27445   0.654   3.121   8.640 -0.3775  0.3600  0.2651
 7533SOL    HW127446   0.661   3.215   8.659  0.5178  0.6083 -1.1585
 7533SOL    HW227447   0.584   3.090   8.699  0.2261  1.6305  1.7263
 7534SOL     OW27448   9.406   1.700   6.671  0.0561  0.4493  0.0766
 7534SOL    HW127449   9.383   1.757   6.745 -1.2512 -1.5748  1.3318
 7534SOL    HW227450   9.338   1.717   6.606  0.7496  1.6457 -0.3695
 7535SOL     OW27451   9.348   9.417   8.245  0.3588 -0.2061  0.3073
 7535SOL    HW127452   9.360   9.488   8.182 -1.0901 -0.4291 -0.2737
 7535SOL    HW227453   9.426   9.363   8.236 -0.4165 -1.0734 -2.4603
 7536SOL     OW27454   4.441   3.377   8.263  0.3734  0.0942 -0.1465
 7536SOL    HW127455   4.396   3.433   8.327  0.0305 -0.9214  0.5247
 7536SOL    HW227456   4.509   3.433   8.226 -0.4467  1.1873 -0.0418
 7537SOL     OW27457   1.274   0.964   6.534 -0.3528 -0.3137  0.5551
 7537SOL    HW127458   1.301   0.933   6.447  2.6641  1.2092  0.8149
 7537SOL    HW227459   1.315   0.903   6.595  1.2289  1.0306  0.9245
 7538SOL     OW27460   2.711   3.716   4.316 -0.3516  0.9708 -0.2522
 7538SOL    HW127461   2.801   3.691   4.295 -0.6664  0.3269 -0.9087
 7538SOL    HW227462   2.672   3.636   4.352 -0.6285  1.2744  0.1235
 7539SOL     OW27463   2.795   3.542   8.871  0.0384  0.4080 -0.2752
 7539SOL    HW127464   2.817   3.591   8.791  0.8854  0.8682  0.2306
 7539SOL    HW227465   2.865   3.478   8.880  0.0006  0.4264  0.1568
 7540SOL     OW27466   4.837   1.981   5.741 -0.1853 -1.1133 -0.1374
 7540SOL    HW127467   4.817   1.902   5.692 -0.4928 -0.8284 -0.4780
 7540SOL    HW227468   4.781   1.976   5.819 -0.0654 -1.3183 -0.0640
 7541SOL     OW27469   1.752   3.866   7.174  0.3839 -0.1047  0.5401
 7541SOL    HW127470   1.666   3.841   7.210  0.9974 -0.4353  1.8404
 7541SOL    HW227471   1.812   3.801   7.210  0.9204 -1.0714 -1.9234
 7542SOL     OW27472   3.077   4.631   6.846  0.1700 -0.7347 -0.1386
 7542SOL    HW127473   3.025   4.572   6.901 -0.7598 -1.1022 -1.3668
 7542SOL    HW227474   3.163   4.635   6.889  0.2400 -2.9414  0.0423
 7543SOL     OW27475   2.383   3.293   7.376 -0.0065  0.1395 -0.0662
 7543SOL    HW127476   2.363   3.285   7.469  0.7119  1.5866  0.2442
 7543SOL    HW227477   2.311   3.250   7.332 -1.4677  1.2761  1.1180
 7544SOL     OW27478   2.774   9.665   6.248  0.4759  0.1997 -0.3359
 7544SOL    HW127479   2.687   9.677   6.284  0.0672  5.0810 -2.2437
 7544SOL    HW227480   2.833   9.671   6.324 -0.6417 -2.3832  0.8611
 7545SOL     OW27481   0.333   2.563   7.832 -0.4718  0.2551  0.2832
 7545SOL    HW127482   0.351   2.652   7.801 -0.4002  0.5960  1.2836
 7545SOL    HW227483   0.282   2.524   7.761  2.3436 -0.0722 -1.7593
 7546SOL     OW27484   2.136   2.630   7.413  0.2247 -0.1326 -0.4447
 7546SOL    HW127485   2.185   2.659   7.490 -1.8175  1.1151  0.4538
 7546SOL    HW227486   2.059   2.686   7.411 -0.8104 -1.5300 -2.2274
 7547SOL     OW27487   1.675   1.131   6.060  0.1716 -0.4179 -1.0075
 7547SOL    HW127488   1.747   1.096   6.112 -0.5172 -1.5233 -0.7773
 7547SOL    HW227489   1.634   1.196   6.116  2.0008  1.5064 -1.7603
 7548SOL     OW27490   5.029   3.142   8.270 -0.2734  0.0831  0.0815
 7548SOL    HW127491   4.974   3.218   8.252 -0.1802 -0.2743 -1.9192
 7548SOL    HW227492   4.983   3.069   8.228  0.5387 -0.6548  0.4394
 7549SOL     OW27493   3.155   3.424   4.756 -0.2939 -0.1644 -0.8365
 7549SOL    HW127494   3.139   3.362   4.685 -0.9471 -0.1525 -0.7058
 7549SOL    HW227495   3.198   3.372   4.824 -1.0402 -0.5394 -0.6393
 7550SOL     OW27496   3.520   3.972   6.480 -0.4800 -0.0380  0.5068
 7550SOL    HW127497   3.579   4.024   6.426 -0.2161 -2.1994 -1.4705
 7550SOL    HW227498   3.577   3.915   6.531 -0.8009 -0.5315  0.3206
 7551SOL     OW27499   4.572   3.870   9.054  0.5797 -0.2809 -0.2906
 7551SOL    HW127500   4.571   3.960   9.086 -1.7910  0.1523 -1.3117
 7551SOL    HW227501   4.529   3.819   9.123  0.4153 -0.3225 -0.4228
 7552SOL     OW27502   0.852   2.394   7.887  0.1954  0.2006 -0.8375
 7552SOL    HW127503   0.928   2.398   7.829  0.0081  1.1378 -1.0286
 7552SOL    HW227504   0.776   2.402   7.828 -0.2304 -3.2213 -0.9768
 7553SOL     OW27505   2.496   0.764   5.573  0.2575  0.0037 -0.2825
 7553SOL    HW127506   2.517   0.763   5.667 -0.2020 -0.8839 -0.1753
 7553SOL    HW227507   2.508   0.855   5.547  0.2657  0.2910  0.6716
 7554SOL     OW27508   3.114   3.378   7.552 -0.3259  0.0188  0.1276
 7554SOL    HW127509   3.161   3.304   7.514 -0.4142  0.5357 -1.0315
 7554SOL    HW227510   3.035   3.340   7.590 -1.0946 -0.3156 -1.7373
 7555SOL     OW27511   4.054   4.064   6.332 -0.1367  0.3261 -0.5308
 7555SOL    HW127512   4.146   4.057   6.358  0.1160 -0.8633 -1.6314
 7555SOL    HW227513   4.005   4.023   6.403  0.3261 -0.5826 -0.7338
 7556SOL     OW27514   1.679   0.200   5.789 -0.5500 -0.3593 -0.4384
 7556SOL    HW127515   1.755   0.232   5.837 -0.3283 -0.2449 -0.8576
 7556SOL    HW227516   1.608   0.259   5.813 -0.2102  0.2809 -0.9954
 7557SOL     OW27517   1.586   3.237   6.082  0.3454  0.3776  0.7898
 7557SOL    HW127518   1.563   3.201   6.168 -0.5597 -1.7427 -0.2390
 7557SOL    HW227519   1.502   3.245   6.037  0.9843 -2.4852 -1.2432
 7558SOL     OW27520   2.428   4.347   8.414 -0.3380  0.4642  0.2723
 7558SOL    HW127521   2.359   4.299   8.369  0.2744  0.5469 -0.7921
 7558SOL    HW227522   2.452   4.417   8.353 -0.4063  1.4153  1.3014
 7559SOL     OW27523   1.926   1.899   5.431  0.9975 -0.0857  0.2484
 7559SOL    HW127524   2.002   1.869   5.382  1.3208 -0.4128  0.9315
 7559SOL    HW227525   1.961   1.921   5.517  0.0529 -2.0271  1.1943
 7560SOL     OW27526   3.961   3.107   6.441  0.2117  0.0360 -0.1973
 7560SOL    HW127527   3.900   3.181   6.435 -0.8115 -0.8060 -0.5410
 7560SOL    HW227528   4.027   3.135   6.505 -0.4209  1.0513  0.0314
 7561SOL     OW27529   3.103   2.449   8.410 -0.6254  0.5343 -0.2242
 7561SOL    HW127530   3.016   2.409   8.423 -0.7249  1.0148  0.6431
 7561SOL    HW227531   3.152   2.383   8.361 -1.2553 -0.0465 -0.0944
 7562SOL     OW27532   2.196   3.019   8.942  0.2417 -0.2929  0.2055
 7562SOL    HW127533   2.214   2.936   8.898  0.0866 -0.0105 -0.4022
 7562SOL    HW227534   2.189   3.083   8.871 -1.5601 -0.0985  0.5099
 7563SOL     OW27535   3.873   2.359   7.454  0.5043 -0.1632  0.0152
 7563SOL    HW127536   3.799   2.313   7.416 -0.0122 -0.6273  1.4983
 7563SOL    HW227537   3.942   2.292   7.459  0.5070 -0.1578  0.0530
 7564SOL     OW27538   4.488   3.297   5.999 -0.2382  0.4467 -0.1739
 7564SOL    HW127539   4.526   3.282   5.913 -0.1365  0.3717 -0.1159
 7564SOL    HW227540   4.562   3.295   6.059 -0.4284 -0.6265  0.0518
 7565SOL     OW27541   3.174   1.061   5.490  0.6168  0.0110 -0.1264
 7565SOL    HW127542   3.090   1.024   5.517  0.2898 -0.6477 -1.8838
 7565SOL    HW227543   3.197   1.123   5.559 -2.1127  1.4357 -0.3662
 7566SOL     OW27544   3.128   4.653   7.146 -0.2764  0.3249 -0.0900
 7566SOL    HW127545   3.152   4.713   7.216  3.2029  0.3567 -1.1014
 7566SOL    HW227546   3.147   4.566   7.182 -0.9661  0.1503 -0.1391
 7567SOL     OW27547   0.002   2.907   6.790 -0.9427 -0.1080 -0.2679
 7567SOL    HW127548   0.070   2.905   6.724 -2.0866  2.8554 -1.7334
 7567SOL    HW227549   0.049   2.907   6.873  0.6462 -1.4314 -1.1162
 7568SOL     OW27550   3.284   2.457   8.064  0.1816  0.2626 -0.5163
 7568SOL    HW127551   3.310   2.400   7.992  2.6944  2.3749 -1.4289
 7568SOL    HW227552   3.277   2.398   8.139 -2.2027 -1.9549 -2.2787
 7569SOL     OW27553   2.673   5.244   6.882 -0.0049  0.1822 -0.5855
 7569SOL    HW127554   2.677   5.329   6.925  1.4886 -0.8336  1.4263
 7569SOL    HW227555   2.661   5.181   6.953  0.5021 -1.4283 -1.8591
 7570SOL     OW27556   1.886   2.503   6.722 -0.0784  0.1334 -1.0874
 7570SOL    HW127557   1.899   2.524   6.814  4.1293 -1.9276 -0.9780
 7570SOL    HW227558   1.931   2.573   6.675 -0.8583  0.3464 -1.5321
 7571SOL     OW27559   1.360   2.084   7.615  0.2163  0.2724 -0.3149
 7571SOL    HW127560   1.408   2.107   7.535 -1.0166  0.0055 -1.1502
 7571SOL    HW227561   1.367   2.162   7.670 -0.3948  1.1322 -1.4126
 7572SOL     OW27562   3.649   2.503   9.276  0.0488  0.4223  0.2082
 7572SOL    HW127563   3.640   2.527   9.184 -2.6749 -0.8300  0.0474
 7572SOL    HW227564   3.621   2.581   9.324 -1.1938  0.2183 -0.1405
 7573SOL     OW27565   2.917   2.516   8.096 -0.6614  0.1180  0.0875
 7573SOL    HW127566   2.954   2.591   8.143 -1.4011 -0.3476  1.4572
 7573SOL    HW227567   2.904   2.449   8.163 -2.2261 -0.3932 -0.6705
 7574SOL     OW27568   3.454   3.829   6.234  0.0024 -0.0476 -0.1664
 7574SOL    HW127569   3.548   3.840   6.219 -0.2198  0.0696 -1.6476
 7574SOL    HW227570   3.445   3.737   6.258  0.7362  0.4846  2.4825
 7575SOL     OW27571   1.592   2.860   8.843 -0.2356  0.3504 -0.4360
 7575SOL    HW127572   1.563   2.841   8.754 -1.0860 -1.4208  0.1516
 7575SOL    HW227573   1.511   2.878   8.890  0.2279  1.4994 -0.0604
 7576SOL     OW27574   1.133   4.565   8.676 -0.3574  0.5914  0.4248
 7576SOL    HW127575   1.103   4.478   8.652 -1.6223  0.8337  1.0264
 7576SOL    HW227576   1.113   4.572   8.769  1.5800  0.8006  0.8504
 7577SOL     OW27577   1.621   1.914   6.500  0.0990 -0.6230  0.0747
 7577SOL    HW127578   1.634   1.852   6.572 -0.1828 -0.2524  0.4443
 7577SOL    HW227579   1.701   1.907   6.449  1.9333  1.6742  2.3613
 7578SOL     OW27580   3.684   1.281   7.613  0.1609 -0.4348  0.1251
 7578SOL    HW127581   3.691   1.189   7.587  2.1548 -0.7308  1.4591
 7578SOL    HW227582   3.772   1.304   7.643 -0.4539  1.7335  0.4334
 7579SOL     OW27583   2.428   2.794   9.309  0.0763 -0.3303 -0.3512
 7579SOL    HW127584   2.377   2.872   9.289  0.7322  0.3757  0.6217
 7579SOL    HW227585   2.374   2.721   9.279  0.1918  0.5398 -2.8530
 7580SOL     OW27586   2.873   3.785   0.443 -0.2153  0.0415 -0.7171
 7580SOL    HW127587   2.839   3.804   0.355  1.1994 -1.5508 -1.6596
 7580SOL    HW227588   2.894   3.692   0.441  0.5522  0.1433  1.0769
 7581SOL     OW27589   3.766   2.986   8.484 -0.9459  0.3671 -0.0426
 7581SOL    HW127590   3.836   2.921   8.486 -1.5482 -0.3507 -1.0802
 7581SOL    HW227591   3.745   3.001   8.576  1.5357  1.7096  0.3987
 7582SOL     OW27592   0.483   2.212   9.358  0.0039 -0.4816  0.4544
 7582SOL    HW127593   0.512   2.289   9.309  1.2025 -1.3650 -0.2668
 7582SOL    HW227594   0.393   2.233   9.383  0.7046  1.7023  1.4195
 7583SOL     OW27595   3.438   1.664   8.933 -0.2505  0.1650 -0.3833
 7583SOL    HW127596   3.458   1.601   8.863 -0.4525  0.5360 -0.7815
 7583SOL    HW227597   3.463   1.619   9.013 -0.4199 -0.4378 -0.6599
 7584SOL     OW27598   1.161   2.196   8.837  0.1280 -0.1905 -0.4269
 7584SOL    HW127599   1.085   2.154   8.877  1.4264 -1.9439  0.3730
 7584SOL    HW227600   1.201   2.246   8.908  0.0969  0.1697 -0.6619
 7585SOL     OW27601   1.860   2.190   7.794 -0.5284 -0.0107 -0.1025
 7585SOL    HW127602   1.890   2.243   7.721 -0.0508 -0.7158 -0.4175
 7585SOL    HW227603   1.933   2.189   7.856 -1.1141  1.0190  0.6402
 7586SOL     OW27604   9.073   5.107   8.284 -0.3018 -0.1508 -0.3540
 7586SOL    HW127605   9.064   5.194   8.245 -1.6808 -0.1918 -0.1573
 7586SOL    HW227606   9.083   5.048   8.209 -0.2074  0.0700 -0.5175
 7587SOL     OW27607   2.807   3.501   7.911 -0.0824  0.6124  0.0119
 7587SOL    HW127608   2.814   3.409   7.887  1.2793  0.6389  0.2624
 7587SOL    HW227609   2.840   3.506   8.001  0.8891  1.4913 -0.3640
 7588SOL     OW27610   5.561   2.968   8.306  0.4551 -0.1044  0.2057
 7588SOL    HW127611   5.535   3.053   8.272 -1.1889 -0.0770  1.4136
 7588SOL    HW227612   5.518   2.905   8.247 -0.4170 -0.0687  0.7898
 7589SOL     OW27613   1.077   2.940   9.082 -0.3991  0.4841  0.3961
 7589SOL    HW127614   0.986   2.969   9.083 -0.2376  1.0336  0.2156
 7589SOL    HW227615   1.115   2.978   9.161 -0.3883  0.0544  0.5946
 7590SOL     OW27616   4.010   3.721   7.633  0.3860 -0.8154 -0.3448
 7590SOL    HW127617   3.971   3.804   7.605  0.9628 -0.0000  1.1353
 7590SOL    HW227618   4.032   3.676   7.551  0.9018  0.9123 -1.2126
 7591SOL     OW27619   7.080   2.169   7.712 -0.3370 -0.5493  0.0103
 7591SOL    HW127620   7.039   2.183   7.627  0.3848  0.0098 -0.2584
 7591SOL    HW227621   7.086   2.257   7.750 -0.2185 -0.7392  0.4356
 7592SOL     OW27622   3.934   4.600   4.427  0.4032  1.0259 -0.0234
 7592SOL    HW127623   4.029   4.597   4.414  0.2398  0.8438 -1.3711
 7592SOL    HW227624   3.914   4.522   4.478  0.7613 -0.1543 -1.5934
 7593SOL     OW27625   4.043   1.759   4.220 -0.3729 -0.0849 -0.2258
 7593SOL    HW127626   4.054   1.776   4.313 -0.8408 -0.5110 -0.0865
 7593SOL    HW227627   3.999   1.674   4.216  0.0471 -0.2805 -0.8461
 7594SOL     OW27628   0.546   2.135   8.101  0.3679  0.2117  0.0066
 7594SOL    HW127629   0.507   2.198   8.040 -2.4256  0.4533  1.8794
 7594SOL    HW227630   0.537   2.175   8.187  1.0137 -1.6029  0.9791
 7595SOL     OW27631   3.400   2.065   7.237  0.0330 -0.5696  0.3508
 7595SOL    HW127632   3.451   1.986   7.221 -0.8008 -1.3783  1.5322
 7595SOL    HW227633   3.375   2.059   7.330  0.7668  1.5594  0.7292
 7596SOL     OW27634   2.214   2.337   8.605  0.2504 -0.0816  0.1099
 7596SOL    HW127635   2.292   2.387   8.580  0.0793  0.7945  1.2226
 7596SOL    HW227636   2.225   2.322   8.699 -1.2488  0.7055  0.4498
 7597SOL     OW27637   8.825   4.120   8.246  0.3415  0.2190 -0.1168
 7597SOL    HW127638   8.788   4.077   8.322  0.2673 -0.3152 -0.4512
 7597SOL    HW227639   8.805   4.062   8.173  1.4990  0.1058 -0.3637
 7598SOL     OW27640   3.409   4.787   7.139 -0.0491 -0.0200  0.6863
 7598SOL    HW127641   3.490   4.802   7.091 -0.3280 -0.4181  0.0869
 7598SOL    HW227642   3.399   4.692   7.142  0.2618 -0.0397  2.0487
 7599SOL     OW27643   3.088   4.967   1.296  0.1178  0.0174 -0.1834
 7599SOL    HW127644   3.067   5.057   1.270 -0.7320  0.1170  0.7634
 7599SOL    HW227645   3.168   4.975   1.348  0.4366  0.1261 -0.6816
 7600SOL     OW27646   2.173   1.419   9.549  0.2073 -0.1182 -0.1212
 7600SOL    HW127647   2.151   1.449   9.461  0.6935  0.4772 -0.0465
 7600SOL    HW227648   2.268   1.417   9.550  0.2463  1.1202  0.7896
 7601SOL     OW27649   2.749   0.936   0.072 -0.8262  0.1345 -0.3249
 7601SOL    HW127650   2.682   0.904   0.012 -3.8982  0.6299  2.5639
 7601SOL    HW227651   2.801   0.858   0.094  0.1870 -0.1125 -3.1730
 7602SOL     OW27652   2.635   1.639   6.717  0.3647  0.1915 -0.6966
 7602SOL    HW127653   2.604   1.711   6.772 -0.0126  0.5273 -1.3423
 7602SOL    HW227654   2.558   1.613   6.666  0.5103 -0.6411 -0.5081
 7603SOL     OW27655   2.401   4.634   5.423  0.1569  0.0193 -0.2359
 7603SOL    HW127656   2.380   4.626   5.330 -0.9325  1.2084 -0.1121
 7603SOL    HW227657   2.351   4.709   5.453 -1.3877 -1.7304  1.8558
 7604SOL     OW27658   2.663   1.257   6.515  0.2088 -0.0582  0.0369
 7604SOL    HW127659   2.700   1.344   6.505 -0.0742  0.0305 -0.2360
 7604SOL    HW227660   2.576   1.272   6.551  0.2899 -0.2465  0.3147
 7605SOL     OW27661   2.057   3.592   6.839  0.1809 -0.0645 -0.3136
 7605SOL    HW127662   2.020   3.530   6.901 -2.2256 -0.9175 -2.4411
 7605SOL    HW227663   2.117   3.540   6.786  0.9863  0.3076  0.2031
 7606SOL     OW27664   4.668   1.302   7.713 -0.5722  0.0467  0.4084
 7606SOL    HW127665   4.618   1.231   7.672  0.9716 -0.2634 -1.0410
 7606SOL    HW227666   4.658   1.288   7.807 -1.5929 -1.1379  0.1398
 7607SOL     OW27667   4.265   1.907   5.862  0.0809  0.0807 -0.3330
 7607SOL    HW127668   4.199   1.842   5.882 -0.8601  0.9922 -0.3805
 7607SOL    HW227669   4.348   1.859   5.862 -0.6104 -1.1330 -0.5581
 7608SOL     OW27670   3.596   1.190   9.469 -0.0606  0.2036 -0.2306
 7608SOL    HW127671   3.580   1.268   9.416  0.7035  0.6445  0.1556
 7608SOL    HW227672   3.689   1.172   9.458 -0.5720 -1.8200 -1.8375
 7609SOL     OW27673   2.533   3.698   8.126 -0.0122 -0.5495  0.0671
 7609SOL    HW127674   2.608   3.734   8.175  0.8247 -1.8009 -0.2459
 7609SOL    HW227675   2.479   3.655   8.192 -0.9346  1.0694  0.4198
 7610SOL     OW27676   3.296   2.774   8.576 -0.3347  0.0338  0.4353
 7610SOL    HW127677   3.241   2.704   8.610 -1.0364 -0.5779 -1.8548
 7610SOL    HW227678   3.367   2.730   8.530 -1.3650  0.7317 -1.9729
 7611SOL     OW27679   0.778   5.294   9.085  0.2534 -0.5379  0.4598
 7611SOL    HW127680   0.749   5.385   9.082  0.4188 -0.4935  0.1496
 7611SOL    HW227681   0.758   5.260   8.998 -0.9690 -1.1663  0.9592
 7612SOL     OW27682   3.082   1.846   0.188 -0.5999 -0.0381 -0.0733
 7612SOL    HW127683   3.021   1.918   0.173 -0.3791  0.2683  0.4796
 7612SOL    HW227684   3.037   1.769   0.153 -2.0639 -0.1265  1.8429
 7613SOL     OW27685   5.270   5.358   9.276  0.0082 -0.2378 -0.2740
 7613SOL    HW127686   5.329   5.320   9.341  0.3962  0.1373 -0.3991
 7613SOL    HW227687   5.304   5.447   9.261  0.2548 -0.4931 -1.3787
 7614SOL     OW27688   5.356   0.794   9.591 -0.0182  0.2581 -0.3613
 7614SOL    HW127689   5.293   0.722   9.587  0.6770 -0.3908 -0.1610
 7614SOL    HW227690   5.304   0.872   9.606 -1.0543  0.2073 -3.1310
 7615SOL     OW27691   2.801   3.567   8.472  0.1766  0.4025  0.0524
 7615SOL    HW127692   2.830   3.636   8.532 -1.0204  0.9744 -0.0045
 7615SOL    HW227693   2.710   3.589   8.451 -0.6707 -1.8149  0.9815
 7616SOL     OW27694   1.838   1.266   7.930  0.5133  0.5284  0.4250
 7616SOL    HW127695   1.920   1.237   7.890 -0.0817  1.1920 -1.3959
 7616SOL    HW227696   1.770   1.222   7.878 -0.3020  1.4415  0.6895
 7617SOL     OW27697   1.142   3.191   8.053 -0.2940  0.4187 -0.5879
 7617SOL    HW127698   1.048   3.192   8.071 -0.4693  0.2003 -1.4704
 7617SOL    HW227699   1.181   3.154   8.133 -0.9277  0.6953 -0.1385
 7618SOL     OW27700   3.103   4.874   9.290 -0.2244 -0.1224 -0.6214
 7618SOL    HW127701   3.131   4.843   9.204  0.0356 -2.8575  0.3538
 7618SOL    HW227702   3.049   4.803   9.325 -1.1780  1.3484  1.0953
 7619SOL     OW27703   2.723   4.888   9.596  0.0592  0.3240  0.2116
 7619SOL    HW127704   2.803   4.839   9.614 -0.2511 -0.4048 -0.3851
 7619SOL    HW227705   2.663   4.824   9.558 -0.4012  1.1284 -0.4424
 7620SOL     OW27706   2.563   0.455   6.764 -0.3847  0.0202 -0.3508
 7620SOL    HW127707   2.585   0.385   6.826  0.2377  2.7699  2.8051
 7620SOL    HW227708   2.477   0.430   6.730  0.1472 -2.6259  0.0570
 7621SOL     OW27709   2.387   2.488   6.948 -0.2243 -0.4027 -0.4127
 7621SOL    HW127710   2.473   2.447   6.962 -0.7715 -1.2790  0.5913
 7621SOL    HW227711   2.357   2.510   7.037  0.1389  2.4880 -0.9054
 7622SOL     OW27712   0.223   3.207   9.511 -0.2755  0.0817 -0.2525
 7622SOL    HW127713   0.294   3.220   9.574  0.2178  3.3974 -1.3413
 7622SOL    HW227714   0.264   3.159   9.439  0.0840 -0.4814  0.3059
 7623SOL     OW27715   1.218   3.186   0.847 -0.0318 -0.1835 -0.9914
 7623SOL    HW127716   1.275   3.179   0.771  0.0359  2.1781 -1.2522
 7623SOL    HW227717   1.274   3.162   0.921  1.1270  1.2823 -1.3270
 7624SOL     OW27718   0.256   2.185   7.078  0.1589  0.1542  0.2789
 7624SOL    HW127719   0.317   2.205   7.149  0.5586  1.2123 -0.3392
 7624SOL    HW227720   0.279   2.247   7.008 -2.0027  0.9877  0.2382
 7625SOL     OW27721   1.917   3.535   8.394  0.1563  0.5575  0.3797
 7625SOL    HW127722   1.990   3.597   8.394  0.0932  0.6624 -1.0120
 7625SOL    HW227723   1.901   3.517   8.487  2.3977 -0.0079  0.7160
 7626SOL     OW27724   1.258   4.496   6.798 -1.1393 -0.4990  0.2054
 7626SOL    HW127725   1.228   4.576   6.755 -0.4144 -1.1406 -1.5797
 7626SOL    HW227726   1.346   4.517   6.828 -0.9812 -0.5869 -0.1879
 7627SOL     OW27727   3.834   2.876   9.357  0.1455 -0.0806 -0.6085
 7627SOL    HW127728   3.868   2.803   9.305 -0.8204 -0.5433 -0.6073
 7627SOL    HW227729   3.895   2.883   9.430  0.7613 -0.2954 -1.0920
 7628SOL     OW27730   3.296   2.121   9.274  0.1956  0.3932 -0.4457
 7628SOL    HW127731   3.334   2.209   9.270  0.6423  0.2900  0.8477
 7628SOL    HW227732   3.239   2.123   9.351  2.1153 -1.0897  1.1610
 7629SOL     OW27733   4.250   2.348   8.441  0.1478  0.1226  0.0767
 7629SOL    HW127734   4.204   2.314   8.365  1.3070  0.9669 -1.0400
 7629SOL    HW227735   4.331   2.384   8.406  1.2598 -0.4978  1.8498
 7630SOL     OW27736   0.129   2.994   6.175  0.2350 -0.0147 -0.1906
 7630SOL    HW127737   0.218   2.964   6.193  1.8664  2.2105 -3.7006
 7630SOL    HW227738   0.100   2.940   6.102 -1.7263 -1.2086  1.3559
 7631SOL     OW27739   3.512   1.010   8.934  0.1907 -0.6896  0.0532
 7631SOL    HW127740   3.514   0.945   8.864  0.7827  0.3602 -0.9385
 7631SOL    HW227741   3.508   1.094   8.888 -0.4494 -0.0126  1.3026
 7632SOL     OW27742   3.863   1.426   8.643 -0.2005  0.2365 -0.0659
 7632SOL    HW127743   3.946   1.460   8.611  0.9959 -0.5081  2.0258
 7632SOL    HW227744   3.858   1.338   8.607 -1.0592  0.9125 -1.7212
 7633SOL     OW27745   3.006   2.574   9.284  0.4060  0.2934  0.0937
 7633SOL    HW127746   2.950   2.586   9.207 -0.9502 -3.4590  0.2616
 7633SOL    HW227747   2.945   2.575   9.358  1.5524  2.7609  1.1150
 7634SOL     OW27748   1.306   1.893   8.827 -0.1399  0.0883 -0.2280
 7634SOL    HW127749   1.263   1.979   8.829 -0.5881 -0.1478  0.4648
 7634SOL    HW227750   1.238   1.831   8.855  0.3958 -0.4017  0.0118
 7635SOL     OW27751   2.816   4.294   7.228  0.6814  0.3448 -0.9987
 7635SOL    HW127752   2.723   4.297   7.207  0.5724  0.6532 -0.5061
 7635SOL    HW227753   2.819   4.307   7.323  1.0805 -1.9637 -0.6389
 7636SOL     OW27754   1.618   3.217   7.214 -0.4867 -0.1561 -0.0385
 7636SOL    HW127755   1.635   3.139   7.268  0.2284  0.1092  0.1279
 7636SOL    HW227756   1.560   3.186   7.145 -1.5465 -0.4753  0.9571
 7637SOL     OW27757   2.074   1.649   7.444 -0.0215 -0.1576  0.0339
 7637SOL    HW127758   2.134   1.722   7.431 -0.2179 -0.2240 -1.3639
 7637SOL    HW227759   2.117   1.573   7.405  0.0566 -0.7522  1.2251
 7638SOL     OW27760   3.899   2.508   5.983 -0.1648 -0.2053 -0.8558
 7638SOL    HW127761   3.947   2.469   6.055  0.5696  0.7219 -0.8244
 7638SOL    HW227762   3.807   2.495   6.006  0.0654 -0.3821 -0.0083
 7639SOL     OW27763   4.766   4.856   7.957 -0.7160 -0.5198 -0.3396
 7639SOL    HW127764   4.740   4.946   7.939 -0.8773 -0.6336 -0.6707
 7639SOL    HW227765   4.698   4.822   8.016 -1.0878 -0.6814 -0.8623
 7640SOL     OW27766   1.244   1.371   8.197 -0.3761 -0.1760  0.3415
 7640SOL    HW127767   1.161   1.382   8.151 -1.0654 -0.3163  1.5016
 7640SOL    HW227768   1.270   1.461   8.219 -0.5436 -0.1647  0.5045
 7641SOL     OW27769   1.944   4.291   8.192  0.4330 -0.6745  0.7875
 7641SOL    HW127770   1.864   4.298   8.245 -0.0105  0.7988  0.0035
 7641SOL    HW227771   1.933   4.210   8.142 -1.0695 -0.0106 -0.0280
 7642SOL     OW27772   3.311   9.756   9.598  0.4462 -0.2559 -0.0098
 7642SOL    HW127773   3.318   9.845   9.564 -0.9009 -0.4866 -1.0107
 7642SOL    HW227774   3.271   9.766   9.684  0.6910  0.1336  0.0600
 7643SOL     OW27775   4.743   5.408   8.142  0.5360  0.1313  0.9400
 7643SOL    HW127776   4.693   5.481   8.106 -0.5069 -1.1567 -0.3576
 7643SOL    HW227777   4.676   5.347   8.174  1.2224 -1.5496 -0.6692
 7644SOL     OW27778   1.087   4.094   5.396 -0.4094  0.4496  0.4774
 7644SOL    HW127779   1.166   4.146   5.412  0.1492  1.5225 -4.2462
 7644SOL    HW227780   1.118   4.004   5.389  0.5129  0.8501 -1.2080
 7645SOL     OW27781   0.742   3.843   7.682 -0.0035  0.0636  0.6643
 7645SOL    HW127782   0.757   3.760   7.634 -0.0594  1.4564 -1.9566
 7645SOL    HW227783   0.648   3.845   7.698 -0.0966 -0.1031  0.1621
 7646SOL     OW27784   3.304   2.960   6.330 -0.5397 -0.6801 -0.4306
 7646SOL    HW127785   3.229   2.999   6.285 -1.5762 -2.1356 -0.0546
 7646SOL    HW227786   3.288   2.865   6.326  1.8130 -1.1142 -1.2332
 7647SOL     OW27787   2.445   3.289   7.879  0.7210 -0.2248  0.1058
 7647SOL    HW127788   2.506   3.279   7.952 -1.1005 -0.2013  1.7223
 7647SOL    HW227789   2.409   3.378   7.890 -1.0309 -0.9241  0.4353
 7648SOL     OW27790   2.183   1.132   9.582 -0.3136 -0.1321  0.6011
 7648SOL    HW127791   2.162   1.225   9.583  0.6329  0.1015 -0.0933
 7648SOL    HW227792   2.230   1.118   9.500 -0.4663 -1.2333  0.6782
 7649SOL     OW27793   4.873   1.025   7.852 -0.3907 -0.0563 -0.1366
 7649SOL    HW127794   4.962   1.037   7.820 -0.5268  1.1625 -0.1076
 7649SOL    HW227795   4.871   1.071   7.935 -0.6806 -1.2652  0.5508
 7650SOL     OW27796   0.802   1.022   6.584 -0.1981 -0.6804  0.2301
 7650SOL    HW127797   0.740   0.960   6.622  0.7687 -2.2254 -0.6020
 7650SOL    HW227798   0.785   1.018   6.490  1.7245 -1.8662 -0.1294
 7651SOL     OW27799   8.989   1.878   8.263  0.3279 -0.0059  0.2093
 7651SOL    HW127800   8.914   1.871   8.204  0.2143  0.3049  0.3116
 7651SOL    HW227801   9.065   1.858   8.208  0.0557 -1.9056  0.4719
 7652SOL     OW27802   3.085   4.056   6.766 -0.6304  0.1180  0.0438
 7652SOL    HW127803   3.100   4.001   6.843 -0.8817 -0.0515 -0.0267
 7652SOL    HW227804   3.000   4.028   6.733 -0.7081  0.4681 -0.0624
 7653SOL     OW27805   1.053   2.421   6.170  0.5564 -0.0625 -0.3541
 7653SOL    HW127806   0.982   2.439   6.232  0.8062  0.9927 -0.3599
 7653SOL    HW227807   1.040   2.329   6.145  0.1282 -0.3374  0.8330
 7654SOL     OW27808   4.554   4.687   8.923 -0.7852 -0.3300 -0.1790
 7654SOL    HW127809   4.537   4.683   9.017  0.0306 -0.4912 -0.0277
 7654SOL    HW227810   4.598   4.771   8.911 -1.4697 -0.0210 -0.5158
 7655SOL     OW27811   1.369   6.075   1.240 -0.3693 -0.1755  0.2793
 7655SOL    HW127812   1.326   6.025   1.309 -1.9562 -0.1179 -0.6260
 7655SOL    HW227813   1.300   6.091   1.176  0.8836  0.4434 -0.9500
 7656SOL     OW27814   2.082   3.294   8.326 -0.1289 -0.0695 -0.3122
 7656SOL    HW127815   2.154   3.294   8.389 -0.3574 -2.7675  0.0836
 7656SOL    HW227816   2.041   3.380   8.335  2.2660  1.0648  0.3293
 7657SOL     OW27817   2.625   3.581   5.987  0.2125 -0.5591 -0.7023
 7657SOL    HW127818   2.584   3.496   6.007  1.0887 -0.7696  0.3097
 7657SOL    HW227819   2.605   3.596   5.895 -1.3491 -1.0790 -0.4930
 7658SOL     OW27820   2.350   4.186   7.775  0.6220  0.0062 -0.0900
 7658SOL    HW127821   2.298   4.117   7.734  1.1733 -1.1918  1.1645
 7658SOL    HW227822   2.298   4.265   7.764 -0.0971 -0.6268 -1.4209
 7659SOL     OW27823   5.704   2.710   6.521  0.0684 -0.4748 -0.0174
 7659SOL    HW127824   5.652   2.641   6.562 -1.7570 -0.4020 -2.0440
 7659SOL    HW227825   5.704   2.688   6.428  2.7345  0.2147 -0.2653
 7660SOL     OW27826   1.213   1.169   8.022 -0.2131 -0.8633  0.1305
 7660SOL    HW127827   1.296   1.202   7.988 -0.1265 -2.2768 -1.1500
 7660SOL    HW227828   1.215   1.189   8.115  0.0574  2.1818 -0.4255
 7661SOL     OW27829   2.132   3.777   9.210  0.0542 -0.3649  0.6339
 7661SOL    HW127830   2.215   3.770   9.257 -0.4310 -2.5949  1.2579
 7661SOL    HW227831   2.155   3.820   9.128  1.9152 -1.2427  0.6386
 7662SOL     OW27832   1.616   2.455   7.406 -0.0158  0.5282 -0.6890
 7662SOL    HW127833   1.551   2.509   7.361  0.4953  1.5519 -0.2278
 7662SOL    HW227834   1.697   2.467   7.356 -0.0881 -0.4759 -1.0678
 7663SOL     OW27835   2.156   0.387   9.030  0.2824 -0.4894  0.2954
 7663SOL    HW127836   2.188   0.454   8.970 -0.1864 -0.4088  0.1335
 7663SOL    HW227837   2.126   0.316   8.974  0.2069 -0.5781  0.4467
 7664SOL     OW27838   2.671   4.707   6.257 -0.3868 -0.2706 -0.5967
 7664SOL    HW127839   2.748   4.656   6.282 -0.3272 -0.0446 -0.3081
 7664SOL    HW227840   2.597   4.651   6.281 -0.3167 -1.3064 -2.6214
 7665SOL     OW27841   2.908   4.421   8.434  0.0260 -0.2634  0.3003
 7665SOL    HW127842   2.824   4.374   8.434 -0.0585 -0.1604 -0.9387
 7665SOL    HW227843   2.965   4.367   8.379  0.9430 -0.5866  1.5337
 7666SOL     OW27844   2.286   2.602   9.177 -0.3282 -0.1201 -0.0908
 7666SOL    HW127845   2.304   2.579   9.086 -0.1715 -0.0362 -0.0817
 7666SOL    HW227846   2.226   2.534   9.208  2.6533 -2.5198  0.9319
 7667SOL     OW27847   2.129   4.597   6.947  0.4547 -0.1496 -0.4928
 7667SOL    HW127848   2.043   4.631   6.921  0.8972  0.6793 -0.9035
 7667SOL    HW227849   2.185   4.615   6.872  1.5400  1.4460  0.6265
 7668SOL     OW27850   1.319   2.955   7.294 -0.5172 -0.2408  0.1023
 7668SOL    HW127851   1.309   3.050   7.295 -0.5127 -0.2431  0.5259
 7668SOL    HW227852   1.266   2.924   7.368  1.1175 -0.4014  1.2495
 7669SOL     OW27853   2.118   4.402   9.773 -0.2962 -0.0538 -0.1545
 7669SOL    HW127854   2.171   4.339   9.821  1.6906 -0.5753 -2.7566
 7669SOL    HW227855   2.117   4.480   9.828  0.3989 -1.1469  1.4603
 7670SOL     OW27856   2.581   3.822   6.737 -0.1115 -0.8204  0.2311
 7670SOL    HW127857   2.544   3.909   6.750  1.5375 -0.2235  1.2721
 7670SOL    HW227858   2.584   3.811   6.642 -1.1807 -0.1322  0.0998
 7671SOL     OW27859   0.462   3.269   6.883  0.3787  0.6550  0.2714
 7671SOL    HW127860   0.553   3.238   6.878  0.4528  0.9405 -3.8630
 7671SOL    HW227861   0.412   3.202   6.836 -0.8415  2.4344 -1.1173
 7672SOL     OW27862   2.569   4.838   6.910  0.3724 -0.0005 -0.5512
 7672SOL    HW127863   2.580   4.823   6.816  1.0731  0.0571 -0.4850
 7672SOL    HW227864   2.567   4.750   6.948 -3.2714 -0.2227 -0.9247
 7673SOL     OW27865   4.065   0.967   0.530 -0.1642  0.1217 -0.1245
 7673SOL    HW127866   3.983   0.947   0.486 -0.9407  6.0899 -2.2306
 7673SOL    HW227867   4.131   0.920   0.480 -1.9267 -2.6831 -0.0194
 7674SOL     OW27868   1.618   1.935   8.535  0.1902  0.3776  0.0872
 7674SOL    HW127869   1.709   1.909   8.541 -0.0068 -0.4624 -0.3976
 7674SOL    HW227870   1.613   2.019   8.581  1.0684  0.0995  0.6973
 7675SOL     OW27871   8.499   9.188   8.480 -0.0490 -0.5451  0.2904
 7675SOL    HW127872   8.493   9.146   8.394 -0.0275 -1.8416  0.9112
 7675SOL    HW227873   8.425   9.153   8.530  1.2269 -1.5692  1.5380
 7676SOL     OW27874   2.938   3.407   0.030 -0.4902  0.2001 -0.8131
 7676SOL    HW127875   3.002   3.441   0.092  0.3348 -0.5208 -1.2451
 7676SOL    HW227876   2.854   3.411   0.077  0.1758 -0.7545  0.5124
 7677SOL     OW27877   2.601   2.463   6.592  0.2116  0.3775 -0.4852
 7677SOL    HW127878   2.592   2.548   6.635  1.5081 -0.8884  2.5367
 7677SOL    HW227879   2.511   2.432   6.583 -0.1278  0.2085  2.5631
 7678SOL     OW27880   2.160   4.412   8.882 -0.0456 -0.1083  0.1678
 7678SOL    HW127881   2.231   4.415   8.946 -0.0544 -1.2726  0.2470
 7678SOL    HW227882   2.205   4.399   8.798  0.0093  1.9687 -0.1833
 7679SOL     OW27883   2.110   2.051   9.611 -0.4223  0.2823 -0.0460
 7679SOL    HW127884   2.056   2.071   9.534  1.3535  0.1741 -1.3740
 7679SOL    HW227885   2.173   1.987   9.580 -0.2291 -0.4576  1.7738
 7680SOL     OW27886   1.310   4.059   9.547 -0.6749 -0.5645 -0.5272
 7680SOL    HW127887   1.390   4.010   9.564 -0.7139 -0.2414  0.7232
 7680SOL    HW227888   1.276   4.023   9.465  0.3763 -1.1831 -0.7036
 7681SOL     OW27889   1.130   9.615   6.738  0.5837 -0.3158  0.6832
 7681SOL    HW127890   1.159   9.662   6.660 -0.3406  2.1558  1.7379
 7681SOL    HW227891   1.082   9.540   6.704  0.8066  0.2966 -1.1060
 7682SOL     OW27892   2.313   4.875   9.536  0.3161  0.1918  0.7477
 7682SOL    HW127893   2.225   4.891   9.571 -0.8797 -2.2021 -0.9003
 7682SOL    HW227894   2.320   4.932   9.460 -0.4099 -0.5718  0.0810
 7683SOL     OW27895   1.343   2.757   8.087  0.5411 -0.3922 -0.2387
 7683SOL    HW127896   1.262   2.710   8.068  1.7908 -1.8247 -2.4518
 7683SOL    HW227897   1.315   2.846   8.107 -1.5860 -0.9544 -0.4637
 7684SOL     OW27898   2.323   4.436   8.662  0.1502 -0.2104 -0.2457
 7684SOL    HW127899   2.325   4.442   8.567  0.1518 -0.4238 -0.2592
 7684SOL    HW227900   2.351   4.347   8.681 -1.2458 -0.6514 -0.1127
 7685SOL     OW27901   3.650   2.201   6.718 -0.4930 -0.1259  0.5329
 7685SOL    HW127902   3.648   2.294   6.697  1.1135 -0.2914 -0.5170
 7685SOL    HW227903   3.573   2.165   6.674 -0.6595  0.5743  0.2394
 7686SOL     OW27904   7.152   1.089   5.466  0.4450 -0.4305 -0.6724
 7686SOL    HW127905   7.122   1.101   5.556  0.2601  1.2427 -0.9280
 7686SOL    HW227906   7.178   0.997   5.462  2.0041 -0.1542  1.5489
 7687SOL     OW27907   2.294   2.897   7.820  0.2773 -0.3026  0.3289
 7687SOL    HW127908   2.291   2.927   7.911 -0.1534  1.0974 -0.1209
 7687SOL    HW227909   2.205   2.866   7.803  0.1658  0.0844  0.1893
 7688SOL     OW27910   2.667   3.129   8.934 -0.1716  0.4474  0.2298
 7688SOL    HW127911   2.601   3.188   8.970  0.7409  1.6436 -0.0099
 7688SOL    HW227912   2.725   3.185   8.882  0.8097 -0.6318  0.1048
 7689SOL     OW27913   3.126   2.746   6.349  0.1777  0.8497 -0.1096
 7689SOL    HW127914   3.095   2.704   6.429 -0.6441  1.1654 -0.2527
 7689SOL    HW227915   3.051   2.797   6.318  0.1582 -0.0383 -1.6210
 7690SOL     OW27916   0.763   2.679   8.153 -0.3350 -0.7197 -0.4657
 7690SOL    HW127917   0.791   2.588   8.168  1.8031  0.1726  1.9705
 7690SOL    HW227918   0.694   2.693   8.218  1.4462  0.1405  1.3644
 7691SOL     OW27919   5.407   2.768   8.543  0.4626 -0.8222 -0.1921
 7691SOL    HW127920   5.409   2.707   8.469  0.2934 -1.1597  0.0813
 7691SOL    HW227921   5.422   2.854   8.503 -0.2441 -0.9259 -0.6984
 7692SOL     OW27922   1.288   1.415   7.624 -0.1204  0.1323 -0.7748
 7692SOL    HW127923   1.276   1.414   7.529 -1.1978 -0.4004 -0.6436
 7692SOL    HW227924   1.233   1.344   7.657 -0.2220  0.6824  0.3012
 7693SOL     OW27925   0.222   3.872   7.365  0.0430 -0.0272  0.2957
 7693SOL    HW127926   0.214   3.856   7.459  0.3222  2.2172  0.7616
 7693SOL    HW227927   0.135   3.855   7.330  0.1405 -1.6880  0.8080
 7694SOL     OW27928   3.829   2.501   9.594  0.2934 -0.1794  0.2246
 7694SOL    HW127929   3.789   2.486   9.680  0.9533 -0.9221  0.4193
 7694SOL    HW227930   3.756   2.503   9.533 -0.2068  0.5921  0.8338
 7695SOL     OW27931   1.006   3.593   8.721 -0.0301  0.1914  0.0668
 7695SOL    HW127932   1.071   3.589   8.790 -0.8060  0.4309  0.8372
 7695SOL    HW227933   0.990   3.502   8.697 -2.5951 -0.3185  2.9941
 7696SOL     OW27934   2.416   1.645   9.584  0.2405  0.1425 -0.1258
 7696SOL    HW127935   2.452   1.635   9.672 -0.8436 -0.4291  0.2722
 7696SOL    HW227936   2.482   1.606   9.527  1.2106  1.0209  0.3620
 7697SOL     OW27937   3.085   2.115   8.042  0.0035 -0.0206 -0.1019
 7697SOL    HW127938   3.052   2.172   7.972 -1.3233 -0.5735  0.0337
 7697SOL    HW227939   3.024   2.129   8.114 -1.9914 -3.4459 -0.8984
 7698SOL     OW27940   2.652   3.348   8.341  0.5577  0.1332 -0.8305
 7698SOL    HW127941   2.628   3.336   8.432  0.8372  0.7512 -0.6663
 7698SOL    HW227942   2.736   3.394   8.344  1.0830 -0.7606 -1.3979
 7699SOL     OW27943   1.279   2.851   7.675  0.5204 -0.2689  0.2169
 7699SOL    HW127944   1.340   2.798   7.726  0.5857 -0.8784 -0.4815
 7699SOL    HW227945   1.230   2.901   7.740 -2.0784 -3.7671  1.2556
 7700SOL     OW27946   5.622   1.973   8.488  0.3404 -0.7686 -0.7528
 7700SOL    HW127947   5.715   1.994   8.484  0.8001 -2.6335 -1.0650
 7700SOL    HW227948   5.586   2.008   8.407 -0.0546  3.1979  0.9473
 7701SOL     OW27949   1.335   2.510   0.636 -0.3612 -0.6071  0.3693
 7701SOL    HW127950   1.318   2.422   0.604 -1.2147 -0.9907  1.7968
 7701SOL    HW227951   1.250   2.542   0.664  0.0645  0.3881  0.5735
 7702SOL     OW27952   2.228   2.258   7.623 -0.0732 -0.6022 -0.2813
 7702SOL    HW127953   2.287   2.277   7.550 -0.5943 -1.0270 -0.8258
 7702SOL    HW227954   2.195   2.170   7.604  1.5104 -1.6936  1.6477
 7703SOL     OW27955   2.541   3.036   9.211  0.2305  0.6257 -0.1004
 7703SOL    HW127956   2.532   2.941   9.217 -1.1524  0.6461 -1.2747
 7703SOL    HW227957   2.498   3.069   9.290  0.9261  0.2841  0.4311
 7704SOL     OW27958   0.843   1.837   9.794 -0.1917  0.6426  0.1061
 7704SOL    HW127959   0.771   1.825   9.733  0.1422  1.7243 -0.5233
 7704SOL    HW227960   0.920   1.851   9.739  1.1187 -3.1002  0.6656
 7705SOL     OW27961   2.894   3.933   7.657  0.2434  0.3988  0.3696
 7705SOL    HW127962   2.833   3.867   7.622 -0.0479  0.2976  1.0443
 7705SOL    HW227963   2.976   3.885   7.666 -0.3507 -0.3621  2.3401
 7706SOL     OW27964   2.115   3.720   8.399 -0.5262  0.7735  0.3975
 7706SOL    HW127965   2.198   3.752   8.435  1.1333  0.0006 -2.4165
 7706SOL    HW227966   2.091   3.786   8.334 -1.9230  0.7463  0.8511
 7707SOL     OW27967   2.304   4.707   8.751  0.1582  0.0298  0.1436
 7707SOL    HW127968   2.362   4.726   8.824  0.2877 -0.1369  0.0839
 7707SOL    HW227969   2.281   4.615   8.762  2.8836 -1.0334 -1.8853
 7708SOL     OW27970   5.307   3.503   7.685 -0.3768 -0.0279 -0.0540
 7708SOL    HW127971   5.316   3.448   7.763  0.4018  0.9484  0.5802
 7708SOL    HW227972   5.246   3.572   7.711  0.5595  0.8036  0.0121
 7709SOL     OW27973   2.162   2.099   8.425  0.0017 -0.1164 -0.1019
 7709SOL    HW127974   2.239   2.101   8.367  0.9217  1.1866  1.0935
 7709SOL    HW227975   2.170   2.179   8.477 -2.3786  0.2243 -0.1733
 7710SOL     OW27976   2.436   4.301   7.521  0.0737 -0.3057 -0.8377
 7710SOL    HW127977   2.455   4.395   7.518 -1.3435  0.0661  0.4799
 7710SOL    HW227978   2.370   4.292   7.591  0.8046 -2.3907 -0.3439
 7711SOL     OW27979   1.532   4.728   0.602  0.0388 -0.6528 -0.3995
 7711SOL    HW127980   1.479   4.778   0.664 -0.2759  0.4177 -1.5126
 7711SOL    HW227981   1.610   4.782   0.588  0.9957 -1.7633  0.4777
 7712SOL     OW27982   2.530   1.092   8.963 -0.4891  0.1216 -0.1055
 7712SOL    HW127983   2.555   1.092   9.055  1.4354 -0.9455 -0.5814
 7712SOL    HW227984   2.473   1.015   8.954  0.9554 -0.9850 -0.1674
 7713SOL     OW27985   4.064   1.984   9.462  0.5891 -0.5103 -0.9138
 7713SOL    HW127986   4.118   2.063   9.466  0.1173 -0.1996  1.6881
 7713SOL    HW227987   3.976   2.017   9.445  0.6195 -0.6325 -1.3121
 7714SOL     OW27988   2.253   3.426   4.469 -0.0226  0.5413 -0.1837
 7714SOL    HW127989   2.272   3.336   4.444  0.7121  0.9060 -0.9790
 7714SOL    HW227990   2.270   3.430   4.563 -1.7279 -0.5685  0.2179
 7715SOL     OW27991   3.377   4.020   5.620  0.1569  0.3041 -0.5598
 7715SOL    HW127992   3.341   3.993   5.705 -1.7060  1.1716 -1.0232
 7715SOL    HW227993   3.370   4.115   5.620  1.4765  0.4158 -1.1421
 7716SOL     OW27994   3.707   3.441   9.776 -0.2624  0.0298 -0.1413
 7716SOL    HW127995   3.775   3.446   9.842  0.2304 -0.7219 -0.5781
 7716SOL    HW227996   3.642   3.506   9.803  0.9874  1.3237 -0.1459
 7717SOL     OW27997   0.995   5.046   7.409 -0.1991 -0.2123  0.1373
 7717SOL    HW127998   0.930   4.985   7.443 -0.9226 -0.2035 -1.2042
 7717SOL    HW227999   0.972   5.058   7.317  0.1767  1.7532  0.2585
 7718SOL     OW28000   4.825   3.367   9.240 -0.3428 -0.0666  0.5360
 7718SOL    HW128001   4.799   3.458   9.226  0.7349  0.1068 -0.4800
 7718SOL    HW228002   4.772   3.317   9.177  0.5853  0.1036 -0.3911
 7719SOL     OW28003   1.029   2.305   9.545 -0.7755  0.6209 -0.2083
 7719SOL    HW128004   1.056   2.389   9.584  0.6993 -0.6424  1.6966
 7719SOL    HW228005   0.935   2.313   9.533 -1.1267  1.6354  2.4640
 7720SOL     OW28006   8.936   9.290   7.368 -0.6139  0.2041 -0.5578
 7720SOL    HW128007   8.944   9.268   7.275 -0.9758 -0.9778 -0.3229
 7720SOL    HW228008   8.843   9.310   7.380 -1.0481 -1.8948 -0.0143
 7721SOL     OW28009   3.919   4.769   8.467  0.7085  0.3168 -0.3787
 7721SOL    HW128010   3.880   4.755   8.381  0.9145  0.6167 -0.5251
 7721SOL    HW228011   3.878   4.704   8.523 -1.1625  1.6232 -0.1629
 7722SOL     OW28012   6.722   2.244   8.062  0.3668  0.4006  0.4068
 7722SOL    HW128013   6.706   2.248   8.156 -0.1899 -0.4554  0.3531
 7722SOL    HW228014   6.817   2.248   8.053  0.4147  0.6350  0.9897
 7723SOL     OW28015   5.231   3.912   7.882 -0.0646 -0.1372 -0.0150
 7723SOL    HW128016   5.278   3.921   7.965  0.6812  0.8642 -0.5244
 7723SOL    HW228017   5.139   3.918   7.905  0.0227 -1.9740  0.9930
 7724SOL     OW28018   6.235   2.267   0.338  0.3873  0.1379 -0.4448
 7724SOL    HW128019   6.296   2.333   0.371 -0.4388  1.1593 -0.8973
 7724SOL    HW228020   6.230   2.284   0.244 -0.9993  0.4324 -0.3366
 7725SOL     OW28021   2.772   3.994   7.186 -1.0633 -0.5300  0.1789
 7725SOL    HW128022   2.686   4.005   7.226 -0.4005  1.6183  1.1826
 7725SOL    HW228023   2.795   4.081   7.154  0.2650 -1.2990 -1.1289
 7726SOL     OW28024   5.480   4.955   1.125 -0.0808 -0.5430  0.2069
 7726SOL    HW128025   5.463   4.871   1.168  1.1192 -2.1673 -2.2385
 7726SOL    HW228026   5.407   4.967   1.065  0.2712 -0.3527 -0.1877
 7727SOL     OW28027   0.566   4.322   8.017  0.8701 -0.0132 -0.0821
 7727SOL    HW128028   0.545   4.268   8.093  1.5122  0.3852  0.3979
 7727SOL    HW228029   0.660   4.340   8.027  0.8639  0.3918 -0.7449
 7728SOL     OW28030   2.250   3.013   9.240 -0.0543  0.3910  0.5129
 7728SOL    HW128031   2.230   3.014   9.146 -2.5527 -0.6204  0.9600
 7728SOL    HW228032   2.166   3.026   9.282  0.9188  0.1444  2.6458
 7729SOL     OW28033   1.690   5.175   6.997  0.1985 -0.0736  0.5570
 7729SOL    HW128034   1.616   5.188   7.056  1.2113  0.5369  1.7612
 7729SOL    HW228035   1.743   5.108   7.041  0.9607  0.3757  0.3356
 7730SOL     OW28036   0.192   1.975   8.223 -0.3781 -0.6687 -0.0155
 7730SOL    HW128037   0.220   1.895   8.179  2.0522 -0.2949  0.6958
 7730SOL    HW228038   0.259   1.990   8.290 -1.0411  1.6991  0.2036
 7731SOL     OW28039   2.743   4.045   7.919 -0.2997  0.5663  0.2818
 7731SOL    HW128040   2.688   4.079   7.848  0.1993 -0.2808 -0.5233
 7731SOL    HW228041   2.751   3.951   7.901 -0.3813  0.2768  1.6121
 7732SOL     OW28042   3.074   2.266   5.183  0.0403  0.0555 -0.3481
 7732SOL    HW128043   3.007   2.210   5.223 -0.5631  1.4423  0.6716
 7732SOL    HW228044   3.122   2.302   5.258  2.0984 -1.0453 -1.0520
 7733SOL     OW28045   3.046   3.159   6.754  0.0771 -0.5243 -0.8280
 7733SOL    HW128046   2.952   3.165   6.735 -0.3406 -0.1246  1.1980
 7733SOL    HW228047   3.074   3.249   6.766  0.2194 -0.7586  0.7474
 7734SOL     OW28048   3.492   3.875   8.285  0.1561  0.2339  0.1228
 7734SOL    HW128049   3.460   3.785   8.287  1.3494 -0.2130  0.0529
 7734SOL    HW228050   3.493   3.902   8.377 -0.8069  0.4148  0.0907
 7735SOL     OW28051   2.970   5.535   8.510  0.5549  0.0692 -0.0512
 7735SOL    HW128052   2.968   5.473   8.437  2.6245 -0.0556 -0.0540
 7735SOL    HW228053   2.908   5.603   8.484 -0.6576 -1.2241 -0.7244
 7736SOL     OW28054   1.738   0.726   9.442  0.2826  0.0457  0.3071
 7736SOL    HW128055   1.692   0.695   9.364 -0.0619  0.1057  0.4867
 7736SOL    HW228056   1.701   0.812   9.459 -0.6599 -0.5372  1.3573
 7737SOL     OW28057   4.616   0.442   7.242 -0.1256 -0.1362  0.0391
 7737SOL    HW128058   4.683   0.474   7.182 -0.1698  1.4052  0.7710
 7737SOL    HW228059   4.664   0.393   7.309 -0.1582 -2.7878 -1.7221
 7738SOL     OW28060   0.648   4.802   7.158 -0.2215 -0.2641  0.4732
 7738SOL    HW128061   0.669   4.833   7.070 -0.7104 -1.9680 -0.2826
 7738SOL    HW228062   0.656   4.880   7.214 -1.4684  1.2223 -1.3138
 7739SOL     OW28063   3.941   2.455   7.956 -0.6914  0.5980 -0.5193
 7739SOL    HW128064   3.878   2.402   7.908 -1.9784  1.9644 -0.3833
 7739SOL    HW228065   3.973   2.518   7.892  0.4887  0.0032 -0.5550
 7740SOL     OW28066   5.724   5.166   7.482  0.4553 -0.3734 -0.0899
 7740SOL    HW128067   5.717   5.140   7.574 -1.6284 -1.0047 -0.3668
 7740SOL    HW228068   5.709   5.085   7.433 -2.7765  0.5723 -0.9512
 7741SOL     OW28069   0.299   0.808   7.249  0.2489 -0.1415  0.0649
 7741SOL    HW128070   0.231   0.817   7.316  0.0720  1.5462 -0.3051
 7741SOL    HW228071   0.272   0.867   7.179  1.6291 -0.1432 -0.4986
 7742SOL     OW28072   4.463   3.195   8.914 -0.2922  0.8649  0.2752
 7742SOL    HW128073   4.462   3.266   8.849  0.2677  0.2461 -0.4302
 7742SOL    HW228074   4.432   3.118   8.866 -0.8078  0.6011  1.0068
 7743SOL     OW28075   2.667   4.575   4.963  0.2246 -0.0522  0.1680
 7743SOL    HW128076   2.679   4.561   4.869 -1.5472  1.3077 -0.3080
 7743SOL    HW228077   2.592   4.520   4.986  0.3041  0.0468  0.6732
 7744SOL     OW28078   2.507   2.279   7.215  0.1343  0.1081  0.2840
 7744SOL    HW128079   2.598   2.308   7.202 -0.0846  0.6243 -0.1361
 7744SOL    HW228080   2.482   2.240   7.131  1.0438 -3.1573  1.3673
 7745SOL     OW28081   3.930   3.533   9.590 -0.1772 -0.0636 -0.2572
 7745SOL    HW128082   3.887   3.534   9.505 -1.4798  0.4622  0.3902
 7745SOL    HW228083   3.861   3.509   9.652 -0.5386  4.1627  1.2887
 7746SOL     OW28084   2.625   3.480   9.568  0.1065  0.3981 -0.2529
 7746SOL    HW128085   2.680   3.476   9.489  2.1672  2.3485  0.9650
 7746SOL    HW228086   2.636   3.393   9.608  1.8474  0.5197 -0.3780
 7747SOL     OW28087   1.928   1.327   7.365 -0.1469  0.1023 -0.8851
 7747SOL    HW128088   1.851   1.288   7.324 -1.0547 -0.6558  1.3587
 7747SOL    HW228089   1.976   1.368   7.293 -1.6093 -1.1121 -2.6389
 7748SOL     OW28090   9.349   1.992   7.929 -0.0155  0.0163 -0.5093
 7748SOL    HW128091   9.273   1.943   7.959 -0.6159  1.7396  0.9938
 7748SOL    HW228092   9.420   1.964   7.987 -0.0755  0.0353 -0.4248
 7749SOL     OW28093   1.027   5.333   0.378  0.2797 -0.9403  0.0579
 7749SOL    HW128094   1.055   5.266   0.440  1.5458 -1.4822 -1.0631
 7749SOL    HW228095   0.942   5.362   0.411  0.5609 -1.7787  1.5834
 7750SOL     OW28096   3.518   3.995   7.279 -0.7135 -0.6725  0.4056
 7750SOL    HW128097   3.485   3.905   7.288 -1.0112 -0.5356  0.6938
 7750SOL    HW228098   3.483   4.041   7.356  0.4258 -0.6092  0.9057
 7751SOL     OW28099   1.987   4.276   0.185 -0.2900  0.0082  0.0700
 7751SOL    HW128100   1.920   4.336   0.152  0.6610  2.7212  2.6825
 7751SOL    HW228101   1.955   4.249   0.270  0.7720 -0.6907  0.2615
 7752SOL     OW28102   3.526   5.111   8.611  0.0573  0.5664 -0.3357
 7752SOL    HW128103   3.500   5.073   8.694  0.6006  0.5248 -0.1835
 7752SOL    HW228104   3.578   5.043   8.568  1.2647  1.2240  0.0590
 7753SOL     OW28105   9.097   3.034   9.238 -0.2450 -0.5868 -0.5241
 7753SOL    HW128106   9.135   3.012   9.323 -2.0821 -0.9014  0.2539
 7753SOL    HW228107   9.100   2.952   9.189  0.6505 -0.4481 -0.7274
 7754SOL     OW28108   1.993   0.554   9.487  0.0291 -0.2814  0.1852
 7754SOL    HW128109   2.049   0.481   9.511  0.7382 -0.4311 -1.8095
 7754SOL    HW228110   1.904   0.519   9.492  0.3170 -1.0427  0.0451
 7755SOL     OW28111   1.685   2.783   9.160  0.6254 -0.4643 -0.4912
 7755SOL    HW128112   1.662   2.866   9.203 -1.2667 -0.8849 -0.6072
 7755SOL    HW228113   1.615   2.723   9.185  1.0021 -1.5220 -1.8622
 7756SOL     OW28114   3.518   2.705   8.431 -0.0960 -0.1231 -0.7109
 7756SOL    HW128115   3.609   2.713   8.459 -0.1435  0.9062 -0.7934
 7756SOL    HW228116   3.519   2.641   8.360  0.5649 -0.1177 -0.7078
 7757SOL     OW28117   2.021   2.292   9.724  0.0425  0.8867  0.1010
 7757SOL    HW128118   2.050   2.221   9.667  0.2666  1.6642 -0.7731
 7757SOL    HW228119   2.102   2.333   9.754 -0.0938  1.6318 -0.5133
 7758SOL     OW28120   2.233   4.658   6.673 -0.5311  0.6277  0.1218
 7758SOL    HW128121   2.184   4.607   6.608  0.9872  1.2506 -1.5858
 7758SOL    HW228122   2.319   4.616   6.677 -0.5374  0.7115  1.6437
 7759SOL     OW28123   3.109   1.606   8.399 -0.3437  0.2715  0.3854
 7759SOL    HW128124   3.014   1.604   8.386 -0.0844  0.7905 -2.1175
 7759SOL    HW228125   3.131   1.699   8.393  0.4464  0.0418 -0.4866
 7760SOL     OW28126   2.869   5.083   7.990 -0.0771 -0.5553  0.5788
 7760SOL    HW128127   2.801   5.139   8.028 -0.5548 -1.5833  1.2878
 7760SOL    HW228128   2.883   5.015   8.056  1.5913 -0.4098  0.4047
 7761SOL     OW28129   4.760   3.613   9.705 -0.6583  0.5077 -0.5103
 7761SOL    HW128130   4.790   3.683   9.763  0.6712 -1.0438  0.7499
 7761SOL    HW228131   4.818   3.620   9.628  0.0893  0.2410  0.0156
 7762SOL     OW28132   1.909   1.008   7.773 -0.1663  0.4298 -0.3695
 7762SOL    HW128133   1.948   0.956   7.703 -0.8911 -1.2665  0.4211
 7762SOL    HW228134   1.815   0.997   7.761 -0.3488  1.6117 -0.1830
 7763SOL     OW28135   1.180   5.250   7.242  0.4000  0.4692  0.0251
 7763SOL    HW128136   1.214   5.309   7.175 -0.5589  0.6837 -0.2965
 7763SOL    HW228137   1.153   5.172   7.194  1.9227 -0.3599  0.4860
 7764SOL     OW28138   2.767   2.766   8.090  0.3225  0.6141 -0.3472
 7764SOL    HW128139   2.809   2.773   8.176 -0.4444 -2.8547  0.4625
 7764SOL    HW228140   2.829   2.715   8.038 -0.2342  0.6854 -1.0919
 7765SOL     OW28141   2.352   3.840   2.806 -0.1630 -0.3844 -0.3102
 7765SOL    HW128142   2.428   3.886   2.771 -0.0681 -0.1791  0.1580
 7765SOL    HW228143   2.361   3.751   2.773  0.6627 -0.5459  0.2998
 7766SOL     OW28144   0.650   3.084   9.703  0.0110 -0.9164  0.4296
 7766SOL    HW128145   0.729   3.136   9.704 -0.6051  0.0839 -0.8418
 7766SOL    HW228146   0.675   3.002   9.660 -0.0069  0.0663 -1.5596
 7767SOL     OW28147   1.641   3.028   9.226  0.9277 -0.3881  0.4619
 7767SOL    HW128148   1.682   3.110   9.253  2.6208 -1.4962  1.4151
 7767SOL    HW228149   1.548   3.048   9.223  1.4010  2.0137 -0.9583
 7768SOL     OW28150   1.707   3.303   8.418  0.1455 -0.0305 -0.2542
 7768SOL    HW128151   1.622   3.319   8.459  0.5915  1.1683  0.2626
 7768SOL    HW228152   1.711   3.365   8.346  2.5854  3.8007  2.7729
 7769SOL     OW28153   2.621   4.816   8.760 -0.3491  0.0361  0.5363
 7769SOL    HW128154   2.633   4.881   8.829 -0.4542  0.9209 -0.2559
 7769SOL    HW228155   2.567   4.748   8.801  0.8419 -0.2126  1.7727
 7770SOL     OW28156   3.529   1.468   7.756 -0.3742 -0.5526 -0.5070
 7770SOL    HW128157   3.596   1.407   7.724  0.3671  0.0786 -0.1940
 7770SOL    HW228158   3.452   1.413   7.773  0.9612 -1.8477  1.9698
 7771SOL     OW28159   5.095   4.922   8.523  0.3368 -0.3112  0.1233
 7771SOL    HW128160   5.074   5.013   8.542  1.0961  0.1253 -1.0431
 7771SOL    HW228161   5.175   4.906   8.574  0.8483  0.0329 -0.5588
 7772SOL     OW28162   4.207   4.024   9.822 -0.1689 -0.0692  0.1963
 7772SOL    HW128163   4.129   4.071   9.793  0.3567  0.5726 -0.2116
 7772SOL    HW228164   4.244   3.987   9.742  0.8984  1.1182  0.0952
 7773SOL     OW28165   3.740   3.883   8.129  0.2107 -0.2523 -0.0319
 7773SOL    HW128166   3.651   3.889   8.164  0.2922  1.1187 -0.0209
 7773SOL    HW228167   3.746   3.793   8.097 -1.2217 -0.3435 -0.1410
 7774SOL     OW28168   1.247   2.339   8.025  0.3510  1.1575 -0.2182
 7774SOL    HW128169   1.318   2.401   8.042 -0.2060  1.4787  1.1244
 7774SOL    HW228170   1.210   2.368   7.942  0.1197  2.6566  0.3578
 7775SOL     OW28171   2.688   3.712   9.670 -0.2818 -0.0808  0.0783
 7775SOL    HW128172   2.690   3.632   9.616  1.5369 -1.5914  2.2009
 7775SOL    HW228173   2.629   3.691   9.742 -1.2347  1.2444 -0.2705
 7776SOL     OW28174   4.192   2.532   0.668 -0.2307  0.0423  0.4273
 7776SOL    HW128175   4.118   2.472   0.655 -0.4146  0.2783  0.3678
 7776SOL    HW228176   4.270   2.478   0.658 -0.3477  0.1565 -1.4202
 7777SOL     OW28177   2.803   2.021   9.678 -0.8907 -0.0310 -0.2978
 7777SOL    HW128178   2.729   2.062   9.724 -1.1290 -0.9215  0.1348
 7777SOL    HW228179   2.798   1.928   9.702 -0.3693 -0.3240 -1.2672
 7778SOL     OW28180   1.833   1.025   2.244  0.0399  0.4472  0.3746
 7778SOL    HW128181   1.922   0.990   2.252 -0.6800 -1.0299  2.9655
 7778SOL    HW228182   1.781   0.951   2.213 -0.6424  0.6252  1.0607
 7779SOL     OW28183   2.360   1.570   8.436 -0.4753 -0.0424  0.1836
 7779SOL    HW128184   2.319   1.500   8.487 -0.1201  0.6134  1.4313
 7779SOL    HW228185   2.346   1.546   8.345  1.5434 -2.8647  0.4988
 7780SOL     OW28186   4.104   3.740   8.806 -0.2164 -0.2640 -0.6182
 7780SOL    HW128187   4.117   3.826   8.764  0.5568  0.4528  0.9918
 7780SOL    HW228188   4.157   3.744   8.885 -1.1419 -1.7905  0.1247
 7781SOL     OW28189   2.317   2.607   9.627 -0.2898 -0.2946  0.1736
 7781SOL    HW128190   2.340   2.686   9.577  0.0680 -0.2378  0.4294
 7781SOL    HW228191   2.223   2.596   9.611 -0.3193  0.1186  0.0447
 7782SOL     OW28192   4.568   6.606   9.156  0.2464  0.0042  0.4704
 7782SOL    HW128193   4.600   6.555   9.082  0.0084  0.1204  0.2877
 7782SOL    HW228194   4.622   6.577   9.230  0.9708  0.4097  0.1127
 7783SOL     OW28195   2.430   3.976   1.341 -0.2617 -0.6555 -0.4480
 7783SOL    HW128196   2.472   4.040   1.284  0.1293 -0.2719  0.2686
 7783SOL    HW228197   2.341   4.010   1.354 -0.6911 -1.2464 -1.6027
 7784SOL     OW28198   0.334   3.792   8.640 -0.0833  0.1687  0.0648
 7784SOL    HW128199   0.333   3.731   8.713  0.0331 -1.5139 -1.2755
 7784SOL    HW228200   0.426   3.812   8.626  0.0694 -1.0393 -0.8017
 7785SOL     OW28201   5.553   4.383   1.620  0.3516  0.3712  0.5043
 7785SOL    HW128202   5.570   4.471   1.586 -0.9055  0.2382 -0.5579
 7785SOL    HW228203   5.618   4.328   1.576  0.2262  0.5569  0.0822
 7786SOL     OW28204   3.301   4.829   6.422 -0.0042  0.0431  0.2300
 7786SOL    HW128205   3.242   4.826   6.346  0.3888 -0.1763 -0.0690
 7786SOL    HW228206   3.385   4.796   6.389 -0.0037 -0.6846  0.9254
 7787SOL     OW28207   3.564   5.614   0.403  0.2493 -0.1451  0.7953
 7787SOL    HW128208   3.508   5.550   0.358  1.4092  0.8614 -2.3213
 7787SOL    HW228209   3.510   5.693   0.409 -0.0560 -0.4107  1.6068
 7788SOL     OW28210   3.736   2.048   9.735 -0.0539 -0.5639  0.1248
 7788SOL    HW128211   3.741   1.952   9.734 -0.4907 -0.6003  0.7990
 7788SOL    HW228212   3.661   2.067   9.791  0.0535  0.1758  0.0200
 7789SOL     OW28213   1.585   2.791   1.406 -0.2740 -0.1194  0.0087
 7789SOL    HW128214   1.539   2.721   1.359 -0.2936 -0.4707  0.5499
 7789SOL    HW228215   1.603   2.856   1.338 -1.6630  0.0837 -0.1985
 7790SOL     OW28216   1.773   2.538   8.960  0.0758 -0.0702  0.3427
 7790SOL    HW128217   1.806   2.508   9.045  1.3424 -1.2526 -0.5281
 7790SOL    HW228218   1.810   2.477   8.896 -2.0514 -0.1352 -0.9472
 7791SOL     OW28219   2.469   1.086   9.728  1.0374  0.1562 -0.4960
 7791SOL    HW128220   2.528   1.099   9.654  1.1024  1.5667 -0.2122
 7791SOL    HW228221   2.513   1.021   9.783  2.9059  1.9704  0.2744
 7792SOL     OW28222   1.065   2.181   2.230  0.2010  0.1475  0.4397
 7792SOL    HW128223   1.057   2.180   2.326 -1.0493 -0.6216  0.3593
 7792SOL    HW228224   0.990   2.233   2.201 -0.4772 -1.1254 -0.1760
 7793SOL     OW28225   1.688   1.726   1.821 -0.3669  0.0006 -0.2319
 7793SOL    HW128226   1.750   1.792   1.791 -0.8660  0.8573  0.5872
 7793SOL    HW228227   1.680   1.741   1.915 -0.4765 -1.2421 -0.0301
 7794SOL     OW28228   1.222   1.295   1.577 -0.3127  0.1237  0.3919
 7794SOL    HW128229   1.276   1.229   1.534 -1.0773 -0.0943 -0.2659
 7794SOL    HW228230   1.237   1.281   1.670  0.9002  0.2011  0.2177
 7795SOL     OW28231   4.359   2.644   1.181 -0.0025 -0.1141  0.5490
 7795SOL    HW128232   4.386   2.682   1.265  1.6702  0.8295 -0.3715
 7795SOL    HW228233   4.268   2.672   1.171 -0.8944 -1.8527  2.9081
 7796SOL     OW28234   3.100   4.019   9.823 -0.8746 -0.2401  0.3088
 7796SOL    HW128235   3.018   4.024   9.872 -2.0025 -0.2587 -1.4946
 7796SOL    HW228236   3.079   3.965   9.747  1.2608 -1.5753  0.6019
 7797SOL     OW28237   2.635   3.232   8.609  0.5458  0.2369 -0.8760
 7797SOL    HW128238   2.703   3.218   8.675 -0.4026 -0.8299 -0.0854
 7797SOL    HW228239   2.576   3.158   8.620 -0.9745  1.3438 -1.2561
 7798SOL     OW28240   3.574   1.483   9.407  0.6536 -0.6048  0.2759
 7798SOL    HW128241   3.490   1.529   9.400  1.2951  0.4710 -0.8007
 7798SOL    HW228242   3.604   1.501   9.497 -0.4378 -1.3501  0.8047
 7799SOL     OW28243   0.351   5.393   1.603  0.3409  0.3240  0.2281
 7799SOL    HW128244   0.367   5.299   1.613  0.0953  0.4523  2.1335
 7799SOL    HW228245   0.340   5.425   1.692 -2.3903  1.6650 -0.4709
 7800SOL     OW28246   2.838   3.580   9.410 -0.3232 -0.1138  0.1644
 7800SOL    HW128247   2.894   3.534   9.347 -1.6175 -1.4214 -0.0688
 7800SOL    HW228248   2.811   3.660   9.365 -1.0076 -0.9031 -0.8388
 7801SOL     OW28249   0.769   1.310   0.043  0.1159  0.0102 -0.1525
 7801SOL    HW128250   0.788   1.217   0.038  2.6286  0.4330  0.1229
 7801SOL    HW228251   0.817   1.340   0.120  0.3154  1.7055 -0.8840
 7802SOL     OW28252   3.270   2.771   9.003  0.7609 -0.0379 -0.2332
 7802SOL    HW128253   3.235   2.858   8.985  1.0023 -0.1228 -1.1465
 7802SOL    HW228254   3.245   2.719   8.927 -0.3713 -1.0789  0.8134
 7803SOL     OW28255   2.747   5.109   8.568  0.3933  0.3088 -0.5429
 7803SOL    HW128256   2.698   5.151   8.499  0.7619 -1.3436 -1.8854
 7803SOL    HW228257   2.705   5.137   8.649 -0.1271  2.1844 -1.4218
 7804SOL     OW28258   1.472   4.771   9.380 -0.0375 -0.5404  0.0183
 7804SOL    HW128259   1.404   4.720   9.335  1.3773 -1.6188 -0.9895
 7804SOL    HW228260   1.443   4.774   9.471 -2.6028  1.0393 -0.7239
 7805SOL     OW28261   4.470   0.727   9.196  0.5605  0.0490  0.5420
 7805SOL    HW128262   4.458   0.684   9.280 -0.9092 -1.8122 -0.5366
 7805SOL    HW228263   4.391   0.706   9.146  1.8067  0.2177 -1.6537
 7806SOL     OW28264   0.865   3.861   8.492  0.1516 -0.2919  0.6448
 7806SOL    HW128265   0.954   3.861   8.457  0.2751 -1.6650  0.8966
 7806SOL    HW228266   0.876   3.847   8.586 -0.3322 -0.4086  0.6887
 7807SOL     OW28267   1.978   9.680   0.499  0.8320 -0.8630  0.1237
 7807SOL    HW128268   2.010   9.745   0.561  0.6889 -1.5215  0.9069
 7807SOL    HW228269   2.058   9.641   0.463  0.9372  0.5257 -1.2223
 7808SOL     OW28270   4.414   5.156   8.088  0.5060  0.4043 -0.2665
 7808SOL    HW128271   4.404   5.109   8.171  2.0464 -0.3747 -0.4803
 7808SOL    HW228272   4.349   5.117   8.030 -1.8070  2.1376  1.0086
 7809SOL     OW28273   3.416   3.802   7.887 -0.3249  1.2411 -0.5384
 7809SOL    HW128274   3.330   3.776   7.854 -0.2426  0.6415 -0.2863
 7809SOL    HW228275   3.456   3.721   7.917  0.0988  1.6006 -0.1111
 7810SOL     OW28276   1.136   3.837   8.135 -0.1662 -0.0069 -0.1384
 7810SOL    HW128277   1.157   3.862   8.045 -1.9499 -0.4449 -0.7291
 7810SOL    HW228278   1.165   3.746   8.142  1.7403  0.5984  0.3935
 7811SOL     OW28279   2.396   4.804   8.993  0.2361 -0.4340 -0.7191
 7811SOL    HW128280   2.479   4.786   9.036  0.4356 -2.8356 -1.9493
 7811SOL    HW228281   2.329   4.779   9.058  0.4652  0.1674 -0.2407
 7812SOL     OW28282   5.745   6.016   8.040  0.0756  0.0588  0.4799
 7812SOL    HW128283   5.671   6.065   8.006  0.7976  1.0113  0.2619
 7812SOL    HW228284   5.773   5.961   7.967  1.5958  2.0653 -0.5368
 7813SOL     OW28285   3.242   2.493   8.896 -1.0476  0.5943  0.3207
 7813SOL    HW128286   3.159   2.480   8.942 -1.8897  0.2254 -1.2570
 7813SOL    HW228287   3.217   2.519   8.808  0.4643 -1.4162 -0.7865
 7814SOL     OW28288   3.953   6.247   8.559 -0.1551 -0.3662  0.3829
 7814SOL    HW128289   4.006   6.324   8.581 -2.0667  1.5259 -1.2438
 7814SOL    HW228290   3.924   6.262   8.469 -3.1365 -1.4208  1.0475
 7815SOL     OW28291   2.460   3.507   2.040  0.0610 -0.7600 -0.2863
 7815SOL    HW128292   2.432   3.415   2.047 -0.2454 -0.8041 -1.8208
 7815SOL    HW228293   2.387   3.551   1.997  0.8407 -0.1058 -0.9591
 7816SOL     OW28294   1.991   5.074   8.908 -0.0201  0.6877 -0.2058
 7816SOL    HW128295   1.910   5.048   8.865 -0.2010 -0.3989  0.7280
 7816SOL    HW228296   2.060   5.026   8.862 -0.0395  0.7120 -0.2599
 7817SOL     OW28297   0.864   4.019   9.484  0.0769  0.8561 -0.0870
 7817SOL    HW128298   0.880   4.044   9.575 -0.5352  0.8075  0.0350
 7817SOL    HW228299   0.771   3.996   9.481 -0.0823  1.5663 -0.8911
 7818SOL     OW28300   2.333   5.408   8.975  0.1568 -0.3785 -0.0730
 7818SOL    HW128301   2.275   5.389   8.901  0.7774  1.1967 -1.0173
 7818SOL    HW228302   2.421   5.387   8.942  0.4634  0.5766  0.1206
 7819SOL     OW28303   1.990   2.304   0.174 -0.7953 -0.1553 -0.5295
 7819SOL    HW128304   2.078   2.300   0.136 -0.7957  1.2158 -0.7192
 7819SOL    HW228305   2.001   2.355   0.254 -1.6627  1.4717 -1.3876
 7820SOL     OW28306   3.249   3.244   9.042  0.2637 -0.0475 -0.1881
 7820SOL    HW128307   3.340   3.231   9.015  0.5370  0.1203  0.6139
 7820SOL    HW228308   3.212   3.156   9.045  0.7673 -0.2468  0.6799
 7821SOL     OW28309   1.102   2.645   0.705  0.2775  0.5780 -0.4406
 7821SOL    HW128310   1.009   2.625   0.719  0.4219 -0.0262 -0.3063
 7821SOL    HW228311   1.117   2.725   0.755  0.4080 -0.6772  1.6344
 7822SOL     OW28312   1.568   0.230   2.321 -0.4676 -0.3197 -0.0891
 7822SOL    HW128313   1.651   0.277   2.317  0.2499 -1.2739  2.0102
 7822SOL    HW228314   1.552   0.202   2.231  1.1533  0.4414 -0.6502
 7823SOL     OW28315   3.703   1.439   0.847 -0.0448  0.0090  0.1608
 7823SOL    HW128316   3.773   1.416   0.908  1.2627  1.9720 -0.4946
 7823SOL    HW228317   3.713   1.377   0.774  1.1281  0.3455  0.0168
 7824SOL     OW28318   1.762   1.749   2.108  0.5186 -0.1870  0.4803
 7824SOL    HW128319   1.778   1.667   2.154 -0.6590 -0.9116 -0.3448
 7824SOL    HW228320   1.805   1.815   2.162  1.7463 -1.3624  1.0050
 7825SOL     OW28321   3.505   1.848   9.423  0.2035 -0.1323 -0.0034
 7825SOL    HW128322   3.420   1.814   9.395  0.7301  0.1655 -2.1235
 7825SOL    HW228323   3.490   1.877   9.513 -1.1770 -2.6968  0.7226
 7826SOL     OW28324   4.114   0.612   8.170  0.0979  0.2079  0.0648
 7826SOL    HW128325   4.039   0.633   8.227 -0.7334  0.8900 -1.2311
 7826SOL    HW228326   4.110   0.517   8.159 -0.3390  0.1916  0.3325
 7827SOL     OW28327   6.252   3.614   8.408  0.6071 -0.0728 -0.0696
 7827SOL    HW128328   6.180   3.632   8.467  3.0009  2.6452  2.3665
 7827SOL    HW228329   6.248   3.685   8.344  1.3848  0.4398  0.4303
 7828SOL     OW28330   2.210   0.508   7.030 -0.2954 -0.0715  0.1560
 7828SOL    HW128331   2.151   0.474   7.097 -1.8797 -0.4245 -1.3416
 7828SOL    HW228332   2.173   0.477   6.947  2.7153 -1.4041 -0.8371
 7829SOL     OW28333   1.760   1.946   0.522  0.2114  0.1452  0.1849
 7829SOL    HW128334   1.665   1.942   0.534  0.2409  1.2573  0.8474
 7829SOL    HW228335   1.772   2.001   0.444  0.3104 -0.4158 -0.2069
 7830SOL     OW28336   1.938   1.408   0.439  0.9293 -0.0024  0.2875
 7830SOL    HW128337   1.962   1.414   0.347  0.3096 -0.1151  0.1094
 7830SOL    HW228338   1.843   1.421   0.439  1.0054  0.5579  0.9709
 7831SOL     OW28339   1.390   2.900   8.653  0.1564  0.2019  0.6640
 7831SOL    HW128340   1.432   2.969   8.704 -0.7840  1.2930  0.0033
 7831SOL    HW228341   1.297   2.921   8.655  0.0187 -0.0997 -0.9043
 7832SOL     OW28342   3.612   8.911   0.142 -0.5169  0.1302 -0.0964
 7832SOL    HW128343   3.526   8.919   0.184 -1.2404  1.1945 -1.7126
 7832SOL    HW228344   3.601   8.842   0.077  0.2441 -0.6362  0.5672
 7833SOL     OW28345   3.936   3.037   2.298  0.1824 -0.8649  0.8460
 7833SOL    HW128346   3.942   2.945   2.322  2.0019 -1.6027 -1.9854
 7833SOL    HW228347   4.004   3.080   2.350 -0.5676 -1.1118  2.0611
 7834SOL     OW28348   2.761   2.878   8.894  0.5235 -0.5842  0.0294
 7834SOL    HW128349   2.697   2.813   8.925  0.6538 -0.7074  0.0401
 7834SOL    HW228350   2.720   2.963   8.913  1.2076 -0.6106  1.9017
 7835SOL     OW28351   1.790   4.365   8.791  0.4700  0.3222  0.2299
 7835SOL    HW128352   1.694   4.361   8.791  0.4785 -0.0048  0.6328
 7835SOL    HW228353   1.815   4.309   8.865  0.9523  0.8684  0.4823
 7836SOL     OW28354   4.385   3.639   0.020  0.1353  0.8585 -0.0668
 7836SOL    HW128355   4.294   3.643  -0.008 -0.0828 -0.0311  0.4792
 7836SOL    HW228356   4.422   3.565  -0.028  0.0251 -0.0455  1.1948
 7837SOL     OW28357   0.354   5.336   0.733  0.2560 -0.6350  0.0132
 7837SOL    HW128358   0.401   5.324   0.816  0.7753 -1.0952 -0.3352
 7837SOL    HW228359   0.281   5.394   0.755  3.1319  3.5413 -0.1355
 7838SOL     OW28360   4.932   5.259   2.551  0.6160  0.5239 -0.0743
 7838SOL    HW128361   4.844   5.268   2.587  0.5970 -1.2360  0.3969
 7838SOL    HW228362   4.921   5.270   2.457 -0.2658 -0.4830 -0.1084
 7839SOL     OW28363   3.669   2.423   0.659 -0.0618  0.1087 -0.1864
 7839SOL    HW128364   3.619   2.349   0.624  1.6270 -1.3196  0.2830
 7839SOL    HW228365   3.717   2.457   0.584  1.3169 -1.1118  0.0861
 7840SOL     OW28366   3.941   4.984   7.501 -0.0012 -0.4422  0.4920
 7840SOL    HW128367   3.985   5.041   7.438  1.3738  0.6903  2.3260
 7840SOL    HW228368   4.005   4.915   7.520 -0.4030 -0.7870  0.6036
 7841SOL     OW28369   1.993   4.969   1.420  0.0967 -0.0465  0.4204
 7841SOL    HW128370   2.011   5.062   1.407  0.7537 -0.2539 -0.2010
 7841SOL    HW228371   2.070   4.924   1.386 -0.6536 -0.8724 -0.2411
 7842SOL     OW28372   3.493   5.225   0.214 -0.4140  0.0683  0.0443
 7842SOL    HW128373   3.463   5.314   0.195 -0.7427 -0.4130 -1.9113
 7842SOL    HW228374   3.424   5.169   0.180 -0.0139 -0.9632  0.8773
 7843SOL     OW28375   1.914   5.762   0.985 -0.4476  0.1002 -0.0231
 7843SOL    HW128376   1.854   5.800   0.921 -0.6931  0.9361  0.6765
 7843SOL    HW228377   1.999   5.761   0.941 -0.7647 -0.1114 -0.6473
 7844SOL     OW28378   3.039   6.670   0.556  0.2075 -0.1404  0.3492
 7844SOL    HW128379   3.092   6.733   0.605  0.8672 -0.4093 -0.0095
 7844SOL    HW228380   2.959   6.660   0.609  0.6633 -0.0027  1.0814
 7845SOL     OW28381   3.252   4.213   9.724 -0.1398 -0.4050 -0.1869
 7845SOL    HW128382   3.214   4.145   9.779  1.8501 -0.7955  0.8136
 7845SOL    HW228383   3.217   4.295   9.759  0.3378 -0.7122  1.0589
 7846SOL     OW28384   2.460   7.521   0.565 -0.0551 -0.0465  0.5121
 7846SOL    HW128385   2.376   7.566   0.570  0.0653  0.1720  0.5476
 7846SOL    HW228386   2.468   7.497   0.472  0.3361  0.8781  0.2919
 7847SOL     OW28387   2.688   3.301   1.035 -0.0449  0.4140  0.0402
 7847SOL    HW128388   2.725   3.239   0.972 -0.5373  1.4935 -1.3574
 7847SOL    HW228389   2.693   3.255   1.119  3.0709 -0.0709 -0.3064
 7848SOL     OW28390   3.359   5.831   8.573 -0.2965 -0.7402  0.5988
 7848SOL    HW128391   3.268   5.849   8.548 -0.3725 -1.5142  0.2697
 7848SOL    HW228392   3.393   5.779   8.500  0.3902 -0.5192  0.7583
 7849SOL     OW28393   2.563   4.353   9.470 -0.0403  0.4920  0.0494
 7849SOL    HW128394   2.504   4.424   9.444 -0.9903  0.8187  2.7176
 7849SOL    HW228395   2.544   4.282   9.409 -1.1135  1.5781 -0.9294
 7850SOL     OW28396   0.338   3.396   0.851  0.5809 -0.0511 -0.3026
 7850SOL    HW128397   0.360   3.305   0.870 -1.3684 -0.4523  0.1771
 7850SOL    HW228398   0.313   3.396   0.759 -2.5953 -0.7353  0.4420
 7851SOL     OW28399   9.370   5.570   0.528 -0.1605 -0.9392  0.1791
 7851SOL    HW128400   9.381   5.627   0.604  0.9623 -1.3080  0.3135
 7851SOL    HW228401   9.285   5.528   0.541 -0.8794  0.4588  0.2230
 7852SOL     OW28402   3.196   5.287   2.462  0.2050  0.0874 -0.1696
 7852SOL    HW128403   3.121   5.270   2.520  0.4000  0.0957  0.0865
 7852SOL    HW228404   3.157   5.295   2.375 -0.1533  0.5788  0.0315
 7853SOL     OW28405   4.233   6.340   2.081 -0.3752  0.1084  0.5232
 7853SOL    HW128406   4.189   6.302   2.157 -0.2288  1.1764  1.1517
 7853SOL    HW228407   4.162   6.369   2.024 -0.4982 -1.5067 -0.1959
 7854SOL     OW28408   4.442   6.467   1.052  0.7071 -0.1166  0.5337
 7854SOL    HW128409   4.459   6.485   0.960  0.5879  0.8415  0.6910
 7854SOL    HW228410   4.357   6.424   1.053  0.7319 -0.1766  0.1928
 7855SOL     OW28411   2.019   3.295   9.645  0.0184 -0.2255  0.2585
 7855SOL    HW128412   1.996   3.377   9.689  0.0709  0.5792 -1.1680
 7855SOL    HW228413   1.940   3.272   9.596  0.3477 -0.4803 -0.1527
 7856SOL     OW28414   4.345   5.949   1.468  0.7290  0.1865  0.2823
 7856SOL    HW128415   4.300   6.026   1.503  0.8598  1.7926 -2.7719
 7856SOL    HW228416   4.417   5.934   1.529 -0.2217  1.4811  1.8060
 7857SOL     OW28417   1.683   4.317   1.115 -0.2125 -0.1005  0.1085
 7857SOL    HW128418   1.750   4.365   1.163 -0.1329  0.7918 -0.8728
 7857SOL    HW228419   1.702   4.334   1.023 -1.2349 -0.5822 -0.2071
 7858SOL     OW28420   4.522   5.172   2.197 -0.0911  0.3261  0.6037
 7858SOL    HW128421   4.475   5.170   2.280 -0.6592 -0.1389  0.2720
 7858SOL    HW228422   4.612   5.147   2.220 -0.2861  0.0284  1.0515
 7859SOL     OW28423   5.129   4.772   1.330  0.1044  0.4864 -0.2534
 7859SOL    HW128424   5.060   4.720   1.290  0.2193 -0.9471  1.2717
 7859SOL    HW228425   5.091   4.859   1.341 -0.9391  0.1041 -0.7440
 7860SOL     OW28426   1.448   6.214   8.400 -0.2545  0.1166 -0.0403
 7860SOL    HW128427   1.505   6.171   8.463  0.8598 -0.6192 -1.4915
 7860SOL    HW228428   1.488   6.197   8.315 -0.6396  2.7274 -0.8327
 7861SOL     OW28429   1.520   5.703   0.444  0.0745  0.5577  0.0765
 7861SOL    HW128430   1.487   5.737   0.361  1.1962  0.9599 -0.2230
 7861SOL    HW228431   1.561   5.779   0.486  0.4072  0.1294  0.5385
 7862SOL     OW28432   0.896   5.831   3.392  0.1701 -0.1723 -0.1943
 7862SOL    HW128433   0.835   5.758   3.390  0.6421 -0.5775  0.1347
 7862SOL    HW228434   0.842   5.908   3.371 -0.5724 -0.4405  0.6470
 7863SOL     OW28435   3.536   1.922   3.691  0.0180 -0.2042 -0.3687
 7863SOL    HW128436   3.560   1.874   3.769  0.6058 -1.4601 -1.2868
 7863SOL    HW228437   3.583   1.878   3.620  0.4732  1.6619 -1.2710
 7864SOL     OW28438   4.175   5.261   0.676 -0.2690 -0.1908 -0.0430
 7864SOL    HW128439   4.243   5.324   0.655 -1.5124  0.7922 -1.2580
 7864SOL    HW228440   4.218   5.176   0.669  0.8406  0.4152 -0.7551
 7865SOL     OW28441   4.734   6.579   0.776  0.2508  0.0012  0.1444
 7865SOL    HW128442   4.767   6.537   0.855  0.3137 -0.3453 -0.0629
 7865SOL    HW228443   4.690   6.658   0.807  2.1992  1.0663  0.3497
 7866SOL     OW28444   0.360   5.799   9.782 -0.6154  0.1803  0.4394
 7866SOL    HW128445   0.391   5.889   9.792 -2.3630  1.2282 -2.3239
 7866SOL    HW228446   0.386   5.775   9.693 -3.6914 -0.4733 -0.3889
 7867SOL     OW28447   0.556   3.303   3.586  0.0656 -0.7603  0.6384
 7867SOL    HW128448   0.481   3.359   3.608 -0.2569 -0.8171 -0.2477
 7867SOL    HW228449   0.611   3.305   3.664 -0.0870  0.5459  0.7467
 7868SOL     OW28450   2.839   5.272   9.352 -0.2985 -0.3025 -0.4469
 7868SOL    HW128451   2.927   5.272   9.314 -0.1492 -0.9567 -0.1153
 7868SOL    HW228452   2.814   5.180   9.356 -1.8753 -0.0250 -2.5022
 7869SOL     OW28453   2.744   6.828   2.758 -0.2990  0.3388  0.3378
 7869SOL    HW128454   2.736   6.911   2.711  0.3841  0.3695  0.2721
 7869SOL    HW228455   2.821   6.839   2.814  2.8366 -1.8287 -3.0556
 7870SOL     OW28456   1.167   5.332   1.618  0.7995  0.0574  0.5637
 7870SOL    HW128457   1.131   5.412   1.656  0.3420  0.2631 -0.2989
 7870SOL    HW228458   1.261   5.338   1.636  0.6279  0.2407  1.4868
 7871SOL     OW28459   4.865   4.971   2.231  0.2214 -0.2153  0.4849
 7871SOL    HW128460   4.905   4.962   2.317  0.9983 -1.0100  0.0527
 7871SOL    HW228461   4.934   4.944   2.169 -0.5062 -0.2086 -0.3484
 7872SOL     OW28462   1.328   5.547   9.748 -0.4839  0.4009  0.3909
 7872SOL    HW128463   1.335   5.601   9.827  0.8039 -1.6465  1.7631
 7872SOL    HW228464   1.300   5.608   9.680  0.5728  2.7379  1.9201
 7873SOL     OW28465   2.300   3.157   2.752  0.6276 -0.1028 -0.5284
 7873SOL    HW128466   2.366   3.103   2.796  0.6640  0.5330  0.2060
 7873SOL    HW228467   2.324   3.247   2.773  0.3547  0.2000 -1.4467
 7874SOL     OW28468   5.621   4.091   0.555 -0.5371  0.5706  0.9390
 7874SOL    HW128469   5.534   4.059   0.531 -0.1672 -1.2240  1.7517
 7874SOL    HW228470   5.654   4.136   0.477 -1.7274  0.2417  0.2291
 7875SOL     OW28471   1.755   3.315   2.582  0.2567 -0.7873 -0.1366
 7875SOL    HW128472   1.698   3.289   2.509  0.6303  1.1658 -1.2075
 7875SOL    HW228473   1.745   3.410   2.586  1.6742 -0.6707  1.1712
 7876SOL     OW28474   1.399   5.485   2.826  0.0859  0.7104  0.2084
 7876SOL    HW128475   1.334   5.493   2.897 -0.7567 -2.3685 -0.1034
 7876SOL    HW228476   1.350   5.507   2.747 -0.6226 -1.4678 -0.0094
 7877SOL     OW28477   3.072   4.174   7.526  0.0493 -0.0238 -0.0665
 7877SOL    HW128478   3.043   4.109   7.462  2.0342 -1.1417  0.0944
 7877SOL    HW228479   3.135   4.128   7.581  1.8101  2.0952 -0.1557
 7878SOL     OW28480   0.907   6.213   7.782  0.0760 -0.2758 -0.3261
 7878SOL    HW128481   0.990   6.177   7.814 -0.5436 -1.8949 -0.4404
 7878SOL    HW228482   0.912   6.203   7.687 -0.0133  0.1566 -0.3771
 7879SOL     OW28483   1.846   4.153   3.749 -0.7038  0.2580 -0.2409
 7879SOL    HW128484   1.865   4.247   3.753  0.7617 -0.0775  2.0901
 7879SOL    HW228485   1.796   4.135   3.828 -0.4167 -1.0319 -0.3302
 7880SOL     OW28486   3.570   7.214   9.513 -0.0711 -0.3370 -0.5045
 7880SOL    HW128487   3.577   7.119   9.523 -1.6330 -0.4363 -0.0537
 7880SOL    HW228488   3.647   7.249   9.558  0.1996 -1.3657 -0.1493
 7881SOL     OW28489   2.547   3.616   0.050 -0.2883 -0.1424  0.0646
 7881SOL    HW128490   2.623   3.565   0.079  0.0266  0.2267 -0.1057
 7881SOL    HW228491   2.472   3.572   0.092 -0.4970 -2.9941 -2.8949
 7882SOL     OW28492   3.416   2.366   9.223 -0.2059  0.2009  0.0525
 7882SOL    HW128493   3.439   2.387   9.133  0.2332 -1.2617 -0.2058
 7882SOL    HW228494   3.487   2.404   9.275  0.1679  0.0221 -0.3216
 7883SOL     OW28495   2.520   6.608   2.250 -0.1138  0.1789 -0.0414
 7883SOL    HW128496   2.560   6.522   2.266  1.4747  0.6748 -1.1029
 7883SOL    HW228497   2.544   6.660   2.327  0.1394  0.0632 -0.0383
 7884SOL     OW28498   1.457   6.496   0.223  0.3576  0.2652  0.1525
 7884SOL    HW128499   1.469   6.580   0.178 -1.0711 -0.0831 -0.9227
 7884SOL    HW228500   1.363   6.484   0.228  0.5169 -0.6912  1.4621
 7885SOL     OW28501   3.993   4.944   1.024  0.0339  0.5162 -0.1829
 7885SOL    HW128502   3.962   5.018   0.972  0.3607  0.8172  0.0462
 7885SOL    HW228503   3.975   4.867   0.969  0.6671  0.8553 -0.8805
 7886SOL     OW28504   3.942   3.962   4.022 -0.4095  0.6477 -0.2166
 7886SOL    HW128505   3.953   3.878   3.977 -0.8363 -0.2013  1.1972
 7886SOL    HW228506   4.031   3.991   4.040 -0.2557 -0.5262  1.0647
 7887SOL     OW28507   2.831   5.423   1.957 -0.7609 -0.2960  0.2788
 7887SOL    HW128508   2.768   5.459   2.020  0.6928  0.5281  1.3375
 7887SOL    HW228509   2.884   5.498   1.930 -0.5463 -0.8754 -0.9699
 7888SOL     OW28510   1.703   4.616   9.628 -0.2264  0.3127  0.4097
 7888SOL    HW128511   1.782   4.590   9.676 -0.7246 -0.0233  1.0633
 7888SOL    HW228512   1.725   4.700   9.589  0.4539  0.2258  0.5962
 7889SOL     OW28513   2.335   4.789   1.672 -0.2021  0.0814  0.0631
 7889SOL    HW128514   2.399   4.859   1.667 -0.0740 -0.0955 -1.1239
 7889SOL    HW228515   2.366   4.724   1.609 -0.0887 -1.2412  1.4322
 7890SOL     OW28516   3.269   4.784   9.505  0.5029  0.5235  0.3168
 7890SOL    HW128517   3.355   4.766   9.467 -0.0893 -0.1399 -0.7557
 7890SOL    HW228518   3.215   4.813   9.431  0.0958  2.0449  1.1659
 7891SOL     OW28519   4.681   7.088   1.292 -0.2254 -0.6666 -0.2888
 7891SOL    HW128520   4.680   7.001   1.252  1.0268 -0.9127  0.1749
 7891SOL    HW228521   4.713   7.145   1.222 -0.1051 -0.7360 -0.2902
 7892SOL     OW28522   3.877   7.365   0.764 -0.2846  0.2913  0.3634
 7892SOL    HW128523   3.906   7.274   0.766  0.4013  0.4690 -0.5979
 7892SOL    HW228524   3.781   7.360   0.772 -0.2049 -0.4565  1.0322
 7893SOL     OW28525   3.481   3.267   0.017  0.1995  0.2200  0.6580
 7893SOL    HW128526   3.504   3.215   0.094  1.4725  0.6744  0.6077
 7893SOL    HW228527   3.550   3.248  -0.047 -0.9918 -0.3736 -0.4973
 7894SOL     OW28528   3.929   5.290   0.350  0.0147 -0.7917 -0.5214
 7894SOL    HW128529   4.001   5.292   0.288  1.0897  1.5440  0.6555
 7894SOL    HW228530   3.874   5.365   0.326 -0.4344 -0.8261  0.3262
 7895SOL     OW28531   2.157   4.347   9.498 -0.0637 -0.2723 -0.0574
 7895SOL    HW128532   2.165   4.365   9.592  0.6627 -0.5247 -0.0688
 7895SOL    HW228533   2.084   4.284   9.493 -1.3809  1.1888  0.1425
 7896SOL     OW28534   3.300   5.200   1.003 -0.1950 -0.0463 -0.1610
 7896SOL    HW128535   3.313   5.160   1.089  2.4171  1.3569  0.1832
 7896SOL    HW228536   3.349   5.144   0.943 -0.8885 -0.2603 -0.5376
 7897SOL     OW28537   4.000   2.538   3.823  0.0037  0.3402 -0.2829
 7897SOL    HW128538   4.089   2.573   3.821  0.6378 -1.1868 -1.0921
 7897SOL    HW228539   3.986   2.505   3.734 -1.7706  1.4491 -0.4576
 7898SOL     OW28540   1.508   3.646   1.038  0.2435  0.5870 -0.1306
 7898SOL    HW128541   1.448   3.720   1.029  0.0820  0.4636 -0.0781
 7898SOL    HW228542   1.460   3.571   1.002 -0.2744  0.1562  1.3925
 7899SOL     OW28543   1.545   2.145   2.967 -0.2665 -0.2886  0.5648
 7899SOL    HW128544   1.459   2.160   2.928  0.2927  0.9303 -0.3023
 7899SOL    HW228545   1.602   2.206   2.920  1.2924 -1.8651  0.3216
 7900SOL     OW28546   1.928   4.382   8.546 -0.2445  0.6341  0.1874
 7900SOL    HW128547   1.902   4.360   8.635 -2.4293  1.4794 -0.1749
 7900SOL    HW228548   1.847   4.410   8.504  0.7673  0.4470 -2.0189
 7901SOL     OW28549   2.069   4.516   2.187 -0.4088 -0.1464 -0.0156
 7901SOL    HW128550   2.004   4.581   2.161 -1.7748 -1.3667  0.2118
 7901SOL    HW228551   2.049   4.496   2.278 -0.4502 -1.3727 -0.2798
 7902SOL     OW28552   2.249   6.056   2.539 -0.2092 -0.0350  0.4481
 7902SOL    HW128553   2.217   5.968   2.557  1.8925 -0.8808  0.3032
 7902SOL    HW228554   2.245   6.102   2.623 -0.3588 -0.6002  0.7520
 7903SOL     OW28555   2.105   4.012   4.864 -0.0011 -0.0374  0.4460
 7903SOL    HW128556   2.162   4.088   4.876  1.2656 -0.8269 -0.3478
 7903SOL    HW228557   2.141   3.966   4.788 -1.5444 -0.7288  0.0900
 7904SOL     OW28558   2.422   2.609   1.734  0.0587  0.3779  0.3849
 7904SOL    HW128559   2.501   2.660   1.751  0.4021 -0.1879  0.5202
 7904SOL    HW228560   2.353   2.655   1.781  0.2912  0.9281  0.1904
 7905SOL     OW28561   1.044   4.901   0.688 -0.0253 -0.0844  0.3770
 7905SOL    HW128562   0.996   4.861   0.615  1.8407  0.3514 -1.1658
 7905SOL    HW228563   1.045   4.834   0.756  0.9049 -1.7549 -1.2193
 7906SOL     OW28564   5.262   5.196   0.106  0.1573  0.0732  0.3705
 7906SOL    HW128565   5.320   5.182   0.031  0.5380  0.6947  0.5392
 7906SOL    HW228566   5.194   5.255   0.073 -1.1629 -1.6968 -0.2024
 7907SOL     OW28567   3.226   4.592   2.289  0.4975  0.1442  0.5118
 7907SOL    HW128568   3.226   4.667   2.230  0.6214 -0.2012  0.0726
 7907SOL    HW228569   3.147   4.543   2.266  1.0431 -0.4999 -0.0200
 7908SOL     OW28570   1.092   5.100   0.539  0.4880 -0.5667  0.3476
 7908SOL    HW128571   1.175   5.126   0.578  1.0055 -0.6030 -0.6892
 7908SOL    HW228572   1.051   5.043   0.604  1.2496 -0.5116  0.8848
 7909SOL     OW28573   0.914   3.621   0.030  0.1641  0.7107 -0.2098
 7909SOL    HW128574   1.002   3.652   0.051 -0.4175  1.7755  0.7530
 7909SOL    HW228575   0.868   3.699   0.000  0.2264 -0.2679 -3.2591
 7910SOL     OW28576   2.546   4.824   0.608  0.5196 -0.0277  0.4130
 7910SOL    HW128577   2.473   4.782   0.561 -0.5711  1.1601  0.9780
 7910SOL    HW228578   2.537   4.793   0.698  1.5998 -0.9868  0.2124
 7911SOL     OW28579   5.146   4.835   0.841 -0.5669  0.6238 -0.4209
 7911SOL    HW128580   5.215   4.883   0.796  1.2587 -1.4313 -0.0065
 7911SOL    HW228581   5.149   4.867   0.931  2.0606 -1.4632  0.3887
 7912SOL     OW28582   2.055   3.033   2.743  0.2564 -0.4790 -0.8223
 7912SOL    HW128583   2.030   3.058   2.832  2.0583 -0.9552 -0.1237
 7912SOL    HW228584   2.141   3.072   2.731 -0.1069 -0.1515 -2.5019
 7913SOL     OW28585   2.854   6.534   2.947 -0.0013 -0.5169  0.3614
 7913SOL    HW128586   2.913   6.509   2.876  1.0383  1.2044  0.5670
 7913SOL    HW228587   2.908   6.586   3.006 -1.4145 -0.0084  1.2577
 7914SOL     OW28588   3.722   0.732   0.669  0.5513  0.2265  0.0848
 7914SOL    HW128589   3.694   0.700   0.755 -0.1112 -1.2975 -0.6603
 7914SOL    HW228590   3.664   0.805   0.650 -0.1623 -0.2622  0.3692
 7915SOL     OW28591   4.364   5.924   7.552  0.0057 -0.9629  0.1552
 7915SOL    HW128592   4.384   5.955   7.464 -0.6618  0.1267  0.3578
 7915SOL    HW228593   4.434   5.960   7.607 -1.3862  1.3687  0.5846
 7916SOL     OW28594   0.113   5.468   0.815  0.1829  0.2752  0.2510
 7916SOL    HW128595   0.067   5.459   0.899 -0.4373  1.8348  0.1107
 7916SOL    HW228596   0.044   5.489   0.752  0.7026 -0.4439 -0.5905
 7917SOL     OW28597   1.732   4.844   1.501 -0.0605 -0.1519 -1.3713
 7917SOL    HW128598   1.699   4.770   1.450 -0.1758 -0.1044 -1.3637
 7917SOL    HW228599   1.827   4.842   1.486  0.2068 -1.4920  0.1639
 7918SOL     OW28600   4.956   4.217   8.124 -0.0444 -0.8051 -0.1576
 7918SOL    HW128601   5.045   4.198   8.093  0.7387 -0.9529  2.0083
 7918SOL    HW228602   4.968   4.288   8.187 -1.4663 -0.8365  0.1618
 7919SOL     OW28603   2.642   2.145   0.014 -0.0542  0.0806 -0.5636
 7919SOL    HW128604   2.598   2.163   0.098  0.3389  1.0806 -0.5574
 7919SOL    HW228605   2.690   2.226  -0.006 -0.0672 -0.1749 -1.7104
 7920SOL     OW28606   3.919   5.018   2.757 -0.0694 -0.1049  0.0434
 7920SOL    HW128607   3.895   4.934   2.717 -0.7161  0.6380 -1.1744
 7920SOL    HW228608   3.856   5.080   2.721  1.1632  1.1359 -0.0369
 7921SOL     OW28609   1.834   2.659   2.349  0.1452  0.0633 -0.1435
 7921SOL    HW128610   1.877   2.647   2.264 -1.2673 -2.3336 -0.6005
 7921SOL    HW228611   1.752   2.611   2.341 -0.8836  1.3165  1.9980
 7922SOL     OW28612   4.455   5.639   2.167  0.3862 -0.1057  0.0600
 7922SOL    HW128613   4.451   5.543   2.166  0.6849 -0.1857  2.1405
 7922SOL    HW228614   4.546   5.660   2.146  0.6222 -0.3429  0.8220
 7923SOL     OW28615   3.521   5.872   6.956 -0.0246 -0.2913 -0.7212
 7923SOL    HW128616   3.434   5.888   6.993  0.3334  0.1633 -0.0637
 7923SOL    HW228617   3.519   5.915   6.870 -0.7270 -1.0202 -1.0813
 7924SOL     OW28618   3.061   7.514   1.584 -0.1538  0.0287 -0.0098
 7924SOL    HW128619   3.137   7.570   1.573 -0.0033 -0.2483 -0.4146
 7924SOL    HW228620   3.075   7.471   1.669 -1.1360  1.9013  1.1675
 7925SOL     OW28621   0.762   3.827   0.470 -0.0465 -0.1574 -0.0884
 7925SOL    HW128622   0.756   3.818   0.375 -2.2816 -2.2917  0.1401
 7925SOL    HW228623   0.829   3.764   0.496  0.0765 -0.0698 -0.1913
 7926SOL     OW28624   0.975   4.416   1.315 -0.1003  0.7825  0.2313
 7926SOL    HW128625   0.880   4.425   1.306 -0.1502  0.8557  0.7755
 7926SOL    HW228626   0.988   4.328   1.349 -0.0550  1.1587  1.2209
 7927SOL     OW28627   0.904   3.355   1.722 -0.0901  0.1497  0.4939
 7927SOL    HW128628   0.962   3.309   1.662  0.2015 -0.8278  1.4774
 7927SOL    HW228629   0.816   3.330   1.693 -0.1181  2.1439 -1.3949
 7928SOL     OW28630   0.300   4.798   1.324 -0.2100  0.4267  0.0893
 7928SOL    HW128631   0.256   4.714   1.339  1.0349 -0.6245 -1.6919
 7928SOL    HW228632   0.314   4.800   1.229  2.1712  1.3920  0.4003
 7929SOL     OW28633   4.447   4.509   9.741 -0.9381 -0.1407 -0.0377
 7929SOL    HW128634   4.532   4.545   9.717  0.5099 -2.1938  1.6771
 7929SOL    HW228635   4.417   4.564   9.813 -1.2774  0.8124 -0.8827
 7930SOL     OW28636   1.552   6.082   3.940  0.4409 -0.7820  0.3545
 7930SOL    HW128637   1.515   6.005   3.898 -2.7383  0.7855  0.0099
 7930SOL    HW228638   1.546   6.064   4.034 -0.2378 -1.0009  0.2750
 7931SOL     OW28639   1.032   3.601   1.940  0.2427  0.8248 -0.5753
 7931SOL    HW128640   1.070   3.687   1.920 -0.0750  1.1644  0.2198
 7931SOL    HW228641   1.055   3.586   2.032  0.8626 -0.2484 -0.8970
 7932SOL     OW28642   2.432   3.614   2.619  0.0756 -0.0336 -0.0861
 7932SOL    HW128643   2.387   3.644   2.540  0.4256  0.6446 -0.0385
 7932SOL    HW228644   2.524   3.609   2.594  0.1705  0.0532  0.2402
 7933SOL     OW28645   5.082   2.524   2.998  0.1256 -0.1505  0.4070
 7933SOL    HW128646   5.081   2.491   2.909 -0.3718 -0.6474  0.5896
 7933SOL    HW228647   5.149   2.472   3.043  1.0964  0.7854  0.0813
 7934SOL     OW28648   2.741   3.608   0.991  0.2802 -0.2850  0.3447
 7934SOL    HW128649   2.742   3.512   1.000  1.4998 -0.3008  0.1805
 7934SOL    HW228650   2.815   3.637   1.044  0.1116  0.5488  0.1270
 7935SOL     OW28651   4.217   5.477   8.866 -1.2935 -0.5571 -0.0308
 7935SOL    HW128652   4.248   5.555   8.913 -1.0968 -0.2934 -0.5867
 7935SOL    HW228653   4.265   5.404   8.906 -0.6141 -0.2551 -0.2909
 7936SOL     OW28654   1.955   3.098   2.224  0.2403 -0.0080 -0.1138
 7936SOL    HW128655   1.983   3.099   2.316 -0.4529  2.7128  0.1634
 7936SOL    HW228656   1.897   3.022   2.218  1.6120 -1.2464  1.2252
 7937SOL     OW28657   3.861   4.221   1.150 -0.3330  0.3334 -0.5691
 7937SOL    HW128658   3.829   4.241   1.062 -1.0053 -0.1558 -0.4373
 7937SOL    HW228659   3.813   4.281   1.208 -0.0653  0.4904 -0.5074
 7938SOL     OW28660   0.631   4.382   3.663 -0.5481  0.6923  0.2737
 7938SOL    HW128661   0.620   4.335   3.580  1.1306 -1.0627  0.9688
 7938SOL    HW228662   0.585   4.329   3.727  0.1698  0.7371  0.8391
 7939SOL     OW28663   1.795   5.821   3.869 -0.1297  0.8580 -0.3197
 7939SOL    HW128664   1.786   5.853   3.779 -0.8765  0.7433 -0.2963
 7939SOL    HW228665   1.734   5.747   3.874  1.2545 -0.3183 -0.2579
 7940SOL     OW28666   9.621   4.428   9.417 -0.3317 -0.1246  0.2641
 7940SOL    HW128667   9.663   4.416   9.503 -0.5503  0.0664  0.3998
 7940SOL    HW228668   9.584   4.342   9.396  0.6953 -0.4718 -0.1614
 7941SOL     OW28669   4.944   3.532   8.320 -0.1353 -0.4995 -0.2272
 7941SOL    HW128670   4.995   3.577   8.387  0.7367 -0.8719 -0.6298
 7941SOL    HW228671   5.008   3.480   8.272 -0.4995  0.7799 -2.2284
 7942SOL     OW28672   4.604   5.593   9.807 -0.0545 -0.2325  0.2122
 7942SOL    HW128673   4.588   5.615   9.899  1.9415  0.7377  0.3736
 7942SOL    HW228674   4.585   5.675   9.760  2.2226  0.3404  0.1980
 7943SOL     OW28675   3.142   2.556   9.649 -0.7230 -0.8287  0.0705
 7943SOL    HW128676   3.054   2.520   9.644 -0.5052 -1.4282  0.3965
 7943SOL    HW228677   3.151   2.609   9.570 -1.4785 -0.5152  0.1929
 7944SOL     OW28678   3.953   3.983   1.220 -0.1472  0.4944  0.5419
 7944SOL    HW128679   3.898   4.055   1.188 -1.3133  0.4892  2.3895
 7944SOL    HW228680   3.955   3.921   1.147  0.8342  2.3030 -1.0807
 7945SOL     OW28681   3.389   6.133   9.301 -0.0629 -0.6941 -0.3905
 7945SOL    HW128682   3.432   6.188   9.367 -0.5826 -1.0014  0.2184
 7945SOL    HW228683   3.344   6.195   9.243 -0.4662 -0.4596  0.1600
 7946SOL     OW28684   2.940   5.440   0.993 -0.9798 -0.1145 -0.2338
 7946SOL    HW128685   2.945   5.360   0.940 -0.3484 -0.6434  0.5884
 7946SOL    HW228686   2.847   5.458   1.000 -1.0837 -0.1243 -1.3756
 7947SOL     OW28687   5.569   6.209   1.506 -0.2382  0.0176 -0.3954
 7947SOL    HW128688   5.545   6.157   1.429  0.5877 -1.8636  0.5536
 7947SOL    HW228689   5.618   6.283   1.470  1.0901 -1.3885 -1.6715
 7948SOL     OW28690   2.310   6.208   8.298 -0.3708  0.2065  0.2275
 7948SOL    HW128691   2.271   6.276   8.352  1.5017  0.9273  0.7146
 7948SOL    HW228692   2.351   6.255   8.225 -2.0735 -0.6820 -1.4006
 7949SOL     OW28693   4.608   4.061   0.672 -0.2897 -0.2907  0.2687
 7949SOL    HW128694   4.618   4.024   0.760  1.8380 -1.3544 -0.3281
 7949SOL    HW228695   4.691   4.106   0.656 -1.1461  0.9976 -0.7319
 7950SOL     OW28696   3.218   3.970   1.137  0.0041  0.0649 -0.1365
 7950SOL    HW128697   3.204   4.065   1.142  1.1117  0.5157 -3.3209
 7950SOL    HW228698   3.312   3.959   1.153 -0.5727 -0.9844  3.4432
 7951SOL     OW28699   6.004   5.899   3.661 -0.0274 -0.2064  0.0396
 7951SOL    HW128700   6.020   5.920   3.568  0.7223 -0.6146  0.0657
 7951SOL    HW228701   6.065   5.955   3.709 -1.4442  1.0836  0.3830
 7952SOL     OW28702   5.484   5.949   3.830  0.5561  0.0460  0.2013
 7952SOL    HW128703   5.578   5.959   3.816  0.5464  1.8109  1.1481
 7952SOL    HW228704   5.458   6.027   3.879 -1.4127 -0.3888 -0.0471
 7953SOL     OW28705   2.989   3.901   2.298  0.2933  0.3385  0.2544
 7953SOL    HW128706   3.043   3.943   2.231  1.5333  0.1884  1.1131
 7953SOL    HW228707   3.039   3.823   2.323 -2.6361 -2.7727 -2.4461
 7954SOL     OW28708   3.757   5.646   2.324 -0.2523 -0.4538 -0.8388
 7954SOL    HW128709   3.730   5.555   2.311 -2.1723 -0.5174  2.5497
 7954SOL    HW228710   3.826   5.641   2.390 -1.3233  0.5977  0.3999
 7955SOL     OW28711   1.901   5.397   1.701  0.1218 -0.4754 -0.2918
 7955SOL    HW128712   1.916   5.343   1.778  2.6499 -0.0169 -0.3664
 7955SOL    HW228713   1.807   5.414   1.701 -0.3555 -2.6343  1.2000
 7956SOL     OW28714   3.956   6.736   0.755 -0.4399  0.1424 -0.0547
 7956SOL    HW128715   3.949   6.751   0.661 -2.8241  0.3452  0.0801
 7956SOL    HW228716   3.865   6.736   0.785  0.2152 -0.9188  2.0969
 7957SOL     OW28717   3.085   5.235   1.530  0.0674 -0.2648  0.1235
 7957SOL    HW128718   2.989   5.237   1.526  0.0009  2.2484  1.2320
 7957SOL    HW228719   3.104   5.158   1.585 -1.4298  0.1237  1.2751
 7958SOL     OW28720   0.543   4.726   0.885  0.0338 -0.2294 -0.9967
 7958SOL    HW128721   0.634   4.725   0.916  0.0334 -1.3012 -0.9906
 7958SOL    HW228722   0.523   4.819   0.873  0.8074  0.0835 -0.0464
 7959SOL     OW28723   1.840   3.010   1.102  0.4783 -0.0438 -0.1075
 7959SOL    HW128724   1.891   2.935   1.133  1.3743  0.6213  0.0616
 7959SOL    HW228725   1.864   3.019   1.010 -1.1633 -1.1865 -0.6916
 7960SOL     OW28726   0.733   5.693   1.173  0.4358  0.3266  0.0845
 7960SOL    HW128727   0.644   5.728   1.169  0.9495  1.6777 -0.1049
 7960SOL    HW228728   0.728   5.609   1.127 -1.0768 -0.4083  1.5037
 7961SOL     OW28729   2.117   5.374   9.842  0.1392 -0.1759 -0.5592
 7961SOL    HW128730   2.106   5.469   9.849  1.7778 -0.0607  3.2512
 7961SOL    HW228731   2.095   5.341   9.929  2.9375 -2.8105 -0.6562
 7962SOL     OW28732   3.680   6.609   1.089 -0.0528 -0.2058  0.3501
 7962SOL    HW128733   3.603   6.574   1.045 -0.2817  0.5767  0.1210
 7962SOL    HW228734   3.738   6.637   1.018  1.7434 -3.3495  0.3701
 7963SOL     OW28735   1.405   5.421   9.266  0.0731  0.0178 -0.2268
 7963SOL    HW128736   1.331   5.362   9.272  0.5045 -0.5439 -0.3798
 7963SOL    HW228737   1.469   5.386   9.328  0.5976 -0.0611 -0.8103
 7964SOL     OW28738   1.337   2.886   4.260 -0.2765  0.5246  0.0182
 7964SOL    HW128739   1.265   2.858   4.317 -0.3077 -3.4203 -1.6532
 7964SOL    HW228740   1.416   2.864   4.310 -0.0969  3.4511  1.2147
 7965SOL     OW28741   0.782   5.087   1.078  0.2400 -0.5012  0.3474
 7965SOL    HW128742   0.855   5.047   1.124  0.1148 -0.7122  0.3626
 7965SOL    HW228743   0.799   5.181   1.084  0.8327 -0.5641 -0.1797
 7966SOL     OW28744   2.957   3.800   1.123  0.4670  0.3576  0.4966
 7966SOL    HW128745   3.021   3.734   1.151  0.9735  0.0290 -1.2964
 7966SOL    HW228746   3.005   3.855   1.061 -1.6951 -1.8825 -3.5496
 7967SOL     OW28747   4.264   5.058   1.148 -0.0587 -0.1046  0.1573
 7967SOL    HW128748   4.289   4.967   1.157 -1.6471 -1.1016 -3.5081
 7967SOL    HW228749   4.169   5.056   1.133 -0.0700  2.0653 -0.5245
 7968SOL     OW28750   3.469   4.442   1.596  0.0450  0.1624 -0.2866
 7968SOL    HW128751   3.499   4.376   1.659 -0.2402  1.5272  1.3655
 7968SOL    HW228752   3.458   4.521   1.649  2.0453  2.0574 -2.4633
 7969SOL     OW28753   3.461   3.249   1.536 -0.0408 -0.2865 -0.2700
 7969SOL    HW128754   3.535   3.304   1.562  0.6193 -1.4824  0.4389
 7969SOL    HW228755   3.499   3.164   1.515 -1.1394 -0.7391 -0.5146
 7970SOL     OW28756   3.448   3.223   0.928  0.3053 -0.0470 -0.0121
 7970SOL    HW128757   3.398   3.304   0.938  0.7377  0.0096  2.3793
 7970SOL    HW228758   3.436   3.198   0.836 -1.0282  1.9280 -0.4389
 7971SOL     OW28759   5.795   6.273   3.849 -0.2601 -0.5049 -0.1631
 7971SOL    HW128760   5.777   6.179   3.850 -0.6554 -0.5077 -2.2395
 7971SOL    HW228761   5.858   6.284   3.778  1.1055  0.6182  1.1789
 7972SOL     OW28762   1.183   5.144   0.820 -0.6447 -0.0717 -0.7559
 7972SOL    HW128763   1.266   5.167   0.862 -0.1150 -0.8415 -1.3507
 7972SOL    HW228764   1.148   5.074   0.875 -1.1911  0.6261 -0.1880
 7973SOL     OW28765   1.939   4.855   2.565  0.4370  0.2677  0.5236
 7973SOL    HW128766   1.872   4.883   2.502 -0.3182 -1.1448  0.6691
 7973SOL    HW228767   1.921   4.907   2.644 -2.2912 -1.9653  1.5294
 7974SOL     OW28768   2.476   6.115   8.737  0.5072  0.4237  0.5380
 7974SOL    HW128769   2.511   6.034   8.772 -1.7814 -0.3239  1.2427
 7974SOL    HW228770   2.468   6.099   8.643 -1.0985 -0.6786  0.8298
 7975SOL     OW28771   3.677   4.778   1.043 -0.2020 -0.0926 -0.6173
 7975SOL    HW128772   3.731   4.850   1.075 -0.2296  0.1260 -1.0532
 7975SOL    HW228773   3.588   4.801   1.070 -0.3300  0.4529 -1.4538
 7976SOL     OW28774   3.862   5.718   2.813 -1.2472  0.0685  0.5703
 7976SOL    HW128775   3.903   5.716   2.900 -2.0196  0.5898  0.9602
 7976SOL    HW228776   3.830   5.629   2.800  1.0395 -0.7015 -0.2761
 7977SOL     OW28777   3.981   6.168   0.484  0.3237 -0.3205  0.0958
 7977SOL    HW128778   3.980   6.243   0.424 -0.8672 -0.4028 -0.0031
 7977SOL    HW228779   3.890   6.139   0.488  0.8006 -1.8667  0.0154
 7978SOL     OW28780   2.595   4.767   1.430 -0.5459 -0.1487  0.5313
 7978SOL    HW128781   2.626   4.680   1.454  0.0719  0.3024  1.4268
 7978SOL    HW228782   2.505   4.753   1.402 -0.3377 -1.1258  0.3063
 7979SOL     OW28783   2.570   8.216   0.663 -0.3941 -0.2463  0.4917
 7979SOL    HW128784   2.624   8.270   0.721 -1.2746 -0.2907  1.3812
 7979SOL    HW228785   2.481   8.245   0.680 -0.6522  0.2155 -1.3547
 7980SOL     OW28786   4.313   3.161   1.107 -0.0228 -0.0826 -0.6205
 7980SOL    HW128787   4.314   3.106   1.029 -1.2701  0.6097 -1.1489
 7980SOL    HW228788   4.224   3.195   1.112  0.0418 -0.0717  1.0963
 7981SOL     OW28789   2.540   4.379   0.847  0.7362 -0.5148  0.3163
 7981SOL    HW128790   2.488   4.445   0.800  1.0588 -0.9061 -0.6022
 7981SOL    HW228791   2.486   4.300   0.845  0.3405 -0.2925  1.4357
 7982SOL     OW28792   4.653   4.515   1.243  0.0098  0.1522  0.0209
 7982SOL    HW128793   4.739   4.525   1.285 -0.3153  0.4001  0.6514
 7982SOL    HW228794   4.664   4.551   1.155  0.5390  0.2311  0.1189
 7983SOL     OW28795   3.168   5.263   2.167  0.4173  0.6883 -0.2416
 7983SOL    HW128796   3.110   5.339   2.169 -1.0067 -0.3628  0.5032
 7983SOL    HW228797   3.113   5.192   2.133  2.5762  0.6139 -4.2073
 7984SOL     OW28798   4.159   5.968   2.796 -0.0568  0.0725  0.5809
 7984SOL    HW128799   4.253   5.969   2.814 -0.0389  0.0118  0.4879
 7984SOL    HW228800   4.118   5.978   2.882  0.0425  1.3637  0.4979
 7985SOL     OW28801   0.917   5.026   8.925  0.3122  1.0223 -0.4841
 7985SOL    HW128802   0.865   5.086   8.871 -0.3494 -0.0074 -1.0317
 7985SOL    HW228803   0.858   5.002   8.997 -0.3435 -0.8241 -1.5681
 7986SOL     OW28804   0.458   2.985   8.044  0.0701 -0.2775 -0.0637
 7986SOL    HW128805   0.461   2.892   8.021 -1.6875 -0.6978  1.2034
 7986SOL    HW228806   0.446   2.986   8.139  1.0732  1.2851  0.0857
 7987SOL     OW28807   4.355   5.505   2.468 -0.1025  0.3351  0.0538
 7987SOL    HW128808   4.440   5.469   2.443  0.2683  0.5804  0.9157
 7987SOL    HW228809   4.335   5.570   2.402  1.7949  2.4236  1.4121
 7988SOL     OW28810   5.860   5.316   4.228 -0.1656  0.0601  0.5855
 7988SOL    HW128811   5.800   5.378   4.269  1.9282  1.5013  1.6366
 7988SOL    HW228812   5.946   5.356   4.239  1.4042 -3.3727  1.9685
 7989SOL     OW28813   0.994   4.783   1.605 -0.3908  0.0672  0.1523
 7989SOL    HW128814   1.018   4.720   1.673 -0.2087 -0.3219 -0.2686
 7989SOL    HW228815   0.994   4.868   1.649  0.6847 -0.0599  0.4162
 7990SOL     OW28816   3.248   5.945   7.383 -0.4496 -0.0653  0.7405
 7990SOL    HW128817   3.329   5.996   7.384 -0.6703  0.2771  1.3783
 7990SOL    HW228818   3.185   5.998   7.432 -0.6300 -1.0282  1.5902
 7991SOL     OW28819   1.790   1.574   1.420 -0.0594 -0.0736  0.1778
 7991SOL    HW128820   1.866   1.632   1.422 -0.1950  0.1508 -0.5945
 7991SOL    HW228821   1.735   1.603   1.493  0.9074 -0.7000  1.1876
 7992SOL     OW28822   1.699   5.394   0.008 -0.2230 -0.3170 -0.4432
 7992SOL    HW128823   1.671   5.309   0.043  0.7008  0.2740  1.8725
 7992SOL    HW228824   1.667   5.458   0.071  1.6415  0.7915 -0.5508
 7993SOL     OW28825   0.588   4.787   1.707  0.2712  0.0478  0.3377
 7993SOL    HW128826   0.634   4.748   1.633  0.6609  0.2771  0.4563
 7993SOL    HW228827   0.495   4.777   1.685  0.3839  0.9531 -0.6281
 7994SOL     OW28828   2.682   7.056   0.244  0.2621 -0.0551  0.1247
 7994SOL    HW128829   2.668   7.025   0.155  1.1698 -1.5370  0.4485
 7994SOL    HW228830   2.771   7.092   0.243  0.7339 -1.1544  0.6766
 7995SOL     OW28831   4.565   5.630   1.507 -0.1727 -0.4456 -0.0074
 7995SOL    HW128832   4.594   5.572   1.436 -1.0396 -0.7093 -0.1539
 7995SOL    HW228833   4.479   5.661   1.478 -0.3447 -0.2238  0.7420
 7996SOL     OW28834   0.632   3.581   1.874 -0.6013  0.1429  0.2991
 7996SOL    HW128835   0.550   3.543   1.906 -0.7301  0.2045  0.0487
 7996SOL    HW228836   0.617   3.676   1.879 -0.9129  0.1600 -0.6496
 7997SOL     OW28837   2.182   3.956   2.497 -0.5657 -0.0454 -0.7080
 7997SOL    HW128838   2.136   3.959   2.581  1.2724 -1.0043  0.3926
 7997SOL    HW228839   2.136   3.887   2.447 -3.4418  2.3721 -1.7035
 7998SOL     OW28840   3.846   6.762   1.879  0.2952 -0.0688  0.3143
 7998SOL    HW128841   3.783   6.757   1.951 -0.7237  1.8047 -0.3712
 7998SOL    HW228842   3.835   6.850   1.844  1.7965 -0.4405 -1.2276
 7999SOL     OW28843   2.278   6.388   0.225 -0.1249 -0.1079  0.8699
 7999SOL    HW128844   2.262   6.295   0.238  1.1909 -0.6773 -1.1253
 7999SOL    HW228845   2.241   6.408   0.139  2.4255  0.3628 -0.2317
 8000SOL     OW28846   2.321   3.545   9.755  0.3186  0.2118  0.1203
 8000SOL    HW128847   2.409   3.580   9.757  0.2811  0.3255 -0.2771
 8000SOL    HW228848   2.301   3.526   9.847  0.7228  0.2612  0.2191
 8001SOL     OW28849   2.679   3.765   3.747  0.1202  0.1075 -0.2876
 8001SOL    HW128850   2.621   3.725   3.682 -1.7559  1.5010  0.4399
 8001SOL    HW228851   2.620   3.790   3.819  1.8923  0.0923  1.2230
 8002SOL     OW28852   2.005   4.030   1.005 -0.3589 -0.2847 -0.2022
 8002SOL    HW128853   1.957   4.003   0.927  0.8489 -2.5062 -0.2791
 8002SOL    HW228854   1.944   4.010   1.077 -1.0327  0.6719 -0.4915
 8003SOL     OW28855   4.682   5.068   4.038  0.2567  0.6387  0.1912
 8003SOL    HW128856   4.622   5.071   3.963 -1.6069  2.5300  1.6233
 8003SOL    HW228857   4.713   5.158   4.047  2.1924 -0.0172  0.4147
 8004SOL     OW28858   1.455   4.468   1.577 -0.0274  0.1888 -0.1275
 8004SOL    HW128859   1.413   4.514   1.504 -2.3693  0.0553  1.0307
 8004SOL    HW228860   1.546   4.497   1.575 -0.4805  1.6923 -1.8856
 8005SOL     OW28861   2.936   3.234   4.285  0.1219 -0.4291  0.5638
 8005SOL    HW128862   2.861   3.275   4.327  0.3717 -0.3449  0.9348
 8005SOL    HW228863   2.903   3.150   4.253 -0.3525 -0.0028 -0.0692
 8006SOL     OW28864   0.951   4.403   1.837  0.0093  0.3978 -0.3799
 8006SOL    HW128865   0.991   4.490   1.832  1.1807  0.0987  2.3648
 8006SOL    HW228866   0.911   4.400   1.924  0.1197 -1.8842 -0.3612
 8007SOL     OW28867   3.989   6.196   0.024  0.2002  0.1732 -0.6684
 8007SOL    HW128868   4.001   6.177  -0.069  0.7682  1.7643 -0.9623
 8007SOL    HW228869   3.908   6.247   0.028  0.6407  0.8704 -0.4238
 8008SOL     OW28870   1.650   3.077   1.298  0.0624 -0.5664  0.5754
 8008SOL    HW128871   1.716   3.081   1.229  0.0526  0.2280  0.6081
 8008SOL    HW228872   1.700   3.081   1.380  0.1778 -2.7263  0.6796
 8009SOL     OW28873   2.898   4.880   1.501 -0.0301 -0.6930 -0.3143
 8009SOL    HW128874   2.953   4.910   1.428  0.0207  1.2504  0.4463
 8009SOL    HW228875   2.849   4.806   1.466 -0.0430  0.2072 -2.3587
 8010SOL     OW28876   3.441   5.434   1.071  0.1487  0.7116 -0.4151
 8010SOL    HW128877   3.368   5.372   1.074  0.2503  0.5546 -1.0421
 8010SOL    HW228878   3.406   5.514   1.110 -0.1227  0.4040 -0.0192
 8011SOL     OW28879   2.853   4.169   9.518  0.3756  0.2338 -0.1724
 8011SOL    HW128880   2.803   4.147   9.596  1.2906  2.3776  1.0986
 8011SOL    HW228881   2.835   4.261   9.502  1.9667  0.4269 -1.1362
 8012SOL     OW28882   2.869   2.718   2.326  0.0294 -0.1962  0.0970
 8012SOL    HW128883   2.827   2.672   2.398  1.7736  1.7128  2.4749
 8012SOL    HW228884   2.927   2.652   2.286 -0.3032 -1.0374  0.9611
 8013SOL     OW28885   3.245   6.001   0.066  0.3897  0.5927  0.1904
 8013SOL    HW128886   3.195   6.075   0.099  0.6353  0.0835  1.7810
 8013SOL    HW228887   3.180   5.944   0.026 -0.3969 -0.1598  2.4055
 8014SOL     OW28888   5.608   4.647   3.704 -0.0702 -0.1877  0.1420
 8014SOL    HW128889   5.555   4.589   3.760 -1.5625 -0.4056 -1.3954
 8014SOL    HW228890   5.643   4.589   3.637 -0.6637  0.4964 -0.7764
 8015SOL     OW28891   3.910   6.110   1.244 -0.1529  0.0132  0.2235
 8015SOL    HW128892   3.909   6.016   1.229 -0.3843  0.0298  0.1385
 8015SOL    HW228893   3.913   6.149   1.157 -3.6337  0.1581  0.0285
 8016SOL     OW28894   3.914   7.916   8.612  0.3429  0.4228  0.5988
 8016SOL    HW128895   3.978   7.934   8.680  0.3262 -0.3670  0.8416
 8016SOL    HW228896   3.964   7.914   8.530  0.5834  0.0822  0.7532
 8017SOL     OW28897   1.641   3.841   2.318 -0.5748  0.6377  0.4068
 8017SOL    HW128898   1.709   3.903   2.345  0.2136 -0.5885  1.3228
 8017SOL    HW228899   1.608   3.803   2.399 -0.1451 -1.0672 -0.1746
 8018SOL     OW28900   4.110   5.151   3.541  0.0199  0.2202 -0.3228
 8018SOL    HW128901   4.180   5.140   3.605 -0.9854  0.0961  0.7875
 8018SOL    HW228902   4.041   5.198   3.589 -0.5620  0.5662 -1.4624
 8019SOL     OW28903   3.881   5.228   8.471 -0.0079  0.0213  0.0008
 8019SOL    HW128904   3.935   5.266   8.541  1.0312 -1.7862  0.2392
 8019SOL    HW228905   3.909   5.275   8.392  0.3274  0.6173  0.4566
 8020SOL     OW28906   4.499   6.209   6.883  0.7295 -0.0033  0.0918
 8020SOL    HW128907   4.519   6.204   6.789 -1.6946  3.4809 -0.8161
 8020SOL    HW228908   4.584   6.199   6.926  2.2967  0.6694 -2.5922
 8021SOL     OW28909   3.745   4.199   0.904  1.0631  0.6360  0.6675
 8021SOL    HW128910   3.731   4.283   0.859  0.4666  0.4536  0.5138
 8021SOL    HW228911   3.799   4.148   0.844  1.3126  0.8558  0.7025
 8022SOL     OW28912   1.770   4.879   1.078  0.2182 -0.3630 -0.6560
 8022SOL    HW128913   1.713   4.809   1.112  0.6846 -0.4775 -0.0966
 8022SOL    HW228914   1.716   4.924   1.014 -0.9508  0.3103  0.7373
 8023SOL     OW28915   2.788   3.508   1.246 -0.2369 -0.1902  0.2578
 8023SOL    HW128916   2.856   3.477   1.306  0.2429  1.4902  0.6263
 8023SOL    HW228917   2.707   3.504   1.298 -0.4550 -2.0343 -0.1320
 8024SOL     OW28918   3.396   2.647   0.251  0.2603  0.9367  0.2964
 8024SOL    HW128919   3.357   2.584   0.192  1.0045  0.4999  0.2611
 8024SOL    HW228920   3.338   2.648   0.327 -0.8248  1.6693 -0.5102
 8025SOL     OW28921   2.336   4.555   8.049  0.3594  0.0178 -0.1211
 8025SOL    HW128922   2.277   4.557   7.974  0.2344  0.9066 -0.0192
 8025SOL    HW228923   2.362   4.464   8.057  1.4307  0.0850 -2.0816
 8026SOL     OW28924   3.697   6.412   1.831  0.0262  0.3908  0.2206
 8026SOL    HW128925   3.602   6.401   1.827 -0.0881  1.4653 -0.2782
 8026SOL    HW228926   3.718   6.414   1.925 -0.7026  2.0541  0.3871
 8027SOL     OW28927   0.495   6.386   2.729  0.5358  0.0703 -0.1554
 8027SOL    HW128928   0.419   6.381   2.671  1.3558  0.6271 -1.3296
 8027SOL    HW228929   0.480   6.320   2.796 -0.4708 -0.5650 -0.9908
 8028SOL     OW28930   1.091   5.565   1.792  0.1141  0.1005 -0.0798
 8028SOL    HW128931   1.174   5.556   1.838  0.9653  0.1293 -1.5457
 8028SOL    HW228932   1.102   5.643   1.737 -0.7164 -0.1429 -0.6153
 8029SOL     OW28933   2.754   4.337   2.973 -0.2871 -0.7526  0.5278
 8029SOL    HW128934   2.720   4.255   3.008  1.6769 -1.3057  1.2262
 8029SOL    HW228935   2.815   4.369   3.039 -0.0783  0.6327 -0.2887
 8030SOL     OW28936   2.837   2.989   9.165 -0.1641  0.3714 -0.5991
 8030SOL    HW128937   2.767   3.046   9.198  0.7774  2.8678 -2.5860
 8030SOL    HW228938   2.804   2.959   9.080  0.5482  0.3169 -0.8603
 8031SOL     OW28939   2.974   3.758   2.979 -0.5567  0.1224 -0.7001
 8031SOL    HW128940   2.992   3.671   2.942 -0.1869  0.6253 -1.7396
 8031SOL    HW228941   3.036   3.766   3.051 -1.1639 -0.8027 -0.0540
 8032SOL     OW28942   2.543   5.008   1.317  0.0437  0.4248 -0.2846
 8032SOL    HW128943   2.573   4.928   1.361 -0.8919 -1.3929 -2.6837
 8032SOL    HW228944   2.458   5.027   1.358  0.9909  1.1806  1.3954
 8033SOL     OW28945   1.967   3.270   0.644 -0.0985 -0.0496 -0.2701
 8033SOL    HW128946   1.917   3.301   0.719  0.1988 -1.1977  0.4380
 8033SOL    HW228947   1.905   3.269   0.572 -1.1816 -1.6012  0.6268
 8034SOL     OW28948   1.659   3.437   4.092  0.1269 -0.1612  0.1170
 8034SOL    HW128949   1.583   3.399   4.048  1.9884 -3.1102 -0.8896
 8034SOL    HW228950   1.689   3.505   4.032 -1.9712  1.4589  0.8135
 8035SOL     OW28951   3.787   3.262   0.838 -0.0282 -0.9936 -0.4065
 8035SOL    HW128952   3.840   3.250   0.759 -0.3210 -0.3636 -0.7055
 8035SOL    HW228953   3.725   3.331   0.815 -1.4096 -2.1651 -0.2820
 8036SOL     OW28954   8.419   5.645   1.350  0.1307 -0.6612 -0.3349
 8036SOL    HW128955   8.480   5.682   1.286 -0.7182 -1.4170 -1.6364
 8036SOL    HW228956   8.363   5.586   1.299  0.1912 -2.2534  1.3044
 8037SOL     OW28957   2.574   4.582   7.532 -0.7783 -0.3023  0.0925
 8037SOL    HW128958   2.555   4.608   7.442 -0.2326  0.5399  0.2041
 8037SOL    HW228959   2.511   4.630   7.585  0.0261  0.5856  0.2770
 8038SOL     OW28960   0.701   4.770   0.412 -0.7074  0.1422  0.1080
 8038SOL    HW128961   0.699   4.728   0.498  1.9998 -0.5653 -0.0772
 8038SOL    HW228962   0.747   4.853   0.427  0.1696 -0.1803 -0.7005
 8039SOL     OW28963   1.901   2.515   1.261  0.8019 -0.2135 -0.4303
 8039SOL    HW128964   1.861   2.490   1.345 -0.1486  1.1608 -0.4375
 8039SOL    HW228965   1.921   2.431   1.218  1.2643 -0.9457  1.1294
 8040SOL     OW28966   1.466   3.409   3.888  0.2490 -0.7307 -0.2028
 8040SOL    HW128967   1.452   3.501   3.868 -2.7473 -0.5808  1.9343
 8040SOL    HW228968   1.475   3.367   3.803 -1.4695  1.1474 -1.3943
 8041SOL     OW28969   1.919   5.550   2.872 -0.3796  0.6023  0.4149
 8041SOL    HW128970   1.965   5.608   2.933  1.6096 -0.4444  0.0258
 8041SOL    HW228971   1.863   5.496   2.928  0.4633  0.5118  1.2019
 8042SOL     OW28972   3.181   4.539   2.774  0.1033  0.5681 -0.0739
 8042SOL    HW128973   3.195   4.445   2.765  0.1755  0.6325 -0.6748
 8042SOL    HW228974   3.236   4.578   2.706  0.2237  1.0559  0.2952
 8043SOL     OW28975   2.839   4.045   1.641 -0.5844 -0.8140  0.2410
 8043SOL    HW128976   2.846   4.027   1.548 -0.4591 -2.2415  0.4991
 8043SOL    HW228977   2.817   3.961   1.680 -1.8306 -0.0087  1.3840
 8044SOL     OW28978   4.136   3.668   4.917  0.5200  0.1930  0.3327
 8044SOL    HW128979   4.053   3.655   4.872  1.3608 -1.3872 -0.8619
 8044SOL    HW228980   4.161   3.580   4.948  2.1176  0.4798 -0.0407
 8045SOL     OW28981   5.056   6.714   3.530  0.2524 -0.5096 -0.0017
 8045SOL    HW128982   5.097   6.779   3.472 -0.8716  0.4891  0.2610
 8045SOL    HW228983   5.111   6.714   3.609 -0.4216  1.1283  0.5243
 8046SOL     OW28984   2.128   3.428   2.606  0.0938 -0.1444  0.4779
 8046SOL    HW128985   2.109   3.503   2.549 -2.3183 -1.1291 -0.1738
 8046SOL    HW228986   2.115   3.352   2.549 -0.4695 -1.1129  1.8597
 8047SOL     OW28987   2.444   7.104   2.306 -0.3338 -0.0314 -0.4421
 8047SOL    HW128988   2.537   7.082   2.304  0.2577  2.2603 -0.8217
 8047SOL    HW228989   2.408   7.064   2.226  0.6472  0.2861 -1.0585
 8048SOL     OW28990   2.234   3.806   4.123  0.4155  0.1140 -0.4822
 8048SOL    HW128991   2.318   3.762   4.132 -0.0732 -0.8609 -0.4915
 8048SOL    HW228992   2.178   3.765   4.189 -0.4933 -0.4140 -1.5282
 8049SOL     OW28993   3.141   4.966   3.244 -0.1379  0.2163  0.0945
 8049SOL    HW128994   3.110   4.888   3.290  2.1501 -0.4879  0.5420
 8049SOL    HW228995   3.110   5.039   3.297 -2.7738 -0.2662 -0.6083
 8050SOL     OW28996   2.794   4.674   1.237  0.8727 -0.4382  0.7663
 8050SOL    HW128997   2.809   4.753   1.185 -0.5568  0.8049  2.1176
 8050SOL    HW228998   2.714   4.693   1.286 -1.4043 -3.9621 -1.1529
 8051SOL     OW28999   1.697   4.006   3.002  0.1412 -0.4173 -0.4588
 8051SOL    HW129000   1.654   3.931   2.961 -1.1357 -0.3918  0.7282
 8051SOL    HW229001   1.776   3.969   3.042 -1.1923 -1.5218  1.3722
 8052SOL     OW29002   3.979   3.053   2.897 -0.4266  0.2877  0.1155
 8052SOL    HW129003   3.968   3.111   2.822 -2.2502  0.7599  0.7001
 8052SOL    HW229004   4.067   3.072   2.929 -0.1277  1.0509 -1.0748
 8053SOL     OW29005   1.612   5.514   1.935  0.3377  0.3906 -0.3343
 8053SOL    HW129006   1.670   5.564   1.878  0.9296  0.5297  0.3776
 8053SOL    HW229007   1.559   5.580   1.980  1.1317  0.3975  0.6177
 8054SOL     OW29008   4.366   5.596   4.067  0.2128  0.0371  0.5205
 8054SOL    HW129009   4.317   5.518   4.041  1.3118 -0.4051 -0.2677
 8054SOL    HW229010   4.428   5.564   4.133 -0.3304  0.5346  1.2856
 8055SOL     OW29011   2.231   6.622   2.258 -0.1322  0.2230 -0.4536
 8055SOL    HW129012   2.203   6.683   2.189  0.4958 -1.6169 -2.4608
 8055SOL    HW229013   2.327   6.626   2.256 -0.1055 -0.0711  0.0943
 8056SOL     OW29014   2.929   2.905   1.977 -0.0559  0.6954 -0.1548
 8056SOL    HW129015   3.024   2.897   1.977 -0.1978 -2.6834  1.1649
 8056SOL    HW229016   2.900   2.850   1.905 -1.0327  1.1423 -0.1195
 8057SOL     OW29017   3.353   4.451   4.222  0.0153  0.2668 -0.7889
 8057SOL    HW129018   3.288   4.382   4.232 -0.1639  0.4277 -0.8423
 8057SOL    HW229019   3.437   4.404   4.218  0.1009  0.1842  1.2785
 8058SOL     OW29020   5.256   3.110   4.540 -0.3719  0.2215  0.5246
 8058SOL    HW129021   5.287   3.022   4.561 -0.8818  0.2676  1.5130
 8058SOL    HW229022   5.182   3.095   4.480 -1.5701 -0.1350  2.0261
 8059SOL     OW29023   1.235   4.777   2.738 -0.5748  0.1395 -0.4345
 8059SOL    HW129024   1.158   4.813   2.783 -1.1695 -1.6987  0.0989
 8059SOL    HW229025   1.283   4.729   2.805  0.0076 -0.3367 -1.1702
 8060SOL     OW29026   2.759   5.684   2.276 -0.4752  0.3085  0.6809
 8060SOL    HW129027   2.700   5.620   2.236  0.1363  0.7498 -1.0337
 8060SOL    HW229028   2.702   5.754   2.307 -1.0753 -0.6418  1.8251
 8061SOL     OW29029   3.984   4.031   2.389 -0.0748  0.7773  0.1610
 8061SOL    HW129030   4.078   4.014   2.382 -0.5793 -2.8689  0.2558
 8061SOL    HW229031   3.944   3.957   2.345 -2.9538  1.6260  1.1589
 8062SOL     OW29032   0.598   5.188   1.397 -0.6394  0.1397 -0.2512
 8062SOL    HW129033   0.560   5.125   1.336 -0.4086 -0.1030 -0.1460
 8062SOL    HW229034   0.672   5.141   1.437  0.3529  0.9001 -1.1236
 8063SOL     OW29035   1.009   3.834   2.258 -0.1980  0.8016 -0.3116
 8063SOL    HW129036   1.052   3.752   2.233  0.0851  0.6687  0.5620
 8063SOL    HW229037   1.076   3.882   2.307 -1.0499  0.5441  1.1756
 8064SOL     OW29038   0.266   3.206   2.011 -0.4536  0.6938 -0.2166
 8064SOL    HW129039   0.313   3.164   1.939 -0.0677 -1.1414  1.0531
 8064SOL    HW229040   0.181   3.161   2.014  0.1102 -0.3535  1.4025
 8065SOL     OW29041   2.150   5.105   5.122  0.3034 -0.3697 -0.7372
 8065SOL    HW129042   2.105   5.021   5.108 -0.8787  0.0978  0.1068
 8065SOL    HW229043   2.148   5.117   5.217 -0.8629  1.3052 -0.9431
 8066SOL     OW29044   1.419   6.776   1.460 -0.9625 -1.0065  0.5109
 8066SOL    HW129045   1.376   6.757   1.543 -0.2687 -1.5816  0.7485
 8066SOL    HW229046   1.491   6.713   1.455 -0.4658 -0.4012 -0.1191
 8067SOL     OW29047   3.210   4.060   2.436  0.2541 -0.6147  0.6862
 8067SOL    HW129048   3.147   4.067   2.508 -0.5590  0.1858 -0.0742
 8067SOL    HW229049   3.159   4.026   2.363  1.2928 -2.3623  0.7287
 8068SOL     OW29050   5.251   3.368   2.582  0.5349  0.1005 -0.1093
 8068SOL    HW129051   5.306   3.445   2.598 -0.0236  0.2019  1.6481
 8068SOL    HW229052   5.176   3.401   2.533 -0.9042  1.2959  2.6372
 8069SOL     OW29053   3.640   7.114   1.613  0.7449  0.1589 -0.4088
 8069SOL    HW129054   3.717   7.171   1.613  0.3536  0.7031 -0.6023
 8069SOL    HW229055   3.669   7.033   1.572  1.0739  0.5566 -0.9708
 8070SOL     OW29056   5.152   6.507   1.477  0.4466 -0.0874 -0.2954
 8070SOL    HW129057   5.163   6.433   1.537  0.5981 -0.5086 -0.8320
 8070SOL    HW229058   5.130   6.581   1.534 -0.2509 -0.6610  0.2022
 8071SOL     OW29059   2.869   4.367   3.216  1.0339  0.0819 -0.3600
 8071SOL    HW129060   2.895   4.381   3.308  1.4681  1.2152 -0.6260
 8071SOL    HW229061   2.775   4.382   3.215  0.4902 -2.7576  0.3817
 8072SOL     OW29062   5.455   5.763   4.106  0.0845 -0.0078  0.2641
 8072SOL    HW129063   5.395   5.748   4.033 -0.1802  1.5890  0.1000
 8072SOL    HW229064   5.540   5.774   4.065 -0.0658  0.8985  0.1663
 8073SOL     OW29065   1.530   6.629   0.842  0.0357  0.1029  0.0924
 8073SOL    HW129066   1.532   6.724   0.842  0.5623  0.1012  0.5764
 8073SOL    HW229067   1.443   6.606   0.810  0.7617  0.7140 -2.6147
 8074SOL     OW29068   2.644   5.149   3.169 -0.2859 -0.1846 -0.1044
 8074SOL    HW129069   2.649   5.089   3.243  0.2397 -0.0867 -0.0579
 8074SOL    HW229070   2.689   5.228   3.199  0.1364 -0.2269 -0.6062
 8075SOL     OW29071   2.887   3.786   4.820  0.3035  0.2595  0.3939
 8075SOL    HW129072   2.864   3.877   4.842  1.4012  0.5334  0.4342
 8075SOL    HW229073   2.805   3.748   4.788  0.2303  1.7862 -1.3983
 8076SOL     OW29074   5.709   5.039   1.382 -0.4799  0.4512 -0.7210
 8076SOL    HW129075   5.705   4.980   1.457 -0.4544  0.5999 -0.6016
 8076SOL    HW229076   5.776   5.104   1.406  1.0511 -0.6697 -1.7079
 8077SOL     OW29077   2.460   5.317   2.939  0.2521 -0.1753 -0.0047
 8077SOL    HW129078   2.456   5.272   3.023  0.5495  0.2599  0.2486
 8077SOL    HW229079   2.467   5.410   2.962 -1.7251  0.1392 -0.5148
 8078SOL     OW29080   7.671   2.280   4.715  0.3903  0.4048 -0.8834
 8078SOL    HW129081   7.766   2.285   4.724  0.2494 -0.2654  3.2874
 8078SOL    HW229082   7.638   2.362   4.751 -0.5959  0.0874 -1.0132
 8079SOL     OW29083   3.105   4.232   4.271 -0.4199 -0.2702 -0.1017
 8079SOL    HW129084   3.126   4.181   4.350  0.4897 -1.5877 -1.1532
 8079SOL    HW229085   3.142   4.181   4.199 -1.5390  0.7228 -1.4356
 8080SOL     OW29086   0.558   5.966   2.654 -0.0352 -0.2163  0.5479
 8080SOL    HW129087   0.519   6.048   2.682  1.0184  0.4573  0.1226
 8080SOL    HW229088   0.489   5.901   2.664 -1.2557  0.9282 -0.2190
 8081SOL     OW29089   2.674   0.746   3.745  0.3035 -0.3370 -0.3438
 8081SOL    HW129090   2.724   0.826   3.763  2.2903 -1.0776 -2.1178
 8081SOL    HW229091   2.645   0.716   3.831  1.7496  0.9122  0.6413
 8082SOL     OW29092   1.670   2.642   3.475  0.2220 -0.0227 -0.2526
 8082SOL    HW129093   1.746   2.698   3.494 -1.1499  1.3788  1.3949
 8082SOL    HW229094   1.686   2.562   3.524 -1.3519  1.9895  3.9986
 8083SOL     OW29095   3.726   2.818   4.962 -0.7823  0.0185 -0.1556
 8083SOL    HW129096   3.654   2.881   4.974 -0.9250  0.1733 -1.6245
 8083SOL    HW229097   3.684   2.741   4.923 -0.1219  0.2406 -1.3570
 8084SOL     OW29098   2.094   3.166   0.939 -0.5224  0.1469 -0.3161
 8084SOL    HW129099   2.096   3.258   0.911 -1.1124  0.8373  1.7129
 8084SOL    HW229100   2.019   3.129   0.892 -0.7507  0.9106 -0.5757
 8085SOL     OW29101   3.874   8.168   2.559 -0.0620 -0.1449 -0.2491
 8085SOL    HW129102   3.848   8.093   2.505 -1.7744  0.4649 -0.3101
 8085SOL    HW229103   3.927   8.130   2.629  0.5473 -1.1862 -1.2405
 8086SOL     OW29104   5.629   5.331   3.342  0.2361  0.0799 -0.1393
 8086SOL    HW129105   5.611   5.264   3.409  0.1939 -0.1505 -0.3801
 8086SOL    HW229106   5.561   5.317   3.276  1.4907 -1.0355 -1.2459
 8087SOL     OW29107   3.816   6.535   2.153  0.3486  0.3958  0.2187
 8087SOL    HW129108   3.761   6.614   2.150  1.2384  1.0013 -0.9821
 8087SOL    HW229109   3.755   6.463   2.133  0.1536  1.1926 -2.5415
 8088SOL     OW29110   0.832   4.912   4.151 -0.0620  0.5799 -0.4464
 8088SOL    HW129111   0.871   4.828   4.128 -2.1524 -0.2951 -1.0652
 8088SOL    HW229112   0.829   4.961   4.068 -0.0826  0.7088 -0.3700
 8089SOL     OW29113   3.877   4.796   0.839 -0.0175  0.7057  0.5061
 8089SOL    HW129114   3.864   4.817   0.746  2.0199 -0.0899 -0.0184
 8089SOL    HW229115   3.800   4.743   0.862  0.6375 -1.3264 -1.5112
 8090SOL     OW29116   1.904   5.207   2.307 -0.2794 -0.8463  0.4486
 8090SOL    HW129117   1.821   5.254   2.294  1.3877  2.4390  0.8111
 8090SOL    HW229118   1.929   5.227   2.397  2.4682  1.0532 -0.6377
 8091SOL     OW29119   0.977   4.216   9.364  0.6112 -0.2905  0.1123
 8091SOL    HW129120   0.952   4.128   9.392  0.6481 -0.0256  1.0094
 8091SOL    HW229121   0.905   4.244   9.307  0.9289 -1.1557 -0.7491
 8092SOL     OW29122   1.970   7.440   3.294 -0.0837 -0.3383  0.6523
 8092SOL    HW129123   1.940   7.457   3.204  0.5121  1.0738  0.6956
 8092SOL    HW229124   2.016   7.520   3.319  3.4268 -2.1356  0.7049
 8093SOL     OW29125   5.318   5.582   2.117 -0.1333 -0.4680 -0.1209
 8093SOL    HW129126   5.318   5.677   2.130 -0.4175 -0.3644 -0.8324
 8093SOL    HW229127   5.374   5.569   2.040  1.5801 -1.0636  1.1532
 8094SOL     OW29128   2.486   6.687   3.745  0.0983  0.6955 -0.0815
 8094SOL    HW129129   2.478   6.610   3.688 -0.9509 -0.3635  1.4205
 8094SOL    HW229130   2.549   6.660   3.811  0.8130  1.6825 -0.3392
 8095SOL     OW29131   4.626   5.082   9.823  0.6170 -1.0774 -0.2714
 8095SOL    HW129132   4.660   5.032   9.748 -0.1354  0.9366 -2.0786
 8095SOL    HW229133   4.695   5.146   9.842 -0.3428  0.2901 -1.1957
 8096SOL     OW29134   2.976   4.506   1.845 -0.0374  0.1744  0.1147
 8096SOL    HW129135   2.993   4.492   1.751 -0.2838  1.5895 -0.1578
 8096SOL    HW229136   2.881   4.503   1.852 -0.0993  1.4787  0.0594
 8097SOL     OW29137   2.646   2.785   3.467  0.0273 -0.5918  0.2039
 8097SOL    HW129138   2.714   2.718   3.470 -0.6975 -1.3629 -0.1500
 8097SOL    HW229139   2.612   2.781   3.378 -0.0993  0.1666  0.2181
 8098SOL     OW29140   2.349   4.318   3.247 -0.6136  0.3427  0.1809
 8098SOL    HW129141   2.264   4.274   3.243 -0.2096 -0.5559  1.1161
 8098SOL    HW229142   2.403   4.273   3.182  0.1232 -1.3384  1.8601
 8099SOL     OW29143   1.118   5.767   2.211 -0.2515  0.3921 -0.2053
 8099SOL    HW129144   1.173   5.841   2.237  1.6302 -2.5155  6.1880
 8099SOL    HW229145   1.180   5.696   2.194 -2.0165 -0.9314 -1.4324
 8100SOL     OW29146   3.048   4.770   0.933 -0.6637  0.3730 -0.1216
 8100SOL    HW129147   3.137   4.780   0.898 -0.3084 -0.1176  0.6274
 8100SOL    HW229148   3.016   4.689   0.893 -0.4642  0.1066  0.2597
 8101SOL     OW29149   3.349   4.171   0.719  0.2992 -0.2461  0.0116
 8101SOL    HW129150   3.321   4.209   0.802 -1.5459 -0.9910 -0.2307
 8101SOL    HW229151   3.341   4.076   0.733 -0.1095 -0.3702 -1.0443
 8102SOL     OW29152   1.401   4.965   2.649 -0.1696  0.3212 -0.0752
 8102SOL    HW129153   1.406   4.974   2.554 -1.3162  1.0896 -0.0761
 8102SOL    HW229154   1.323   4.911   2.664 -3.3887  4.6328  0.5556
 8103SOL     OW29155   2.301   3.608   3.823 -0.4149  0.5603  0.3820
 8103SOL    HW129156   2.336   3.610   3.912  1.1344  0.1588 -0.1697
 8103SOL    HW229157   2.343   3.532   3.783 -3.3934 -1.0916  0.1631
 8104SOL     OW29158   4.034   5.498   4.248 -0.0157  0.2252 -0.2707
 8104SOL    HW129159   3.940   5.506   4.230 -0.4550  1.1772  2.0618
 8104SOL    HW229160   4.074   5.565   4.193 -0.8034  0.4101 -0.6403
 8105SOL     OW29161   4.154   5.117   2.855 -0.0707  0.3099 -0.7004
 8105SOL    HW129162   4.146   5.212   2.850  1.5617  0.4784 -0.7069
 8105SOL    HW229163   4.065   5.084   2.845 -0.7065  1.8520 -0.2880
 8106SOL     OW29164   1.674   5.200   1.825  0.4454  0.3034  0.1899
 8106SOL    HW129165   1.749   5.229   1.877 -0.0136  0.4454  0.7761
 8106SOL    HW229166   1.713   5.169   1.743  1.1293  0.5521  0.4115
 8107SOL     OW29167   2.704   1.539   9.553  0.5614 -0.1279  0.4321
 8107SOL    HW129168   2.675   1.540   9.462  0.4198 -2.3354  0.3996
 8107SOL    HW229169   2.755   1.459   9.561 -0.5269 -0.6679  2.6339
 8108SOL     OW29170   0.743   1.615   8.969  0.1135  0.3801  0.0231
 8108SOL    HW129171   0.800   1.579   8.901  2.0623 -1.1809  2.2791
 8108SOL    HW229172   0.681   1.545   8.988 -0.2854  0.7238 -0.0106
 8109SOL     OW29173   3.649   5.321   1.494 -0.0870  0.7111  0.2272
 8109SOL    HW129174   3.650   5.270   1.413  0.7895 -0.7726  1.1143
 8109SOL    HW229175   3.588   5.274   1.551 -0.5153  1.6046  0.5273
 8110SOL     OW29176   1.990   2.791   1.270 -0.0564 -0.5547 -0.0693
 8110SOL    HW129177   1.993   2.812   1.363 -2.2372  0.4361 -0.1493
 8110SOL    HW229178   1.945   2.706   1.266 -1.6876  0.2658 -0.2369
 8111SOL     OW29179   1.588   2.066   2.364 -0.6598  0.6023 -0.1845
 8111SOL    HW129180   1.514   2.087   2.420 -1.5425 -1.4172 -0.4942
 8111SOL    HW229181   1.660   2.051   2.426 -0.5665  2.2230  0.1355
 8112SOL     OW29182   4.098   4.405   2.211 -0.2385  0.2973  0.0345
 8112SOL    HW129183   4.168   4.440   2.155  0.4738 -1.9650 -0.5735
 8112SOL    HW229184   4.140   4.336   2.262 -1.9033 -0.7608  0.0506
 8113SOL     OW29185   7.493   7.332   2.145 -0.0174 -0.0512 -0.7537
 8113SOL    HW129186   7.514   7.368   2.058 -0.4296  0.6349 -0.5729
 8113SOL    HW229187   7.534   7.393   2.207  0.3518 -0.5904 -0.4612
 8114SOL     OW29188   3.698   4.025   2.104 -0.5479 -0.9829 -0.2415
 8114SOL    HW129189   3.743   4.074   2.035 -0.5082 -2.2708 -1.1607
 8114SOL    HW229190   3.605   4.035   2.083 -0.5415 -1.2490 -0.4021
 8115SOL     OW29191   1.386   4.039   4.612 -0.1559  0.0129 -0.5982
 8115SOL    HW129192   1.345   4.125   4.609 -0.5472 -0.1696 -0.5993
 8115SOL    HW229193   1.347   3.991   4.539 -1.3636 -0.7772  0.5195
 8116SOL     OW29194   0.432   1.898   3.140 -0.5214 -0.1751 -0.4629
 8116SOL    HW129195   0.355   1.882   3.195  0.4511 -1.1698  0.6798
 8116SOL    HW229196   0.459   1.810   3.111  2.3212 -0.3927  2.2354
 8117SOL     OW29197   4.812   3.715   3.968  0.3774  0.0388 -0.1769
 8117SOL    HW129198   4.784   3.666   3.891 -1.0899  0.7876 -0.1656
 8117SOL    HW229199   4.882   3.772   3.936  2.2129 -2.0778 -0.1550
 8118SOL     OW29200   0.826   1.813   0.953  0.6017  0.3758  0.3201
 8118SOL    HW129201   0.857   1.894   0.994 -0.1859  1.2380 -0.7419
 8118SOL    HW229202   0.754   1.841   0.897 -1.0037 -1.3178  1.4162
 8119SOL     OW29203   1.546   2.771   2.397 -0.2655  0.3677  0.1420
 8119SOL    HW129204   1.526   2.753   2.305 -0.7376  0.7652  0.1615
 8119SOL    HW229205   1.509   2.697   2.445  1.1354 -0.5274 -0.0806
 8120SOL     OW29206   4.701   5.807   1.829 -0.3432 -0.1747 -1.0075
 8120SOL    HW129207   4.691   5.712   1.839  1.0180 -0.1419  1.4389
 8120SOL    HW229208   4.750   5.818   1.748 -0.7728 -1.5244 -1.4792
 8121SOL     OW29209   3.462   4.173   2.041  0.1971 -0.0726  0.0818
 8121SOL    HW129210   3.424   4.217   2.117 -0.1828  0.1767 -0.2464
 8121SOL    HW229211   3.456   4.238   1.970 -0.7304 -0.7784 -0.5092
 8122SOL     OW29212   2.512   3.614   0.789 -0.1484  0.7975 -0.1627
 8122SOL    HW129213   2.536   3.568   0.869  0.1055 -0.2684 -0.8300
 8122SOL    HW229214   2.534   3.706   0.807 -1.2289  0.7856  1.4071
 8123SOL     OW29215   3.118   4.087   2.142 -0.0447 -0.1624  0.0172
 8123SOL    HW129216   3.152   4.175   2.156 -1.9950  0.3890  2.0363
 8123SOL    HW229217   3.042   4.099   2.084 -1.0762 -0.2575  1.2866
 8124SOL     OW29218   2.340   5.708   2.443 -0.0093 -0.0323  0.5092
 8124SOL    HW129219   2.297   5.667   2.367  1.1352 -0.5181  0.1000
 8124SOL    HW229220   2.385   5.636   2.487 -2.0338 -0.0951  2.6991
 8125SOL     OW29221   2.786   3.938   3.361  0.0867 -0.4904  0.1983
 8125SOL    HW129222   2.858   3.984   3.318 -1.5768 -0.2591 -2.5638
 8125SOL    HW229223   2.721   4.006   3.379  0.4646 -0.6853  2.6973
 8126SOL     OW29224   4.188   1.737   0.946  0.0785  0.2641  0.0088
 8126SOL    HW129225   4.260   1.775   0.995  0.6313  1.1334 -1.4125
 8126SOL    HW229226   4.109   1.762   0.994  0.6639  0.1617  1.0261
 8127SOL     OW29227   2.752   4.701   2.068 -0.2066  0.1208 -0.0476
 8127SOL    HW129228   2.683   4.699   2.134 -1.2215 -0.9876 -1.0801
 8127SOL    HW229229   2.738   4.621   2.017  0.5735  0.9178 -1.5698
 8128SOL     OW29230   1.804   5.627   3.336 -0.2914 -0.0077  0.1961
 8128SOL    HW129231   1.853   5.654   3.259  0.6615 -1.4803  0.2485
 8128SOL    HW229232   1.726   5.683   3.336 -0.4603 -0.1551 -1.9874
 8129SOL     OW29233   4.480   5.817   9.711  0.3353  0.0138  0.2306
 8129SOL    HW129234   4.440   5.832   9.797 -0.6446  2.3484 -0.5610
 8129SOL    HW229235   4.408   5.783   9.657  0.4527  0.3419 -0.1354
 8130SOL     OW29236   3.255   3.916   0.830 -0.2932  0.3623  0.1476
 8130SOL    HW129237   3.185   3.860   0.797 -0.4787  0.6133  0.1152
 8130SOL    HW229238   3.245   3.914   0.925  0.9764 -1.3307  0.2927
 8131SOL     OW29239   1.716   5.364   3.280 -0.2062 -0.1924  0.3267
 8131SOL    HW129240   1.718   5.311   3.360  0.1071 -0.5224  0.1001
 8131SOL    HW229241   1.743   5.451   3.309  3.7794 -1.1159 -0.0153
 8132SOL     OW29242   6.313   8.007   0.290  0.1353  0.0728 -0.0482
 8132SOL    HW129243   6.268   8.012   0.205  0.7990 -0.7413 -0.4580
 8132SOL    HW229244   6.406   8.008   0.268  0.3246  0.8049  0.7443
 8133SOL     OW29245   3.993   3.985   8.609  0.0698 -0.0307  0.2293
 8133SOL    HW129246   4.074   4.011   8.653  0.2609  0.1670 -0.2298
 8133SOL    HW229247   3.944   4.066   8.597  1.1023  0.3329 -2.0852
 8134SOL     OW29248   4.295   3.797   2.055 -0.0120 -0.9528  0.2198
 8134SOL    HW129249   4.242   3.725   2.089 -1.7159 -0.3894 -1.0708
 8134SOL    HW229250   4.263   3.809   1.965 -1.2106  2.6155  0.9501
 8135SOL     OW29251   2.213   4.691   1.211 -0.1389 -0.2042 -0.0877
 8135SOL    HW129252   2.121   4.679   1.187 -0.2953 -1.5411  1.0175
 8135SOL    HW229253   2.221   4.784   1.230 -0.7649  0.3013 -2.0642
 8136SOL     OW29254   2.670   3.777   4.034 -0.6330  0.4057  0.0869
 8136SOL    HW129255   2.691   3.721   4.108 -0.4159  0.7641  0.3013
 8136SOL    HW229256   2.725   3.855   4.046  0.0972  0.0692 -0.9515
 8137SOL     OW29257   2.953   5.118   2.097  0.5783  0.5824 -0.5221
 8137SOL    HW129258   2.871   5.149   2.137  0.2795  0.7426 -1.2400
 8137SOL    HW229259   2.924   5.053   2.033  1.0489  0.3632 -0.5107
 8138SOL     OW29260   1.823   6.379   0.418  0.5128 -0.3149 -0.2555
 8138SOL    HW129261   1.800   6.400   0.328  1.4540  0.3222 -0.3690
 8138SOL    HW229262   1.900   6.434   0.436  0.8088 -1.0108  0.6750
 8139SOL     OW29263   2.183   6.863   5.223  0.0370 -0.4659 -0.0238
 8139SOL    HW129264   2.175   6.810   5.302  6.0983  0.1650  1.5192
 8139SOL    HW229265   2.206   6.950   5.255  1.0420  0.2509 -2.4687
 8140SOL     OW29266   1.946   2.760   3.468  0.4333 -0.9087 -0.1755
 8140SOL    HW129267   1.982   2.697   3.405  1.5234 -0.1954 -0.2856
 8140SOL    HW229268   2.022   2.810   3.498 -0.3637  0.1099  0.1902
 8141SOL     OW29269   1.978   6.309   2.558 -0.1822 -0.1276  0.4841
 8141SOL    HW129270   1.941   6.373   2.496  3.0892  0.4557 -1.1054
 8141SOL    HW229271   1.983   6.356   2.641 -0.6815  0.5983  0.1131
 8142SOL     OW29272   2.421   4.985   3.551  0.3939 -0.1765 -0.3113
 8142SOL    HW129273   2.369   5.061   3.576 -0.3257 -0.0711 -1.9931
 8142SOL    HW229274   2.386   4.913   3.603 -1.4438 -0.0951 -1.3852
 8143SOL     OW29275   1.536   6.454   1.813 -0.0909  0.5496  0.3830
 8143SOL    HW129276   1.558   6.485   1.725  0.8073 -0.9847  0.0455
 8143SOL    HW229277   1.448   6.489   1.828 -1.0463 -0.6284 -1.8779
 8144SOL     OW29278   2.910   4.405   4.897 -0.2680 -0.4771  0.1612
 8144SOL    HW129279   2.841   4.462   4.862  0.1588  0.2869  0.5314
 8144SOL    HW229280   2.863   4.340   4.949 -0.9251 -1.6652 -1.8026
 8145SOL     OW29281   2.963   5.670   3.548 -0.0609  0.6842 -0.7901
 8145SOL    HW129282   2.917   5.629   3.621  0.9901  2.3911  0.9586
 8145SOL    HW229283   3.047   5.698   3.585  0.2739  2.1595 -2.4905
 8146SOL     OW29284   6.239   6.579   2.597 -0.3786 -0.2128 -0.3621
 8146SOL    HW129285   6.223   6.672   2.607 -1.4880 -0.5008  0.8048
 8146SOL    HW229286   6.326   6.565   2.633 -0.2320  0.3708 -0.4942
 8147SOL     OW29287   3.217   3.239   6.215 -0.0263 -0.0439  0.0168
 8147SOL    HW129288   3.291   3.256   6.157 -0.0274 -0.1248 -0.0094
 8147SOL    HW229289   3.217   3.311   6.278 -0.5807  0.5541 -0.6457
 8148SOL     OW29290   1.071   2.858   3.912  0.1877 -0.0644  0.1421
 8148SOL    HW129291   1.031   2.823   3.833 -2.0168  5.2192 -1.5605
 8148SOL    HW229292   1.013   2.831   3.983 -0.2624 -1.2865 -0.6660
 8149SOL     OW29293   2.428   4.702   1.955 -0.0005 -0.0661 -0.3012
 8149SOL    HW129294   2.380   4.639   2.009 -0.1612  0.0482 -0.3100
 8149SOL    HW229295   2.399   4.686   1.866 -0.2953  0.2476 -0.2620
 8150SOL     OW29296   3.694   4.672   1.298 -0.3233  0.0297 -0.2233
 8150SOL    HW129297   3.617   4.660   1.354  0.6928  1.1190  1.4784
 8150SOL    HW229298   3.659   4.713   1.219 -1.4319  1.1800  0.8132
 8151SOL     OW29299   2.086   5.551   1.509 -0.6129 -0.0285  0.1385
 8151SOL    HW129300   2.157   5.614   1.521 -1.1699  0.7056 -0.2667
 8151SOL    HW229301   2.084   5.501   1.590  0.2399  0.0612  0.2270
 8152SOL     OW29302   1.589   4.822   4.587 -0.0387  0.2938  0.6128
 8152SOL    HW129303   1.625   4.808   4.674 -0.9828 -0.9743  0.8288
 8152SOL    HW229304   1.520   4.887   4.600 -0.8761 -0.6467  1.0278
 8153SOL     OW29305   2.129   5.676   5.704 -0.4672 -0.3159 -0.4290
 8153SOL    HW129306   2.076   5.742   5.659 -0.8238  0.0011  0.4366
 8153SOL    HW229307   2.167   5.624   5.633 -2.5554 -1.0483 -1.1091
 8154SOL     OW29308   3.588   4.278   3.341  0.2792  0.1879 -0.4365
 8154SOL    HW129309   3.668   4.236   3.371  0.8365  0.1238 -1.9563
 8154SOL    HW229310   3.560   4.332   3.415 -0.5866 -2.8939  1.7062
 8155SOL     OW29311   3.566   4.366   3.100  0.0434  0.0186  0.0264
 8155SOL    HW129312   3.480   4.334   3.076  0.2929 -0.2770 -0.4811
 8155SOL    HW229313   3.585   4.325   3.184  0.0958 -0.6753 -0.3197
 8156SOL     OW29314   2.293   1.777   1.322 -0.5464  0.2982 -0.4821
 8156SOL    HW129315   2.214   1.764   1.269 -2.2869 -0.7114  2.1617
 8156SOL    HW229316   2.289   1.708   1.388  2.2506  0.6213  0.1504
 8157SOL     OW29317   4.217   2.603   1.890  0.3753 -0.1162  0.2625
 8157SOL    HW129318   4.146   2.635   1.946  0.4495  0.7360 -0.1248
 8157SOL    HW229319   4.270   2.548   1.947  0.0475  0.1683  0.8470
 8158SOL     OW29320   0.712   4.557   3.900  0.2561 -0.0386  0.0378
 8158SOL    HW129321   0.796   4.511   3.907  0.4880  0.3199 -0.3363
 8158SOL    HW229322   0.711   4.616   3.976  0.3339 -0.0560  0.0528
 8159SOL     OW29323   3.432   5.685   2.054  0.4773 -0.5780 -1.0533
 8159SOL    HW129324   3.524   5.707   2.038  0.3503  1.1649  0.3189
 8159SOL    HW229325   3.392   5.686   1.967  1.7743 -1.6132 -1.7066
 8160SOL     OW29326   3.128   3.999   5.456 -0.1757 -0.1794  0.6548
 8160SOL    HW129327   3.199   3.987   5.518  0.2911 -0.2266  0.1176
 8160SOL    HW229328   3.049   4.003   5.510  0.2362 -0.0873  1.2551
 8161SOL     OW29329   4.229   3.509   4.148  0.0562  0.9173 -0.6460
 8161SOL    HW129330   4.207   3.585   4.203 -0.1000  0.0479  0.5306
 8161SOL    HW229331   4.157   3.448   4.161  1.3744 -0.4912  0.4509
 8162SOL     OW29332   2.780   2.945   2.203  0.3017  0.3998  0.3562
 8162SOL    HW129333   2.823   2.949   2.118 -1.1802 -0.7536 -0.4995
 8162SOL    HW229334   2.810   2.862   2.241  0.0695  0.3545  0.4443
 8163SOL     OW29335   6.458   7.189   4.264 -0.0732  0.5262  0.2371
 8163SOL    HW129336   6.461   7.262   4.325  0.6612  0.7551 -0.0620
 8163SOL    HW229337   6.410   7.121   4.311 -0.0393  0.9089  0.8381
 8164SOL     OW29338   2.900   4.778   4.762  0.0576  0.2876 -0.3140
 8164SOL    HW129339   2.855   4.707   4.717 -0.7103  1.8781 -2.1757
 8164SOL    HW229340   2.954   4.734   4.828 -1.8595 -1.8732 -0.0661
 8165SOL     OW29341   3.558   4.514   1.971  0.5995  0.1739 -0.2614
 8165SOL    HW129342   3.470   4.476   1.970  0.0950  1.1532  1.6834
 8165SOL    HW229343   3.550   4.596   1.922 -0.0922  1.1924  1.4642
 8166SOL     OW29344   1.840   3.612   3.821 -0.0770  0.6279  0.0730
 8166SOL    HW129345   1.819   3.520   3.805 -4.1089  1.0797  1.5032
 8166SOL    HW229346   1.817   3.656   3.740 -1.4608  0.7016  0.4821
 8167SOL     OW29347   4.851   4.084   5.023  0.1725 -0.1108  0.1788
 8167SOL    HW129348   4.809   4.088   4.937  1.7533 -1.9620 -0.7397
 8167SOL    HW229349   4.804   4.016   5.070  0.8584 -0.7999 -0.1244
 8168SOL     OW29350   3.902   3.654   1.653  0.0464 -0.5166  0.1733
 8168SOL    HW129351   3.845   3.609   1.591  0.9431 -0.0352 -1.0457
 8168SOL    HW229352   3.930   3.733   1.606  0.5168  0.0117  1.3078
 8169SOL     OW29353   0.650   5.872   1.493  0.2940  0.4353  0.7411
 8169SOL    HW129354   0.675   5.793   1.541 -0.5221 -0.6270 -0.4939
 8169SOL    HW229355   0.555   5.877   1.503  0.2210  0.6813  0.0143
 8170SOL     OW29356   1.487   4.648   2.036 -0.0368 -0.2460 -0.0794
 8170SOL    HW129357   1.548   4.701   1.984 -1.7289  1.0984 -0.7977
 8170SOL    HW229358   1.489   4.686   2.123 -1.5741  1.3943 -0.7009
 8171SOL     OW29359   1.224   4.382   4.826 -0.2000 -0.2011  0.0649
 8171SOL    HW129360   1.213   4.432   4.907 -0.3752 -0.0470 -0.0515
 8171SOL    HW229361   1.199   4.293   4.849  0.4244 -0.3037  0.3584
 8172SOL     OW29362   2.022   3.254   3.521  0.4775  0.2855 -0.2939
 8172SOL    HW129363   2.008   3.232   3.613  0.7724  0.2946 -0.2460
 8172SOL    HW229364   1.981   3.340   3.511  0.9781  0.5595 -0.0206
 8173SOL     OW29365   3.289   4.941   2.239 -0.5406  0.1674 -0.0746
 8173SOL    HW129366   3.239   4.945   2.321 -0.5461  1.0790 -0.1157
 8173SOL    HW229367   3.255   5.014   2.187 -0.2601 -0.1671 -0.7366
 8174SOL     OW29368   2.308   3.332   4.739 -0.1793 -0.6343  0.4705
 8174SOL    HW129369   2.255   3.284   4.675 -0.9670  2.4450 -1.3773
 8174SOL    HW229370   2.262   3.318   4.822 -2.3626 -0.2965 -0.6045
 8175SOL     OW29371   2.782   5.626   2.918 -0.7702 -0.3367 -0.5250
 8175SOL    HW129372   2.823   5.712   2.922 -2.6871  0.5865  1.1026
 8175SOL    HW229373   2.753   5.616   2.827  0.0266  0.4477 -0.8691
 8176SOL     OW29374   1.952   2.453   4.952 -0.7984  0.5783  0.3058
 8176SOL    HW129375   1.964   2.364   4.919  0.8670  2.4135 -5.1060
 8176SOL    HW229376   1.857   2.461   4.965 -1.0099 -1.8376  0.7576
 8177SOL     OW29377   1.139   6.550   2.865 -0.0282  0.2271  0.0820
 8177SOL    HW129378   1.168   6.570   2.776  0.1642  1.1511  0.3382
 8177SOL    HW229379   1.044   6.563   2.862 -0.1227 -0.4647 -0.1614
 8178SOL     OW29380   6.179   6.688   3.530  0.0712 -0.0236 -0.1795
 8178SOL    HW129381   6.144   6.759   3.476 -0.6454 -0.3327 -0.1305
 8178SOL    HW229382   6.191   6.615   3.469 -1.5666 -0.6568  0.2131
 8179SOL     OW29383   2.297   5.891   0.729 -0.3181 -0.1238  0.4321
 8179SOL    HW129384   2.231   5.824   0.742  1.5639 -1.9872  0.9508
 8179SOL    HW229385   2.356   5.854   0.663  0.4574  1.2824  0.2948
 8180SOL     OW29386   0.344   7.941   3.978  0.3705 -0.2651  0.3260
 8180SOL    HW129387   0.272   7.882   4.000  1.0185 -0.8795  0.8344
 8180SOL    HW229388   0.305   8.028   3.981 -0.6009 -0.6504 -0.4376
 8181SOL     OW29389   1.578   4.975   1.300  0.6588 -0.1207  0.5870
 8181SOL    HW129390   1.657   4.950   1.252  0.1376 -1.4912  0.3892
 8181SOL    HW229391   1.577   4.917   1.377  0.2677  0.4529  1.0289
 8182SOL     OW29392   2.904   5.666   4.954  0.8629  0.4678 -0.3835
 8182SOL    HW129393   2.891   5.581   4.914 -0.8498 -0.3829  1.7238
 8182SOL    HW229394   2.985   5.657   5.005  0.3892 -0.1118  0.2812
 8183SOL     OW29395   2.190   5.219   4.837  0.3044 -0.5377 -0.1482
 8183SOL    HW129396   2.113   5.166   4.856 -0.1969 -0.1509 -1.0400
 8183SOL    HW229397   2.258   5.185   4.895 -0.8264 -0.1690  1.4415
 8184SOL     OW29398   1.462   1.727   2.128 -0.2756  0.8005  0.2303
 8184SOL    HW129399   1.497   1.728   2.217 -3.7610  0.4578  1.7628
 8184SOL    HW229400   1.441   1.818   2.109 -1.6186  0.6155  0.7312
 8185SOL     OW29401   8.841   7.939   5.179 -0.3554 -0.2101  0.3771
 8185SOL    HW129402   8.819   7.879   5.250  0.2665 -1.6572 -0.6099
 8185SOL    HW229403   8.930   7.914   5.153 -0.8647 -0.2797 -1.4339
 8186SOL     OW29404   3.516   0.424   8.804  0.0012 -0.6247 -0.8993
 8186SOL    HW129405   3.426   0.416   8.836  0.2025 -1.4418 -0.4943
 8186SOL    HW229406   3.569   0.434   8.883  0.2207  0.5128 -1.1701
 8187SOL     OW29407   4.657   4.905   3.157  0.0287 -0.7473 -0.1271
 8187SOL    HW129408   4.575   4.879   3.115 -0.2105  0.0445 -0.1789
 8187SOL    HW229409   4.637   4.905   3.250 -0.3254  0.3541 -0.1863
 8188SOL     OW29410   3.404   7.354   1.292  0.3398 -0.2030  0.1795
 8188SOL    HW129411   3.326   7.397   1.257  0.4046 -1.4487 -1.6137
 8188SOL    HW229412   3.476   7.388   1.240  0.3602 -2.5777 -1.4711
 8189SOL     OW29413   3.058   3.790   0.690  0.5141  0.4777 -0.1399
 8189SOL    HW129414   3.022   3.824   0.608 -0.1628  0.6594  0.2245
 8189SOL    HW229415   3.105   3.710   0.664  1.3778  1.2065 -0.8743
 8190SOL     OW29416   4.508   3.869   2.390 -0.3047  0.3821  1.0163
 8190SOL    HW129417   4.534   3.933   2.456  0.0457 -0.1168  1.3682
 8190SOL    HW229418   4.490   3.789   2.440  0.2247 -0.0798  0.4826
 8191SOL     OW29419   0.057   5.742   0.958  0.0087  0.4988 -0.6021
 8191SOL    HW129420   0.020   5.747   1.046  0.4688  0.7141 -0.4159
 8191SOL    HW229421   0.007   5.805   0.907  0.5706  1.3035 -0.1814
 8192SOL     OW29422   3.875   5.604   3.284  0.2458 -0.0419  0.6091
 8192SOL    HW129423   3.925   5.594   3.365 -1.7258 -1.0504  1.7729
 8192SOL    HW229424   3.852   5.514   3.259 -0.1199  0.3351 -0.4887
 8193SOL     OW29425   4.766   3.494   3.382 -0.5868  0.2951 -0.4230
 8193SOL    HW129426   4.845   3.468   3.429 -0.3298 -0.1543 -1.0923
 8193SOL    HW229427   4.764   3.590   3.388 -0.1536  0.2860 -0.1507
 8194SOL     OW29428   3.324   1.029   4.890  0.2421 -0.5855  0.0279
 8194SOL    HW129429   3.338   1.091   4.962  0.9076  0.3313 -0.8705
 8194SOL    HW229430   3.411   0.994   4.871  0.0431 -0.9534 -0.2288
 8195SOL     OW29431   2.887   8.203   2.314  0.3118 -0.1867 -0.6394
 8195SOL    HW129432   2.819   8.247   2.264 -1.8812 -2.3222  0.2376
 8195SOL    HW229433   2.939   8.273   2.353  0.0920  1.5183 -3.1892
 8196SOL     OW29434   2.397   4.312   2.562 -0.8775 -0.4750  0.2175
 8196SOL    HW129435   2.346   4.247   2.514 -3.0414 -1.0263  2.9945
 8196SOL    HW229436   2.346   4.393   2.553  0.7259  0.4334 -1.4860
 8197SOL     OW29437   3.120   3.146   0.792  0.0366 -0.4224  0.1401
 8197SOL    HW129438   3.110   3.137   0.697 -1.0228  0.8359  0.1159
 8197SOL    HW229439   3.118   3.240   0.808  0.8768 -0.5885  1.3552
 8198SOL     OW29440   4.191   2.956   1.378 -0.1970 -0.1281 -0.1706
 8198SOL    HW129441   4.261   2.994   1.430 -0.0421  0.1549 -0.5735
 8198SOL    HW229442   4.114   3.010   1.398 -0.3361 -0.5262  0.3779
 8199SOL     OW29443   0.980   3.664   5.270 -0.1645 -0.1902  0.3777
 8199SOL    HW129444   0.923   3.649   5.194 -2.2558  1.3822  1.5291
 8199SOL    HW229445   0.986   3.578   5.312 -1.5810 -0.4426  0.1240
 8200SOL     OW29446   2.947   5.419   4.820 -0.5821  0.4220  0.1519
 8200SOL    HW129447   2.923   5.446   4.731  1.3863  2.5301  0.1570
 8200SOL    HW229448   3.012   5.350   4.808  1.2017  2.0744 -0.1874
 8201SOL     OW29449   1.019   3.749   1.672 -0.0969 -0.3389 -0.7572
 8201SOL    HW129450   1.081   3.800   1.724 -1.3083  0.9366 -0.4944
 8201SOL    HW229451   1.052   3.755   1.582  1.5088 -1.7945 -0.3128
 8202SOL     OW29452   2.785   6.078   4.310  0.3997  0.2012  0.5716
 8202SOL    HW129453   2.715   6.102   4.372  0.4979  0.5461  0.5492
 8202SOL    HW229454   2.824   5.999   4.348  1.2872  1.1167  1.6214
 8203SOL     OW29455   9.557   3.513   8.849  0.4486 -0.6639  0.1807
 8203SOL    HW129456   9.484   3.564   8.814  1.3612  0.3680 -0.2981
 8203SOL    HW229457   9.522   3.425   8.860 -1.1000 -0.0216  0.7418
 8204SOL     OW29458   2.633   3.441   4.016 -0.9416  0.6516  0.1521
 8204SOL    HW129459   2.728   3.436   4.003 -0.8613  2.0818  0.0111
 8204SOL    HW229460   2.608   3.353   4.044  0.8386  0.8865  2.8708
 8205SOL     OW29461   1.285   8.914   2.322  0.4108 -0.3166 -0.5625
 8205SOL    HW129462   1.328   8.867   2.393 -0.8168 -1.2866 -0.4298
 8205SOL    HW229463   1.194   8.925   2.352  0.4173  1.2578 -1.0272
 8206SOL     OW29464   9.350   4.703   4.548 -0.1790  0.0206  0.3038
 8206SOL    HW129465   9.313   4.615   4.534  0.7254 -0.6469  1.8565
 8206SOL    HW229466   9.287   4.762   4.506  0.2316 -1.4502 -2.6528
 8207SOL     OW29467   3.857   2.044   4.090  0.4259  0.1848  0.4581
 8207SOL    HW129468   3.945   2.008   4.086  0.8499  1.2337  0.0483
 8207SOL    HW229469   3.869   2.138   4.080 -0.8076  0.2741 -0.4558
 8208SOL     OW29470   1.882   4.443   1.295 -0.5244  0.3923 -0.1576
 8208SOL    HW129471   1.855   4.515   1.351 -0.5216  1.2697 -1.2614
 8208SOL    HW229472   1.917   4.378   1.356 -0.4523  1.3419  0.8521
 8209SOL     OW29473   1.607   4.643   1.067  0.4233 -0.7440 -0.3249
 8209SOL    HW129474   1.633   4.609   0.981 -0.8063 -0.9646 -0.6237
 8209SOL    HW229475   1.518   4.610   1.080  0.0868  0.4137  0.4274
 8210SOL     OW29476   1.228   4.484   1.918 -0.0696  0.7695 -0.1111
 8210SOL    HW129477   1.299   4.547   1.933 -0.6973  1.2895  0.7411
 8210SOL    HW229478   1.273   4.401   1.901  0.7914  0.5132  2.8631
 8211SOL     OW29479   3.163   3.632   2.172 -0.5980  0.1453  0.5397
 8211SOL    HW129480   3.226   3.610   2.241 -0.3557 -0.9252  0.0039
 8211SOL    HW229481   3.212   3.618   2.090 -1.3606 -0.1352  0.1258
 8212SOL     OW29482   1.217   2.926   7.018 -0.1493 -0.2074  0.2465
 8212SOL    HW129483   1.131   2.968   7.017 -0.2492 -0.3295 -2.3269
 8212SOL    HW229484   1.250   2.940   7.108 -1.9857  1.5608  0.7133
 8213SOL     OW29485   2.878   6.889   2.999  0.1921 -0.1507  0.0705
 8213SOL    HW129486   2.937   6.833   3.049  1.1621  0.9774  0.2307
 8213SOL    HW229487   2.795   6.886   3.048  1.3890  1.7482  2.4332
 8214SOL     OW29488   2.223   4.960   1.238  0.2465 -0.1089  0.3301
 8214SOL    HW129489   2.297   5.020   1.245  0.1954 -0.1901  1.8449
 8214SOL    HW229490   2.168   4.997   1.168  1.4625  0.2034 -0.4851
 8215SOL     OW29491   3.829   5.874   3.332 -0.7410 -0.6750  0.0068
 8215SOL    HW129492   3.822   5.779   3.332 -0.0106 -0.7345  0.2912
 8215SOL    HW229493   3.829   5.898   3.239  1.7865 -1.1990 -0.2113
 8216SOL     OW29494   2.225   5.879   4.467 -0.3302  0.1237 -0.8253
 8216SOL    HW129495   2.184   5.964   4.451  1.5544  1.3073  0.2865
 8216SOL    HW229496   2.172   5.840   4.537 -0.5359  0.9022 -0.5361
 8217SOL     OW29497   5.117   4.595   0.010  0.2291 -0.4271  0.1885
 8217SOL    HW129498   5.033   4.637   0.029  0.7770  0.2755  1.1339
 8217SOL    HW229499   5.181   4.666   0.012  0.8071 -0.8942 -0.8898
 8218SOL     OW29500   2.105   3.988   0.664  0.0171  0.7038 -0.5109
 8218SOL    HW129501   2.087   4.082   0.652  0.0570  1.0047  1.4066
 8218SOL    HW229502   2.020   3.950   0.688  0.0794  0.3277 -0.8847
 8219SOL     OW29503   2.069   5.598   1.932  0.0153  0.3808  0.7710
 8219SOL    HW129504   2.058   5.568   2.023  1.7760 -0.4022  0.7695
 8219SOL    HW229505   1.992   5.652   1.916 -0.7941 -0.1755  2.4375
 8220SOL     OW29506   5.501   5.331   2.403  0.3612  0.7282 -0.0085
 8220SOL    HW129507   5.525   5.380   2.324  0.9442  2.9353  1.4399
 8220SOL    HW229508   5.412   5.358   2.422 -0.4756 -1.2402 -0.8811
 8221SOL     OW29509   3.934   4.602   3.181 -0.2324 -0.0190  0.8627
 8221SOL    HW129510   4.014   4.559   3.212  0.3508  1.0923  0.9254
 8221SOL    HW229511   3.874   4.596   3.255  0.4030  0.6871  1.4492
 8222SOL     OW29512   1.363   5.249   2.616  0.2363  0.1232  0.2535
 8222SOL    HW129513   1.373   5.304   2.693 -1.1267  0.9670 -0.1328
 8222SOL    HW229514   1.352   5.160   2.650 -1.9366  0.6788  1.1702
 8223SOL     OW29515   3.874   4.881   0.166  0.1028 -0.1940 -0.1361
 8223SOL    HW129516   3.823   4.954   0.131  0.8828 -0.3226 -1.6348
 8223SOL    HW229517   3.936   4.921   0.227  1.0372  0.5412 -1.5145
 8224SOL     OW29518   5.013   8.015   4.265 -0.0051  0.2075 -0.0422
 8224SOL    HW129519   5.003   8.101   4.306 -3.4246  0.7933 -1.7626
 8224SOL    HW229520   5.095   8.022   4.216  2.4313  0.6172  3.6739
 8225SOL     OW29521   4.235   3.911   2.412 -0.5960  0.5671  0.8124
 8225SOL    HW129522   4.327   3.897   2.391 -0.7306 -0.5020  0.9124
 8225SOL    HW229523   4.238   3.960   2.495 -0.1184  0.5060  0.8379
 8226SOL     OW29524   2.745   4.487   0.485  0.2922  0.3713 -0.6718
 8226SOL    HW129525   2.657   4.462   0.454  0.5407  0.1883 -1.2547
 8226SOL    HW229526   2.737   4.493   0.580 -0.6780  1.5905 -0.8040
 8227SOL     OW29527   9.718   3.791   8.974 -0.5039 -0.0511 -0.1708
 8227SOL    HW129528   9.750   3.867   8.925 -0.8185  0.0412 -0.2326
 8227SOL    HW229529   9.641   3.762   8.926 -1.2463  0.4870  0.6694
 8228SOL     OW29530   1.606   5.652   2.671  0.3380  0.5081  0.0480
 8228SOL    HW129531   1.562   5.679   2.591  0.3923 -0.2989 -0.2620
 8228SOL    HW229532   1.535   5.621   2.728  0.4796 -0.6683 -0.4017
 8229SOL     OW29533   4.723   4.592   0.971 -0.3233 -0.2635  0.3716
 8229SOL    HW129534   4.703   4.504   0.939 -0.3451 -0.6862  1.5003
 8229SOL    HW229535   4.676   4.650   0.911  0.7277 -0.9304 -1.1797
 8230SOL     OW29536   2.078   4.258   3.397 -0.1675  0.8554 -0.1803
 8230SOL    HW129537   2.040   4.200   3.331  0.0933  2.3277 -1.7026
 8230SOL    HW229538   2.009   4.267   3.463 -0.3576 -0.8194 -0.1150
 8231SOL     OW29539   4.563   3.411   0.586 -0.3514  0.3486  0.0096
 8231SOL    HW129540   4.498   3.475   0.555 -0.2653  0.0737 -0.7575
 8231SOL    HW229541   4.584   3.359   0.509  0.5325  0.2084  0.3339
 8232SOL     OW29542   3.341   5.214   1.931  0.0790  0.1306  0.0395
 8232SOL    HW129543   3.288   5.279   1.976  0.0754 -1.1146  1.9827
 8232SOL    HW229544   3.431   5.233   1.957  0.1628 -0.1113 -0.0634
 8233SOL     OW29545   2.805   5.925   1.644  0.2580 -0.0610  0.3680
 8233SOL    HW129546   2.723   5.893   1.682  0.4205  0.3674  1.0978
 8233SOL    HW229547   2.778   5.971   1.564 -0.1972 -0.0551  0.5222
 8234SOL     OW29548   2.636   3.517   2.880 -0.6612  0.2926  0.1621
 8234SOL    HW129549   2.710   3.458   2.891 -2.0005 -1.6880 -0.8464
 8234SOL    HW229550   2.643   3.579   2.953  0.8961 -1.0063  1.1698
 8235SOL     OW29551   2.688   4.718   4.543  0.7163  0.4786  0.0480
 8235SOL    HW129552   2.778   4.709   4.510  0.6809 -0.4906  0.2121
 8235SOL    HW229553   2.633   4.686   4.471  0.6352 -1.5791  0.9659
 8236SOL     OW29554   4.038   4.207   4.749  0.9034  0.3321  1.1158
 8236SOL    HW129555   3.977   4.222   4.821  0.1095  0.4764  0.4295
 8236SOL    HW229556   4.096   4.138   4.781 -1.7252 -2.3282  0.5907
 8237SOL     OW29557   2.125   4.323   5.780  0.5139  0.4293 -0.4372
 8237SOL    HW129558   2.035   4.355   5.768  0.4208  0.9412  1.4278
 8237SOL    HW229559   2.172   4.357   5.703 -0.6712  0.9176 -0.9816
 8238SOL     OW29560   0.475   2.528   1.417  0.3361 -0.0739 -0.3612
 8238SOL    HW129561   0.456   2.556   1.506  2.7080 -0.8420  0.4774
 8238SOL    HW229562   0.536   2.455   1.428  2.4726  1.2286 -2.6159
 8239SOL     OW29563   4.859   3.473   2.799 -0.3521  0.0169 -0.3147
 8239SOL    HW129564   4.942   3.496   2.758 -0.2397  0.5602  0.2040
 8239SOL    HW229565   4.879   3.468   2.892 -1.1115  1.1791 -0.0694
 8240SOL     OW29566   3.747   0.860   2.905  0.2870 -0.2418  0.3382
 8240SOL    HW129567   3.664   0.903   2.928 -0.5506 -1.5406 -0.1566
 8240SOL    HW229568   3.775   0.903   2.824 -2.3741 -2.8086 -2.2050
 8241SOL     OW29569   1.482   4.993   2.037  0.2667 -0.0925 -0.5572
 8241SOL    HW129570   1.501   4.927   2.104  1.0924 -0.8797 -1.5448
 8241SOL    HW229571   1.566   5.012   1.997  0.0428  1.5644 -0.3251
 8242SOL     OW29572   4.026   4.502   0.172  0.3898  0.2305 -0.5828
 8242SOL    HW129573   3.982   4.544   0.246  1.5427 -2.4139  1.7763
 8242SOL    HW229574   4.115   4.535   0.174  0.7871 -0.8448  0.0928
 8243SOL     OW29575   0.905   3.901   4.918 -0.3882  0.0373  0.1365
 8243SOL    HW129576   0.873   3.812   4.934  1.4206 -0.6403  0.2627
 8243SOL    HW229577   0.943   3.928   5.002 -0.4789  0.7220 -0.0410
 8244SOL     OW29578   0.793   4.130   3.985 -0.7252 -0.2119 -0.0455
 8244SOL    HW129579   0.810   4.038   4.004  0.9717  0.2189  0.7250
 8244SOL    HW229580   0.728   4.157   4.050 -0.3309 -0.5766  0.5033
 8245SOL     OW29581   2.167   5.621   4.239 -0.4238  0.9848  0.3383
 8245SOL    HW129582   2.161   5.691   4.304 -0.6121  1.5231 -0.2601
 8245SOL    HW229583   2.248   5.575   4.262 -1.3339  0.0798  2.0279
 8246SOL     OW29584   5.420   6.473   3.967  0.0962  0.7106  0.1114
 8246SOL    HW129585   5.475   6.462   4.045 -0.2682 -0.4030  0.2334
 8246SOL    HW229586   5.336   6.502   4.002  0.0862  0.7137  0.0845
 8247SOL     OW29587   2.908   3.969   4.041 -0.5822  0.0307 -0.5250
 8247SOL    HW129588   2.994   4.007   4.056 -0.6585  0.4057 -1.0065
 8247SOL    HW229589   2.907   3.949   3.947 -0.4945 -1.2862 -0.2705
 8248SOL     OW29590   2.011   3.663   5.178 -0.0131  0.7506 -0.0873
 8248SOL    HW129591   2.075   3.642   5.110  1.0845  3.5384 -0.0188
 8248SOL    HW229592   1.926   3.654   5.135  0.5502  0.1700 -1.1099
 8249SOL     OW29593   0.480   4.854   5.143  0.1143 -0.1967 -1.0212
 8249SOL    HW129594   0.428   4.779   5.113  1.3423 -0.7127 -1.9130
 8249SOL    HW229595   0.554   4.815   5.189 -0.6599  0.5481  0.9549
 8250SOL     OW29596   0.337   4.570   4.632  0.1714 -0.0719 -0.0204
 8250SOL    HW129597   0.312   4.567   4.725  0.6254  0.4335  0.1243
 8250SOL    HW229598   0.304   4.655   4.602 -1.7114 -1.0523 -0.8391
 8251SOL     OW29599   1.106   5.734   5.222  0.4242 -0.7846  0.5232
 8251SOL    HW129600   1.173   5.676   5.258  1.1909 -0.2170  0.0443
 8251SOL    HW229601   1.071   5.686   5.147  0.0807 -1.2025  0.9403
 8252SOL     OW29602   2.390   4.175   3.839  0.6207  0.1747  0.3123
 8252SOL    HW129603   2.332   4.120   3.891  0.9325  0.7589  1.2897
 8252SOL    HW229604   2.469   4.185   3.892  0.4768  1.7434  0.2709
 8253SOL     OW29605   2.324   2.997   3.304 -0.3417 -0.2842  0.1448
 8253SOL    HW129606   2.329   3.072   3.363  0.1708 -0.8331  0.8187
 8253SOL    HW229607   2.289   3.032   3.223 -1.6444  0.3669  0.9697
 8254SOL     OW29608   1.377   1.020   4.793  0.1902  0.0231  0.2308
 8254SOL    HW129609   1.328   1.048   4.715 -0.5625 -0.6394  0.4501
 8254SOL    HW229610   1.310   0.984   4.852  0.9378 -0.9284  0.5339
 8255SOL     OW29611   2.475   2.861   5.891  0.5955  0.3057  0.0175
 8255SOL    HW129612   2.447   2.833   5.804  0.2751  1.5047 -0.2795
 8255SOL    HW229613   2.461   2.956   5.892 -2.1501  0.0432  2.3246
 8256SOL     OW29614   1.233   5.065   4.115  0.1649  0.1510 -0.1358
 8256SOL    HW129615   1.191   5.048   4.199  1.7539  0.4582  0.7510
 8256SOL    HW229616   1.183   5.138   4.077 -1.9830 -1.4387 -0.5548
 8257SOL     OW29617   2.599   3.794   5.012 -0.3102 -0.0527  0.1900
 8257SOL    HW129618   2.546   3.772   4.936 -0.2156  1.5725 -0.3894
 8257SOL    HW229619   2.536   3.830   5.075 -0.1394  0.3248  0.1488
 8258SOL     OW29620   3.032   4.843   5.640  0.3174 -0.0712 -0.0249
 8258SOL    HW129621   3.120   4.823   5.673 -0.8809 -1.3112  2.7255
 8258SOL    HW229622   3.015   4.931   5.672 -0.6937 -1.1292  2.7241
 8259SOL     OW29623   2.901   3.737   5.444 -0.0788 -0.4351  0.0627
 8259SOL    HW129624   2.841   3.777   5.381  0.1541  1.6555  1.0780
 8259SOL    HW229625   2.863   3.759   5.529  0.8145 -1.2179  0.6757
 8260SOL     OW29626   3.799   4.189   3.955  0.3325  0.6263  0.5300
 8260SOL    HW129627   3.717   4.141   3.969  0.9717 -1.7343 -2.5914
 8260SOL    HW229628   3.866   4.133   3.994  0.8055  0.4649 -0.4850
 8261SOL     OW29629   1.120   4.426   6.263  0.6265 -0.3537 -0.7925
 8261SOL    HW129630   1.168   4.344   6.262  1.7016  0.2322  0.5132
 8261SOL    HW229631   1.040   4.406   6.312  1.0102 -0.5488 -0.2455
 8262SOL     OW29632   6.546   6.867   6.134 -0.2446 -0.5709  0.4200
 8262SOL    HW129633   6.509   6.914   6.208  0.2432 -1.8948  1.5626
 8262SOL    HW229634   6.628   6.831   6.168 -1.3324 -3.5681  0.1803
 8263SOL     OW29635   0.541   4.408   4.705  0.1126  0.2750  0.2140
 8263SOL    HW129636   0.611   4.450   4.756 -1.6049  0.6677  2.3982
 8263SOL    HW229637   0.487   4.480   4.674 -0.3149 -0.0987  0.0837
 8264SOL     OW29638   3.430   4.877   4.482 -0.3399  0.8441  0.1360
 8264SOL    HW129639   3.354   4.860   4.427  0.6233  0.4390 -1.1226
 8264SOL    HW229640   3.488   4.802   4.467  0.5146  1.3804  0.6744
 8265SOL     OW29641   2.876   3.718   6.784  0.1038  0.2820 -0.1838
 8265SOL    HW129642   2.844   3.664   6.713 -0.0002  1.1297 -0.7876
 8265SOL    HW229643   2.798   3.756   6.824  0.2160  0.4926 -0.1629
 8266SOL     OW29644   1.378   6.551   7.252 -0.1904 -0.2706  0.2007
 8266SOL    HW129645   1.431   6.626   7.279  0.5995 -1.2433  1.5377
 8266SOL    HW229646   1.443   6.487   7.221 -0.3166 -1.9769  3.0419
 8267SOL     OW29647   0.522   4.777   4.552 -0.1079 -0.0544 -0.5790
 8267SOL    HW129648   0.504   4.860   4.596 -2.1851 -0.0323 -1.3543
 8267SOL    HW229649   0.565   4.723   4.619  0.3020  1.2728  0.2581
 8268SOL     OW29650   1.948   2.740   6.532 -0.2043  0.2931  0.6968
 8268SOL    HW129651   1.913   2.690   6.458 -0.8417  0.1328  1.0933
 8268SOL    HW229652   2.001   2.809   6.492 -1.0818  0.6120  0.0551
 8269SOL     OW29653   1.504   3.974   5.410 -0.2253  0.0595  0.1673
 8269SOL    HW129654   1.432   4.031   5.436 -1.1013  0.0059 -1.8958
 8269SOL    HW229655   1.513   3.911   5.481 -2.1486  0.1418  0.5172
 8270SOL     OW29656   5.630   8.493   5.196 -0.0706  0.2055  0.2885
 8270SOL    HW129657   5.708   8.447   5.166 -0.8663 -0.2129 -1.2683
 8270SOL    HW229658   5.574   8.425   5.234 -0.6898  0.0740 -0.8203
 8271SOL     OW29659   1.696   3.015   7.399  0.6361  0.2213  0.4794
 8271SOL    HW129660   1.624   3.001   7.461  1.5439 -0.1295  1.4768
 8271SOL    HW229661   1.764   3.058   7.450  0.7921  1.4573 -0.6955
 8272SOL     OW29662   1.167   5.462   4.476  0.0095 -0.4083  0.4289
 8272SOL    HW129663   1.261   5.470   4.491  0.7360 -0.1176 -3.3640
 8272SOL    HW229664   1.153   5.370   4.453 -0.3992 -0.2104 -0.1565
 8273SOL     OW29665   2.842   7.020   1.664 -0.6825 -0.2021 -0.1657
 8273SOL    HW129666   2.854   7.104   1.621 -2.1175  0.8820  1.4523
 8273SOL    HW229667   2.927   6.977   1.656  0.0416  1.3229 -1.1312
 8274SOL     OW29668   6.207   4.029   3.067 -0.2696  0.0772 -0.2616
 8274SOL    HW129669   6.190   4.109   3.117 -0.5006 -0.5455  0.6628
 8274SOL    HW229670   6.140   4.029   2.999 -0.6354  0.3667  0.0919
 8275SOL     OW29671   2.651   4.477   4.703 -0.4834  0.3687 -0.0887
 8275SOL    HW129672   2.569   4.449   4.744 -0.4735 -0.3811 -0.5532
 8275SOL    HW229673   2.625   4.536   4.633 -0.4923  1.7931  1.0621
 8276SOL     OW29674   3.155   5.851   4.451 -0.7559  0.2501  0.6166
 8276SOL    HW129675   3.076   5.833   4.399 -1.5541 -0.2621  1.9427
 8276SOL    HW229676   3.140   5.805   4.534  0.5731  0.8464  1.2230
 8277SOL     OW29677   5.642   3.761   2.418  0.2588  0.0319 -0.1319
 8277SOL    HW129678   5.734   3.771   2.392 -0.5577  1.1999 -2.9176
 8277SOL    HW229679   5.612   3.684   2.371 -0.4016  0.1126  0.1510
 8278SOL     OW29680   3.366   2.329   3.897 -0.0447 -0.5960  0.2463
 8278SOL    HW129681   3.434   2.266   3.873 -0.0412  0.4498 -2.8734
 8278SOL    HW229682   3.329   2.358   3.814 -1.2165  2.2697  1.6238
 8279SOL     OW29683   2.706   3.176   6.112 -0.9030  0.4702  0.4351
 8279SOL    HW129684   2.782   3.165   6.055 -0.5042  1.4420  0.7656
 8279SOL    HW229685   2.705   3.096   6.165 -1.0309 -0.2528 -0.6124
 8280SOL     OW29686   1.069   2.644   3.738 -0.1434  0.0261  0.1016
 8280SOL    HW129687   1.054   2.600   3.654 -0.3841  0.8600 -0.3077
 8280SOL    HW229688   1.017   2.594   3.801 -1.1214  0.2217 -0.5136
 8281SOL     OW29689   4.023   6.751   4.386  0.5267 -0.3163 -0.5413
 8281SOL    HW129690   3.929   6.731   4.395  0.4886 -0.8525 -1.8674
 8281SOL    HW229691   4.063   6.666   4.370  1.3546 -0.1775  0.6687
 8282SOL     OW29692   2.758   2.955   5.281 -0.4065 -0.3186 -0.4583
 8282SOL    HW129693   2.777   3.009   5.204  0.3699 -2.4349 -1.8348
 8282SOL    HW229694   2.728   2.872   5.246 -2.0186 -0.6980  1.6005
 8283SOL     OW29695   2.755   3.087   5.027 -0.3010  0.1905  0.3298
 8283SOL    HW129696   2.779   3.161   5.083 -0.9202 -1.2656  2.7179
 8283SOL    HW229697   2.667   3.107   4.997 -0.3705  0.5456  0.7541
 8284SOL     OW29698   3.024   2.427   4.294 -0.0402 -0.8665 -0.2765
 8284SOL    HW129699   3.009   2.376   4.214  1.0977  0.2673 -1.2559
 8284SOL    HW229700   3.056   2.363   4.358 -0.0528 -1.6243 -1.0195
 8285SOL     OW29701   4.814   3.508   4.205 -0.3267  0.1414 -0.1381
 8285SOL    HW129702   4.888   3.569   4.208  1.5806 -2.0177 -0.0795
 8285SOL    HW229703   4.778   3.519   4.117  1.5232 -0.2932 -0.9985
 8286SOL     OW29704   1.295   3.488   4.435 -0.1758  0.2170 -0.1247
 8286SOL    HW129705   1.281   3.517   4.525 -0.8276 -0.6682  0.0743
 8286SOL    HW229706   1.386   3.512   4.416 -0.1284  0.6959  0.6608
 8287SOL     OW29707   1.655   1.800   5.543  0.6049  0.0210 -0.3259
 8287SOL    HW129708   1.716   1.811   5.471  0.9432 -0.2818 -0.0896
 8287SOL    HW229709   1.700   1.742   5.604 -0.0224 -0.4085 -0.2643
 8288SOL     OW29710   3.064   2.822   3.893  0.3902  0.3177  0.1871
 8288SOL    HW129711   2.970   2.826   3.875  0.2972  1.1193  0.7543
 8288SOL    HW229712   3.070   2.788   3.983  0.7348 -1.4275 -0.4650
 8289SOL     OW29713   1.702   5.361   4.086  1.3160  0.2131 -0.1811
 8289SOL    HW129714   1.621   5.313   4.069  1.1179 -0.6234  2.6500
 8289SOL    HW229715   1.708   5.424   4.014 -0.3671 -1.5360 -1.9799
 8290SOL     OW29716   3.303   4.628   3.048  0.7048 -0.4341 -0.6663
 8290SOL    HW129717   3.298   4.595   2.958 -0.3114  0.2233 -0.8647
 8290SOL    HW229718   3.217   4.608   3.086  0.4023  1.0996 -0.4932
 8291SOL     OW29719   2.332   5.389   6.432  0.1049 -0.1823 -0.0441
 8291SOL    HW129720   2.259   5.417   6.487 -0.5313 -0.8689 -0.5110
 8291SOL    HW229721   2.364   5.469   6.391  0.0426  0.2156  0.6703
 8292SOL     OW29722   1.610   2.515   4.463  0.1727 -0.2944  0.1351
 8292SOL    HW129723   1.516   2.528   4.464  0.2149  0.0167  1.6431
 8292SOL    HW229724   1.625   2.456   4.389 -1.2811 -0.9796  0.3516
 8293SOL     OW29725   4.294   4.069   4.952 -0.1270  0.0909  0.5761
 8293SOL    HW129726   4.343   4.014   4.891  0.2437  1.0427 -0.0070
 8293SOL    HW229727   4.344   4.066   5.033 -0.3015 -0.7108  0.6541
 8294SOL     OW29728   1.055   6.581   5.508 -0.0064 -0.1502  0.0895
 8294SOL    HW129729   1.140   6.613   5.478  0.0517 -1.4653 -1.2673
 8294SOL    HW229730   1.072   6.542   5.594  0.9079 -0.9571 -0.4384
 8295SOL     OW29731   2.599   5.403   4.833  0.4779 -0.4868  0.0665
 8295SOL    HW129732   2.589   5.400   4.738 -0.9890 -1.2445  0.2098
 8295SOL    HW229733   2.671   5.343   4.851 -1.5287 -3.2625 -0.3774
 8296SOL     OW29734   1.772   4.910   5.679 -0.3993  0.4616  0.0471
 8296SOL    HW129735   1.858   4.909   5.721  0.5017  0.5726 -1.7064
 8296SOL    HW229736   1.710   4.901   5.752  1.0874  0.0710  1.3302
 8297SOL     OW29737   6.232   2.438   3.734  0.0380 -0.2863 -0.3124
 8297SOL    HW129738   6.199   2.477   3.653 -0.6452 -1.9832 -0.8881
 8297SOL    HW229739   6.321   2.411   3.713  0.5570  0.9871  0.1247
 8298SOL     OW29740   1.787   4.799   6.023 -0.5613  0.1128  0.5139
 8298SOL    HW129741   1.762   4.878   6.071 -2.1394 -0.8543  1.3744
 8298SOL    HW229742   1.872   4.820   5.984 -1.3201  2.5102  0.0073
 8299SOL     OW29743   4.214   2.098   3.315 -0.0505  0.2473  0.1743
 8299SOL    HW129744   4.136   2.153   3.324 -0.0389  0.3530 -0.3553
 8299SOL    HW229745   4.215   2.045   3.395 -2.8233 -2.5163 -1.4191
 8300SOL     OW29746   3.129   5.564   3.964  0.2562  0.0632 -0.1096
 8300SOL    HW129747   3.083   5.508   4.027  0.3099 -0.8371 -0.8473
 8300SOL    HW229748   3.219   5.565   3.994  0.4496 -1.0261 -0.6020
 8301SOL     OW29749   2.102   5.981   5.152 -0.3499  0.5997 -0.1359
 8301SOL    HW129750   2.057   5.938   5.079  1.3227 -1.3254 -0.1200
 8301SOL    HW229751   2.083   5.925   5.228 -1.3602  2.1040  0.7712
 8302SOL     OW29752   1.068   5.345   5.229  0.3378 -0.4934  0.3221
 8302SOL    HW129753   1.161   5.366   5.241  0.5180 -1.4477  0.6701
 8302SOL    HW229754   1.039   5.403   5.158  1.4678 -0.9497 -0.5368
 8303SOL     OW29755   5.089   3.342   4.363  0.1029  0.2212  0.0185
 8303SOL    HW129756   5.087   3.407   4.293  1.6689  0.0539 -0.2099
 8303SOL    HW229757   5.060   3.260   4.321  1.8725 -0.0759 -0.6804
 8304SOL     OW29758   3.606   2.765   3.551  0.8777  0.1961  0.2844
 8304SOL    HW129759   3.645   2.720   3.476  1.1319 -0.0335  0.5538
 8304SOL    HW229760   3.609   2.702   3.623 -0.6329 -0.0695  0.1446
 8305SOL     OW29761   1.259   8.146   2.443  0.0188 -0.2839 -0.2275
 8305SOL    HW129762   1.294   8.168   2.530 -1.9209 -1.5306  0.9558
 8305SOL    HW229763   1.336   8.140   2.387  1.2656  1.4926  1.1572
 8306SOL     OW29764   5.626   4.953   3.775 -0.4000  0.0704  0.7716
 8306SOL    HW129765   5.612   4.859   3.786  2.2011 -0.1834  3.1974
 8306SOL    HW229766   5.559   4.994   3.831 -0.6857 -0.4039  0.7778
 8307SOL     OW29767   3.243   5.331   4.143  0.2060 -0.2327 -0.0096
 8307SOL    HW129768   3.203   5.255   4.186  3.7224 -1.8252  0.8174
 8307SOL    HW229769   3.257   5.302   4.053  2.0360 -0.8866  0.4376
 8308SOL     OW29770   0.007   1.351   4.278  0.0099  0.3056  0.3423
 8308SOL    HW129771  -0.009   1.415   4.347 -1.4161  0.0946  0.2307
 8308SOL    HW229772  -0.072   1.297   4.276  0.8939 -1.0176 -0.0472
 8309SOL     OW29773   1.230   3.022   4.052 -0.3050  0.4229  0.5795
 8309SOL    HW129774   1.186   2.960   3.994 -2.4766  0.2057  2.3264
 8309SOL    HW229775   1.264   2.968   4.123  1.1822  0.8371  0.2224
 8310SOL     OW29776   4.464   2.617   3.662 -0.2407 -0.5070  0.4472
 8310SOL    HW129777   4.479   2.535   3.616  0.5441 -0.7395  1.1091
 8310SOL    HW229778   4.523   2.615   3.737 -0.8541  0.2662  0.9735
 8311SOL     OW29779   4.348   5.526   2.743 -0.2101 -0.1191 -0.6045
 8311SOL    HW129780   4.341   5.503   2.651 -1.1103  0.2400 -0.6373
 8311SOL    HW229781   4.264   5.566   2.764  0.5145  1.1791 -0.0153
 8312SOL     OW29782   3.400   3.766   2.649  0.2469  0.4351  0.1952
 8312SOL    HW129783   3.423   3.738   2.738  1.7225  0.9662  0.0019
 8312SOL    HW229784   3.479   3.751   2.597 -0.2114  1.2093 -0.7689
 8313SOL     OW29785   3.069   3.761   5.082 -0.0081  0.6988 -1.0190
 8313SOL    HW129786   3.047   3.670   5.100  0.9613  0.7745  0.8171
 8313SOL    HW229787   2.988   3.809   5.100 -0.9711  0.1355 -3.4089
 8314SOL     OW29788   1.477   4.387   5.281  0.2122 -0.1657  0.1205
 8314SOL    HW129789   1.427   4.455   5.236  1.8859  1.5591  0.7472
 8314SOL    HW229790   1.481   4.315   5.218 -1.1464  0.5005 -0.7736
 8315SOL     OW29791   3.930   3.048   3.844  0.4652  0.5628  1.0846
 8315SOL    HW129792   3.865   2.980   3.825  0.3309  0.8749  0.3837
 8315SOL    HW229793   4.003   3.001   3.883  0.4863 -0.0276  0.3580
 8316SOL     OW29794   1.283   3.294   4.128  0.5009 -0.6002 -0.5076
 8316SOL    HW129795   1.342   3.322   4.058  0.1900 -0.5947 -0.7693
 8316SOL    HW229796   1.264   3.203   4.108 -2.9081  0.4349 -2.8659
 8317SOL     OW29797   0.363   3.458   1.904 -0.2528 -0.0563  0.1445
 8317SOL    HW129798   0.327   3.461   1.993 -0.7217 -1.4568  0.0293
 8317SOL    HW229799   0.316   3.386   1.862  1.0088 -0.3641 -0.7776
 8318SOL     OW29800   1.906   4.394   5.589 -0.2719  0.9709  0.2224
 8318SOL    HW129801   1.918   4.304   5.557  1.9008 -0.7019  4.8500
 8318SOL    HW229802   1.982   4.441   5.555  0.0992  0.2926  0.0859
 8319SOL     OW29803   1.345   4.238   4.125 -0.4956 -0.0831 -0.7148
 8319SOL    HW129804   1.302   4.260   4.041 -1.2362  1.2261 -0.0310
 8319SOL    HW229805   1.426   4.289   4.123 -1.0415  0.8384 -0.1857
 8320SOL     OW29806   3.096   1.830   1.896 -0.5248  0.2960  0.0366
 8320SOL    HW129807   3.055   1.751   1.861  0.4084 -0.4003  0.4510
 8320SOL    HW229808   3.048   1.902   1.856 -1.4511 -0.4790 -0.2897
 8321SOL     OW29809   1.771   4.051   2.432  0.5227 -0.0792  0.4449
 8321SOL    HW129810   1.774   4.137   2.391 -0.5174  0.1345  0.7826
 8321SOL    HW229811   1.751   4.069   2.524  1.5133 -0.6248  0.7871
 8322SOL     OW29812   4.081   3.692   2.285  0.0612 -0.5432  0.3099
 8322SOL    HW129813   4.142   3.756   2.321  1.4377 -1.1155 -0.9004
 8322SOL    HW229814   3.999   3.740   2.275  0.0804  0.0622  2.5841
 8323SOL     OW29815   5.489   3.762   7.693  0.6502 -0.2746  0.0757
 8323SOL    HW129816   5.489   3.776   7.598  1.5583  0.0587  0.1211
 8323SOL    HW229817   5.558   3.819   7.726  0.6208 -0.7019  0.8989
 8324SOL     OW29818   5.030   5.673   1.553  0.2529 -0.6596 -0.0052
 8324SOL    HW129819   4.965   5.737   1.525  0.4571 -0.7082 -0.6105
 8324SOL    HW229820   5.040   5.688   1.647 -1.4959 -1.4474  0.3431
 8325SOL     OW29821   4.049   4.327   2.932 -0.2126  0.3508 -0.3167
 8325SOL    HW129822   4.001   4.361   2.857 -1.0688  3.3846  1.4111
 8325SOL    HW229823   3.993   4.259   2.968 -1.0370  0.6644 -0.9730
 8326SOL     OW29824   1.712   3.587   2.614  0.8374  0.0366 -0.2316
 8326SOL    HW129825   1.633   3.641   2.616 -1.2135 -2.7573 -0.4318
 8326SOL    HW229826   1.745   3.591   2.704 -0.0163  0.5583  0.0742
 8327SOL     OW29827   2.805   4.961   3.984  0.0879  0.3840  0.6603
 8327SOL    HW129828   2.763   4.941   4.068 -0.0287  1.7874  0.9705
 8327SOL    HW229829   2.734   4.996   3.930 -0.1343 -1.7877 -0.5385
 8328SOL     OW29830   3.967   5.577   3.532  0.3628  0.1420 -0.0133
 8328SOL    HW129831   3.914   5.636   3.585  1.9275  0.8298  0.8820
 8328SOL    HW229832   3.951   5.490   3.568 -0.7573  0.2148 -0.3060
 8329SOL     OW29833   2.899   3.714   3.462 -0.3240 -0.1301  0.3378
 8329SOL    HW129834   2.920   3.665   3.383  0.0202  0.4949  0.0412
 8329SOL    HW229835   2.869   3.800   3.431 -1.7668 -0.4209  0.8119
 8330SOL     OW29836   0.859   1.371   7.153 -0.2613 -0.2625 -0.0438
 8330SOL    HW129837   0.794   1.428   7.195 -0.3218 -0.0468 -0.4219
 8330SOL    HW229838   0.920   1.432   7.110  0.7991 -0.4160  1.1602
 8331SOL     OW29839   0.087   4.139   2.491 -0.1975 -0.4063 -0.1421
 8331SOL    HW129840   0.161   4.126   2.550  0.1120 -1.5023 -0.7304
 8331SOL    HW229841   0.014   4.094   2.533 -0.5656  0.7608  0.4866
 8332SOL     OW29842   3.281   3.781   4.207 -0.3151  0.1035  0.3652
 8332SOL    HW129843   3.366   3.802   4.246 -0.5894  1.7594  0.1448
 8332SOL    HW229844   3.240   3.721   4.269  0.6069  0.0723  0.9576
 8333SOL     OW29845   2.732   4.419   1.166 -0.0622  0.1333  0.1154
 8333SOL    HW129846   2.654   4.446   1.117 -1.1220  0.3588  1.8567
 8333SOL    HW229847   2.768   4.500   1.200  0.4839 -0.0499 -0.0203
 8334SOL     OW29848   4.126   3.642   2.761 -0.1996  0.2134 -0.0680
 8334SOL    HW129849   4.211   3.653   2.804 -0.0558  1.4702 -0.6264
 8334SOL    HW229850   4.079   3.723   2.781 -0.8844 -0.0470 -0.6118
 8335SOL     OW29851   3.133   2.052   2.647 -0.3243 -0.3338 -0.3335
 8335SOL    HW129852   3.221   2.025   2.621  0.0674 -0.1876  0.7698
 8335SOL    HW229853   3.085   1.970   2.656 -0.1421 -0.4498 -0.4094
 8336SOL     OW29854   2.464   2.809   4.440 -0.3616  0.1393 -0.0445
 8336SOL    HW129855   2.531   2.806   4.507  0.2883  0.5887 -0.6603
 8336SOL    HW229856   2.486   2.886   4.387 -0.1582 -0.8510 -1.4753
 8337SOL     OW29857   3.125   3.212   5.764  0.4956 -0.1109 -0.1352
 8337SOL    HW129858   3.138   3.216   5.858  1.1200 -1.4501 -0.1490
 8337SOL    HW229859   3.050   3.270   5.748  0.6799  0.4974  1.1077
 8338SOL     OW29860   3.494   3.264   3.913  0.5153 -0.1062  0.5466
 8338SOL    HW129861   3.478   3.263   4.007 -0.7027  2.1908  0.4186
 8338SOL    HW229862   3.514   3.172   3.891 -0.4934 -0.9281  2.7865
 8339SOL     OW29863   3.633   7.683   3.281  0.0761  0.4467  0.4068
 8339SOL    HW129864   3.634   7.776   3.302  3.9643  0.7184 -0.2353
 8339SOL    HW229865   3.555   7.671   3.227 -0.4509  3.3371  0.3915
 8340SOL     OW29866   3.048   4.636   6.113  0.0287  0.3655 -0.7686
 8340SOL    HW129867   3.094   4.715   6.142 -1.0838  1.4409 -1.8228
 8340SOL    HW229868   2.977   4.669   6.058  0.3707 -1.4433 -2.3783
 8341SOL     OW29869   2.252   6.202   3.507  0.4779  0.0992  0.7831
 8341SOL    HW129870   2.335   6.218   3.461  0.4111  2.7620  1.3960
 8341SOL    HW229871   2.243   6.107   3.508  2.8108 -0.2201 -0.5512
 8342SOL     OW29872   1.930   2.644   5.674  0.2837 -0.2242 -0.1269
 8342SOL    HW129873   1.943   2.719   5.615  1.3927 -0.3462 -0.0545
 8342SOL    HW229874   1.838   2.620   5.663  0.2650  0.2981 -1.1612
 8343SOL     OW29875   3.606   3.914   3.728 -0.6627  0.4490 -0.5423
 8343SOL    HW129876   3.666   3.987   3.743 -0.0056 -0.6683  3.5055
 8343SOL    HW229877   3.663   3.842   3.702 -0.7383  0.2895 -0.2624
 8344SOL     OW29878   0.933   6.752   5.081  0.3114 -0.0832 -0.2325
 8344SOL    HW129879   1.005   6.739   5.019  0.6492  2.4144 -0.4672
 8344SOL    HW229880   0.870   6.806   5.034 -0.2718  0.3596  1.0011
 8345SOL     OW29881   2.529   5.737   5.026 -0.9420 -0.2300 -0.4913
 8345SOL    HW129882   2.491   5.650   5.019 -0.1343 -0.6955  0.5449
 8345SOL    HW229883   2.508   5.779   4.943 -1.7908 -1.2253 -0.8065
 8346SOL     OW29884   4.131   3.375   6.362  0.5451 -0.0722  0.2558
 8346SOL    HW129885   4.107   3.307   6.425 -0.3670 -0.5180 -0.5504
 8346SOL    HW229886   4.154   3.327   6.282  3.3907  0.3642  0.6922
 8347SOL     OW29887   3.816   2.983   6.625 -0.1158  0.2218  0.1035
 8347SOL    HW129888   3.849   3.018   6.542 -0.3742  0.5614  0.1371
 8347SOL    HW229889   3.809   2.889   6.611  0.4468  0.2040 -0.0476
 8348SOL     OW29890   1.458   2.985   5.100  0.4064  0.2034 -0.1717
 8348SOL    HW129891   1.486   2.941   5.180  0.4093 -0.5035 -0.5553
 8348SOL    HW229892   1.403   2.921   5.056  0.4405  0.5721 -0.7555
 8349SOL     OW29893   1.387   4.837   5.696 -0.1783 -0.1735 -0.3359
 8349SOL    HW129894   1.339   4.768   5.744  1.0826 -1.5242 -0.9448
 8349SOL    HW229895   1.394   4.803   5.607  1.6208  0.1169 -0.3346
 8350SOL     OW29896   1.889   3.803   4.471 -0.1017 -0.3183  0.4535
 8350SOL    HW129897   1.915   3.889   4.439 -0.7357 -0.3521 -0.2035
 8350SOL    HW229898   1.843   3.764   4.397 -0.4725 -0.9253  0.9959
 8351SOL     OW29899   3.029   6.052   0.702 -0.1964 -0.3246 -0.2065
 8351SOL    HW129900   3.083   6.025   0.776 -1.1637  0.2753  0.7428
 8351SOL    HW229901   2.950   5.999   0.708  0.3832 -1.4361 -1.7820
 8352SOL     OW29902   1.717   3.223   5.338  0.0932  0.2579  0.0584
 8352SOL    HW129903   1.643   3.277   5.310  0.0288 -0.0442 -0.3773
 8352SOL    HW229904   1.709   3.219   5.433  0.1068  1.0158  0.0962
 8353SOL     OW29905   1.486   3.151   4.350 -0.3357 -0.0149 -0.1184
 8353SOL    HW129906   1.488   3.058   4.372 -1.0078 -0.1574 -0.6335
 8353SOL    HW229907   1.524   3.155   4.262 -1.5634  0.0221 -0.6600
 8354SOL     OW29908   2.124   3.242   4.267 -0.1047 -0.5678 -0.2353
 8354SOL    HW129909   2.106   3.309   4.333  0.3840 -0.9480  0.2985
 8354SOL    HW229910   2.182   3.180   4.311  0.1564 -0.8815 -0.9978
 8355SOL     OW29911   4.712   2.597   7.352 -0.0095 -0.6946  0.2644
 8355SOL    HW129912   4.638   2.652   7.378  0.1386 -0.7978  0.9114
 8355SOL    HW229913   4.675   2.510   7.339 -0.1114 -0.6079 -0.0298
 8356SOL     OW29914   1.878   4.293   3.093  0.1087  0.2710  0.1515
 8356SOL    HW129915   1.837   4.341   3.165 -2.2929  0.5067 -1.2350
 8356SOL    HW229916   1.809   4.287   3.027  1.7989 -1.0760 -1.6037
 8357SOL     OW29917   5.420   2.848   5.478  0.1533  0.0124  0.0335
 8357SOL    HW129918   5.365   2.773   5.501 -0.2979  0.2865 -0.1409
 8357SOL    HW229919   5.509   2.815   5.485 -0.0642 -0.8336 -1.0394
 8358SOL     OW29920   1.237   4.936   6.167  0.0118  0.1834  0.0940
 8358SOL    HW129921   1.234   4.985   6.249  0.4050  0.5881 -0.1270
 8358SOL    HW229922   1.147   4.932   6.137  0.1773  2.5644 -0.9325
 8359SOL     OW29923   5.356   5.270   3.746 -0.5086  0.2896 -0.4823
 8359SOL    HW129924   5.292   5.323   3.698 -0.7972 -0.0801 -0.5193
 8359SOL    HW229925   5.373   5.195   3.688 -1.0861 -0.3137  0.1016
 8360SOL     OW29926   4.150   3.144   5.184  0.0089  0.7187 -0.1253
 8360SOL    HW129927   4.196   3.176   5.106  0.2557  1.5567  0.3481
 8360SOL    HW229928   4.212   3.083   5.225 -1.1517 -1.9222 -2.0074
 8361SOL     OW29929   4.168   3.078   6.955  0.2187 -0.0028  0.2754
 8361SOL    HW129930   4.195   3.156   7.003  0.8627  0.5799 -0.9694
 8361SOL    HW229931   4.081   3.100   6.921 -0.2033 -0.3855  1.0749
 8362SOL     OW29932   5.397   3.358   3.198  0.6233  1.1625 -0.5206
 8362SOL    HW129933   5.477   3.304   3.197  0.0981  0.3716 -1.0504
 8362SOL    HW229934   5.335   3.308   3.146 -0.5450  1.2832  0.7098
 8363SOL     OW29935   3.340   2.937   3.833  0.2242 -0.5642  0.0519
 8363SOL    HW129936   3.282   2.872   3.873  1.1388 -1.4470  0.0025
 8363SOL    HW229937   3.299   2.958   3.750 -0.6273 -0.2829  0.5302
 8364SOL     OW29938   3.780   5.058   3.319  0.2097  0.2593  0.1912
 8364SOL    HW129939   3.850   5.107   3.276  0.1896  1.9969  2.0136
 8364SOL    HW229940   3.746   5.000   3.250  0.9279  2.0559 -1.7811
 8365SOL     OW29941   3.874   4.865   4.346  0.3298 -0.6809 -0.0932
 8365SOL    HW129942   3.781   4.871   4.366  0.5808 -0.4584  1.0869
 8365SOL    HW229943   3.902   4.783   4.387  0.9896  0.0929  1.0564
 8366SOL     OW29944   2.273   6.162   6.072  0.5995  0.0888  0.0236
 8366SOL    HW129945   2.212   6.111   6.125  1.3911 -2.9717 -1.7848
 8366SOL    HW229946   2.322   6.214   6.136 -0.6451 -0.9763  1.9430
 8367SOL     OW29947   2.529   3.181   3.977  0.4115  0.0601  0.1428
 8367SOL    HW129948   2.539   3.085   3.974 -0.3232 -0.0100 -1.8940
 8367SOL    HW229949   2.434   3.194   3.984  0.2578  0.5724 -2.0393
 8368SOL     OW29950   2.713   2.516   5.113 -0.1082  0.0995  0.1068
 8368SOL    HW129951   2.683   2.607   5.117  2.4063  1.0386 -0.4989
 8368SOL    HW229952   2.704   2.484   5.203  0.7987  1.6245  0.7795
 8369SOL     OW29953   1.363   3.659   4.069 -0.3766 -0.2598 -0.2365
 8369SOL    HW129954   1.443   3.688   4.112 -1.1511 -1.6032  2.3403
 8369SOL    HW229955   1.300   3.729   4.088 -0.2173  0.0749 -0.9281
 8370SOL     OW29956   3.097   5.013   4.065  0.4371  0.4364 -0.3911
 8370SOL    HW129957   3.166   5.061   4.021  3.0070 -0.2276  2.5557
 8370SOL    HW229958   3.061   5.076   4.128 -0.5211  0.2726 -0.7578
 8371SOL     OW29959   3.821   5.918   1.967  0.2298 -0.0540  0.0533
 8371SOL    HW129960   3.898   5.973   1.975  0.0752  0.1720 -0.0148
 8371SOL    HW229961   3.837   5.845   2.027  0.7569 -0.3124 -0.3942
 8372SOL     OW29962   3.145   3.754   5.682  0.2554 -0.1265  0.0291
 8372SOL    HW129963   3.168   3.744   5.590  0.4649 -3.1076  0.3123
 8372SOL    HW229964   3.051   3.740   5.686  0.1147  0.7662  0.2253
 8373SOL     OW29965   1.087   4.334   4.573  0.8846 -0.3466 -0.0968
 8373SOL    HW129966   1.007   4.299   4.612 -0.2945  0.9206 -1.2585
 8373SOL    HW229967   1.135   4.371   4.648  0.0132 -0.4317  0.5251
 8374SOL     OW29968   0.975   4.326   4.328  0.1352 -0.2527  0.2742
 8374SOL    HW129969   1.048   4.339   4.389  2.6018 -1.7516 -2.1290
 8374SOL    HW229970   0.934   4.245   4.359  1.4104 -1.0439  0.0127
 8375SOL     OW29971   3.246   2.902   5.252  0.3415 -0.6465  0.0887
 8375SOL    HW129972   3.251   2.819   5.300 -0.1983 -0.9272 -0.3359
 8375SOL    HW229973   3.241   2.969   5.321  1.4802 -0.8996  0.4410
 8376SOL     OW29974   1.623   2.991   4.132  0.0397  0.5236 -0.2752
 8376SOL    HW129975   1.567   2.914   4.141  0.5151  0.0721 -1.0325
 8376SOL    HW229976   1.709   2.963   4.163 -0.2403  1.3655  1.3774
 8377SOL     OW29977   3.380   2.546   4.357  0.2033 -0.5618  0.0221
 8377SOL    HW129978   3.383   2.547   4.261  1.0283 -0.6391  0.0411
 8377SOL    HW229979   3.449   2.485   4.382  1.6090  1.2431  0.7220
 8378SOL     OW29980   1.573   5.361   5.465  0.5473 -0.1657 -0.3191
 8378SOL    HW129981   1.529   5.348   5.381 -1.8709 -0.4295  0.9012
 8378SOL    HW229982   1.558   5.280   5.513  2.4277 -0.2538  0.1790
 8379SOL     OW29983   1.977   5.240   6.311  0.7613  0.4579  0.1257
 8379SOL    HW129984   2.046   5.239   6.245 -1.6130  0.5997 -2.5523
 8379SOL    HW229985   1.911   5.299   6.276 -0.7935  0.2576  2.4939
 8380SOL     OW29986   1.755   8.118   4.930  0.0371 -0.0974 -0.1790
 8380SOL    HW129987   1.834   8.074   4.960 -0.4349 -1.9066 -1.3456
 8380SOL    HW229988   1.769   8.211   4.948  1.0570 -0.7018  2.5489
 8381SOL     OW29989   3.503   3.919   4.988 -0.0717 -0.5469  0.0887
 8381SOL    HW129990   3.557   3.962   5.055  0.2740 -1.3081  0.3107
 8381SOL    HW229991   3.417   3.960   4.998  0.3356  0.3540  0.0414
 8382SOL     OW29992   5.675   1.823   5.897  0.7999 -0.1129  0.4184
 8382SOL    HW129993   5.675   1.778   5.982  1.5926  1.4126  1.2642
 8382SOL    HW229994   5.583   1.832   5.875  0.5511 -0.0104  1.4221
 8383SOL     OW29995   0.890   3.544   3.727 -0.0585 -0.0997 -0.4191
 8383SOL    HW129996   0.980   3.513   3.717 -0.3696 -0.5967 -1.8537
 8383SOL    HW229997   0.848   3.477   3.782  0.1791 -0.4257 -0.6274
 8384SOL     OW29998   0.708   5.609   3.445 -0.3505  0.4754 -0.2736
 8384SOL    HW129999   0.747   5.598   3.532  0.0917 -0.0638 -0.5359
 8384SOL    HW230000   0.621   5.569   3.453 -0.1234 -0.0156 -0.2092
 8385SOL     OW30001   1.832   4.333   4.212  0.4464  0.2155 -0.2990
 8385SOL    HW130002   1.744   4.366   4.227  1.9601  5.2922 -0.6253
 8385SOL    HW230003   1.839   4.324   4.117 -0.0084 -1.6009 -0.2061
 8386SOL     OW30004   1.109   6.139   5.774  0.3937  0.1112 -0.1526
 8386SOL    HW130005   1.103   6.213   5.714 -0.4166  0.1080 -0.0890
 8386SOL    HW230006   1.163   6.075   5.729 -0.5304 -0.0539 -1.0514
 8387SOL     OW30007   0.883   7.215   3.733 -0.5428  0.3827  0.8324
 8387SOL    HW130008   0.788   7.218   3.741 -0.5083  0.2201  1.3302
 8387SOL    HW230009   0.903   7.125   3.708 -0.5544  0.5446  0.2377
 8388SOL     OW30010   2.811   2.786   3.788 -0.4053 -0.5724  0.3255
 8388SOL    HW130011   2.795   2.710   3.732  0.3534 -0.4170 -0.1148
 8388SOL    HW230012   2.801   2.861   3.729 -2.5705 -0.2145  1.0473
 8389SOL     OW30013   3.896   3.043   4.538  0.2374  0.1235 -0.2306
 8389SOL    HW130014   3.883   2.952   4.565  0.8575  0.2825  0.6308
 8389SOL    HW230015   3.931   3.036   4.449 -1.3074 -0.4227 -0.8292
 8390SOL     OW30016   0.375   6.243   5.823 -0.4591 -0.6222  0.1012
 8390SOL    HW130017   0.424   6.317   5.788 -0.5991 -1.0274 -0.9777
 8390SOL    HW230018   0.316   6.282   5.887  1.5633 -0.1651  1.8102
 8391SOL     OW30019   3.056   2.877   4.455  0.2680 -0.1125  0.1722
 8391SOL    HW130020   3.093   2.789   4.465  2.7355  0.8545  0.4006
 8391SOL    HW230021   3.077   2.921   4.538 -0.1615  0.9287 -0.2583
 8392SOL     OW30022   4.210   4.585   4.548  0.2979 -0.1557 -0.2245
 8392SOL    HW130023   4.260   4.603   4.468  1.3820 -0.6767  0.3097
 8392SOL    HW230024   4.207   4.669   4.594  1.7473 -0.3529  0.2955
 8393SOL     OW30025   3.068   2.651   5.135  0.1153 -0.3685 -0.6002
 8393SOL    HW130026   3.042   2.560   5.150  2.8184 -1.3160 -1.1064
 8393SOL    HW230027   3.094   2.684   5.221 -1.5780  0.2555 -0.2752
 8394SOL     OW30028   6.066   3.082   5.495 -1.3119  0.1159 -0.4765
 8394SOL    HW130029   6.118   3.037   5.561 -2.1918 -1.7896 -1.0049
 8394SOL    HW230030   6.027   3.156   5.542 -0.5110 -0.1534  0.6626
 8395SOL     OW30031   2.109   4.803   4.399 -0.1852 -0.3303 -0.5098
 8395SOL    HW130032   2.079   4.892   4.380 -2.8670 -0.9785  0.2704
 8395SOL    HW230033   2.139   4.770   4.314 -0.6361  0.8016 -1.1397
 8396SOL     OW30034   2.403   2.765   5.439  0.1196 -0.1050  0.8182
 8396SOL    HW130035   2.358   2.834   5.488 -1.4565 -0.5461  0.0407
 8396SOL    HW230036   2.465   2.728   5.502  1.3984  2.3156  1.1284
 8397SOL     OW30037   4.011   3.313   5.900 -0.0537 -0.5523 -0.2743
 8397SOL    HW130038   3.963   3.385   5.860  0.1228 -1.0137 -1.3599
 8397SOL    HW230039   3.943   3.256   5.937 -0.2152 -0.0792  0.1691
 8398SOL     OW30040   4.394   5.390   2.126  0.1292 -0.3901 -0.0857
 8398SOL    HW130041   4.306   5.366   2.098 -0.4364 -0.4675  1.6202
 8398SOL    HW230042   4.444   5.309   2.123  0.1039 -0.3814 -0.8899
 8399SOL     OW30043   4.126   6.802   3.707  0.0853 -0.2740 -0.2129
 8399SOL    HW130044   4.135   6.835   3.618 -0.0221  1.1979  0.2984
 8399SOL    HW230045   4.046   6.750   3.706  0.0539 -0.2177 -0.9431
 8400SOL     OW30046   3.182   4.018   4.087 -0.3421 -0.0530  0.1239
 8400SOL    HW130047   3.258   4.030   4.029 -0.5297 -0.0964 -0.1326
 8400SOL    HW230048   3.196   3.931   4.125 -0.5191 -0.2754 -0.3097
 8401SOL     OW30049   2.715   5.372   3.310 -0.7255 -0.4525 -0.0297
 8401SOL    HW130050   2.627   5.409   3.312 -1.1076 -1.2440  2.8504
 8401SOL    HW230051   2.742   5.370   3.402  2.1625 -0.6313 -0.7800
 8402SOL     OW30052   4.068   2.886   5.755  0.1657  0.0759  0.2261
 8402SOL    HW130053   4.127   2.810   5.757  0.2404  0.1172 -0.3792
 8402SOL    HW230054   3.981   2.848   5.764  0.1483 -0.1498 -0.8085
 8403SOL     OW30055   1.554   3.060   4.842 -0.3264  0.4281  0.4222
 8403SOL    HW130056   1.552   3.050   4.937  0.4220 -0.6847  0.3386
 8403SOL    HW230057   1.463   3.052   4.814 -0.2639 -2.6613  0.7585
 8404SOL     OW30058   6.033   2.741   3.437  0.1113 -0.1904  0.5281
 8404SOL    HW130059   6.046   2.698   3.353 -1.1147 -0.1431  0.2960
 8404SOL    HW230060   6.105   2.709   3.492  1.7149  0.8199 -0.9084
 8405SOL     OW30061   2.142   3.890   5.133 -0.2627  0.2203  0.1819
 8405SOL    HW130062   2.106   3.944   5.063 -0.3428  1.3060  1.0274
 8405SOL    HW230063   2.072   3.828   5.155  0.6024 -1.8648 -2.3364
 8406SOL     OW30064   5.966   3.955   2.897  0.5603  0.6538 -0.9365
 8406SOL    HW130065   5.918   4.028   2.859 -0.2129  0.5833 -0.1179
 8406SOL    HW230066   6.021   3.923   2.825 -1.7312 -0.2613 -2.4139
 8407SOL     OW30067   0.620   3.705   4.286 -0.0944 -0.1072 -0.0381
 8407SOL    HW130068   0.637   3.611   4.277  1.1189 -0.0133  1.0425
 8407SOL    HW230069   0.544   3.721   4.230 -0.2402 -1.7044 -0.3375
 8408SOL     OW30070   1.080   4.275   3.258 -0.2544  0.2980  0.1704
 8408SOL    HW130071   1.100   4.281   3.165  0.4170  0.1725  0.2982
 8408SOL    HW230072   1.146   4.330   3.300 -0.5485  0.3468  0.5730
 8409SOL     OW30073   1.828   6.937   5.662  0.5098 -0.3912 -0.4306
 8409SOL    HW130074   1.871   7.018   5.689 -0.9426  0.1422  0.4089
 8409SOL    HW230075   1.762   6.965   5.598  1.0700 -1.1337 -1.3610
 8410SOL     OW30076   2.361   5.456   4.023  0.0320  0.1618  0.3472
 8410SOL    HW130077   2.345   5.362   4.021  1.8399 -0.1844  0.7035
 8410SOL    HW230078   2.302   5.489   4.090  0.4986 -0.9673  1.3490
 8411SOL     OW30079   2.505   5.125   6.227  0.2279  0.7907  0.1748
 8411SOL    HW130080   2.573   5.185   6.197 -0.0155  0.5195 -0.9975
 8411SOL    HW230081   2.551   5.057   6.276  0.5017  1.9313  1.5472
 8412SOL     OW30082   1.908   3.700   4.751 -0.0890  0.1240 -0.0234
 8412SOL    HW130083   1.816   3.695   4.728 -0.2066 -0.4606  0.5254
 8412SOL    HW230084   1.939   3.782   4.712  0.0780 -1.3849 -3.3716
 8413SOL     OW30085   1.939   1.725   2.508 -0.1269 -0.1705  0.3319
 8413SOL    HW130086   2.026   1.699   2.477 -1.5011 -1.7582 -2.4850
 8413SOL    HW230087   1.910   1.652   2.562 -0.6748 -0.8187 -0.8055
 8414SOL     OW30088   3.489   4.218   4.209  0.4385  0.5629 -0.0313
 8414SOL    HW130089   3.516   4.217   4.117 -0.0927  1.3077 -0.2021
 8414SOL    HW230090   3.475   4.126   4.231  1.1101  0.3328 -0.5259
 8415SOL     OW30091   1.371   7.711   3.631 -0.4650 -0.7358 -0.1106
 8415SOL    HW130092   1.307   7.734   3.564  0.1249 -1.1924 -0.8399
 8415SOL    HW230093   1.443   7.773   3.618 -0.2898 -0.9133  0.0033
 8416SOL     OW30094   2.783   3.340   5.499  0.0107  1.0535 -0.2374
 8416SOL    HW130095   2.807   3.413   5.557 -2.1813  1.7831 -0.1515
 8416SOL    HW230096   2.692   3.321   5.521 -0.1731 -0.1844 -1.8779
 8417SOL     OW30097   2.392   5.239   2.286  0.0126 -0.2637  0.0576
 8417SOL    HW130098   2.346   5.219   2.368 -0.0966 -1.0121 -0.1791
 8417SOL    HW230099   2.484   5.222   2.306 -0.0503 -0.7529 -0.0667
 8418SOL     OW30100   3.551   5.011   3.888 -0.5985 -0.1003  0.4680
 8418SOL    HW130101   3.519   4.956   3.816 -2.1834 -1.1042  1.8778
 8418SOL    HW230102   3.577   4.950   3.956  1.2939  0.8241  0.6505
 8419SOL     OW30103   2.219   2.501   4.608 -0.0371 -0.0901  0.6615
 8419SOL    HW130104   2.125   2.485   4.609  0.1358 -1.1985  0.2378
 8419SOL    HW230105   2.258   2.414   4.605  1.0009  0.3655  0.5609
 8420SOL     OW30106   3.832   3.004   2.046 -0.1327 -0.6188  0.7784
 8420SOL    HW130107   3.738   3.003   2.068 -0.1954 -1.4940  0.4938
 8420SOL    HW230108   3.874   3.043   2.123 -0.8146  0.7225  0.5118
 8421SOL     OW30109   3.323   4.204   3.901 -0.1327  0.4419 -0.4604
 8421SOL    HW130110   3.327   4.244   3.814 -1.4681  0.1682 -0.6722
 8421SOL    HW230111   3.229   4.189   3.916  0.2099 -1.1347  0.2953
 8422SOL     OW30112   2.476   2.648   5.665  0.1756 -0.1071 -0.0477
 8422SOL    HW130113   2.534   2.588   5.712  0.9057 -0.5096 -1.3919
 8422SOL    HW230114   2.391   2.605   5.669  0.7363 -1.4188 -1.2093
 8423SOL     OW30115   2.443   7.013   3.351  0.1923  0.4584 -0.3416
 8423SOL    HW130116   2.481   7.064   3.423  0.0569 -0.9502  0.7683
 8423SOL    HW230117   2.487   6.929   3.357 -1.5063 -0.4674 -0.4265
 8424SOL     OW30118   3.462   5.551   9.654 -0.0574  0.8539 -0.9004
 8424SOL    HW130119   3.456   5.516   9.743  0.4398  0.5554 -0.9753
 8424SOL    HW230120   3.372   5.569   9.628 -0.2678  0.2441 -0.6066
 8425SOL     OW30121   3.780   4.806   3.643  1.0181 -0.8285 -0.0180
 8425SOL    HW130122   3.803   4.769   3.728 -0.7420  0.0453  0.9046
 8425SOL    HW230123   3.797   4.900   3.653  1.2371 -0.7814 -0.7934
 8426SOL     OW30124   2.730   5.300   6.140  0.3298  0.7938  0.1655
 8426SOL    HW130125   2.794   5.239   6.178  0.6892  0.9257 -0.2149
 8426SOL    HW230126   2.743   5.381   6.188 -1.1882  0.1710  1.7152
 8427SOL     OW30127   0.959   3.997   6.067 -0.1829  1.1236 -0.3772
 8427SOL    HW130128   1.009   4.069   6.028 -0.0185  1.9996  1.3416
 8427SOL    HW230129   0.874   4.036   6.088 -0.7005  0.3330 -0.9653
 8428SOL     OW30130   2.328   5.095   4.341  0.3213 -0.2191  0.2214
 8428SOL    HW130131   2.285   5.146   4.273  0.3042 -0.0357  0.3683
 8428SOL    HW230132   2.266   5.096   4.415 -0.5860 -2.1215 -0.4393
 8429SOL     OW30133   3.598   2.824   1.976  0.5147  0.6026  0.2712
 8429SOL    HW130134   3.583   2.891   2.042 -1.2815  0.1759  0.3448
 8429SOL    HW230135   3.581   2.868   1.893 -0.3234  0.3379  0.2980
 8430SOL     OW30136   2.509   3.966   4.733  0.2182 -0.1618 -0.3735
 8430SOL    HW130137   2.430   3.916   4.713  0.2431  0.4076 -2.0623
 8430SOL    HW230138   2.580   3.917   4.692  0.8743 -0.9522  1.5705
 8431SOL     OW30139   2.937   4.428   3.460 -0.7544 -0.0559  0.1282
 8431SOL    HW130140   2.847   4.456   3.477 -1.0333 -0.3633 -0.8123
 8431SOL    HW230141   2.990   4.481   3.520 -1.2431  2.5698 -1.6206
 8432SOL     OW30142   1.068   3.100   6.393 -0.1783  0.7980  0.3166
 8432SOL    HW130143   1.050   3.153   6.471 -2.1346  0.0323  0.4308
 8432SOL    HW230144   1.028   3.148   6.321  2.5900  2.0908 -0.5199
 8433SOL     OW30145   2.984   3.502   6.315  0.1991  0.5444 -0.4015
 8433SOL    HW130146   2.958   3.574   6.257 -1.0512  1.7559  1.5454
 8433SOL    HW230147   3.024   3.545   6.391  1.5662 -0.9683 -0.1945
 8434SOL     OW30148   2.807   2.370   3.264  0.6507  0.0723 -0.1020
 8434SOL    HW130149   2.723   2.416   3.263  1.7721  2.2395 -0.2261
 8434SOL    HW230150   2.797   2.299   3.201 -0.5737  1.2948 -1.3474
 8435SOL     OW30151   3.519   3.768   1.040  0.3465 -0.9959  1.0249
 8435SOL    HW130152   3.514   3.857   1.005  0.6027 -0.8988  1.2336
 8435SOL    HW230153   3.596   3.730   0.999  1.2047 -0.5677  2.1766
 8436SOL     OW30154   0.578   5.535   4.576  0.2420  0.3981  0.1581
 8436SOL    HW130155   0.536   5.501   4.497  0.7465 -1.8435  0.7824
 8436SOL    HW230156   0.556   5.472   4.644 -1.3543  2.9548  2.2425
 8437SOL     OW30157   2.045   1.391   4.099 -0.5789 -0.7346 -0.3182
 8437SOL    HW130158   2.119   1.451   4.095 -0.7784 -0.4089  0.6979
 8437SOL    HW230159   1.977   1.432   4.045 -0.6590 -0.1268  0.2414
 8438SOL     OW30160   2.190   6.145   4.879  0.1813  0.2127 -0.2261
 8438SOL    HW130161   2.164   6.234   4.903  0.2967  0.8860 -2.3149
 8438SOL    HW230162   2.107   6.098   4.869 -0.0329  0.7964 -1.4452
 8439SOL     OW30163   2.402   4.737   2.986 -0.1487  0.7622 -0.1917
 8439SOL    HW130164   2.457   4.667   2.949  1.2842  0.5712  2.0831
 8439SOL    HW230165   2.452   4.817   2.969 -0.6030  0.9461 -0.6631
 8440SOL     OW30166   1.193   7.201   4.208  0.2577 -0.2817 -0.3701
 8440SOL    HW130167   1.120   7.261   4.219 -0.1423 -0.5249 -1.5327
 8440SOL    HW230168   1.177   7.130   4.270 -1.6655 -1.4181 -2.0212
 8441SOL     OW30169   0.731   4.517   4.310  0.0303  0.3763  0.3322
 8441SOL    HW130170   0.749   4.465   4.232 -0.7078  0.1346  0.3185
 8441SOL    HW230171   0.791   4.483   4.376  0.5054  0.4368 -0.0659
 8442SOL     OW30172   3.803   3.485   8.647  0.0427 -0.4518  0.1154
 8442SOL    HW130173   3.807   3.550   8.718 -0.4930  1.2077 -1.3215
 8442SOL    HW230174   3.710   3.467   8.636  0.0706 -0.1731 -0.6163
 8443SOL     OW30175   1.427   4.989   7.739  0.3437 -0.5437 -0.6930
 8443SOL    HW130176   1.341   5.023   7.760  0.0628 -1.5998 -0.0793
 8443SOL    HW230177   1.458   4.947   7.819  2.0882  1.0973 -0.4217
 8444SOL     OW30178   2.751   2.336   6.822  0.0180  0.0237 -0.5821
 8444SOL    HW130179   2.672   2.344   6.767 -1.7123 -0.6797  1.6376
 8444SOL    HW230180   2.755   2.243   6.844 -1.5685  0.6966  3.3648
 8445SOL     OW30181   2.055   5.076   7.242 -0.6997 -0.1123 -0.5550
 8445SOL    HW130182   1.982   5.066   7.303  0.1889 -2.6491  0.2619
 8445SOL    HW230183   2.090   4.987   7.233  1.4614  0.8023 -1.9640
 8446SOL     OW30184   3.215   2.973   7.485 -0.8009 -0.2088  0.0272
 8446SOL    HW130185   3.169   3.016   7.412 -0.6852 -0.6565 -0.3078
 8446SOL    HW230186   3.190   3.025   7.561  1.0407  1.8077 -0.6419
 8447SOL     OW30187   1.023   7.874   4.938  0.1877 -0.2017 -0.2908
 8447SOL    HW130188   1.038   7.968   4.948 -0.1698 -0.1319 -0.3813
 8447SOL    HW230189   1.035   7.838   5.026  0.3548 -0.0763 -0.2617
 8448SOL     OW30190   1.508   3.446   7.342  0.1947 -0.4977 -0.2364
 8448SOL    HW130191   1.549   3.369   7.303  1.9048 -0.1855  0.8209
 8448SOL    HW230192   1.486   3.419   7.432  2.6088  0.7187  0.8212
 8449SOL     OW30193   0.923   4.579   6.668 -0.3627 -0.3826 -0.0526
 8449SOL    HW130194   0.839   4.566   6.713 -1.0291 -0.5593 -1.2874
 8449SOL    HW230195   0.908   4.544   6.580  0.7127  0.4666 -0.5992
 8450SOL     OW30196   2.430   3.476   6.440 -0.0678  0.6998  0.3087
 8450SOL    HW130197   2.382   3.458   6.359 -0.0135  1.4694  0.0895
 8450SOL    HW230198   2.516   3.437   6.426  0.1636  1.3900 -0.2838
 8451SOL     OW30199   1.457   1.952   6.814 -0.4645 -0.0168 -0.3549
 8451SOL    HW130200   1.489   1.984   6.730 -1.9233 -0.2837 -1.0411
 8451SOL    HW230201   1.532   1.963   6.873  0.2974  1.0468 -1.4474
 8452SOL     OW30202   1.653   3.578   4.725  1.0391 -0.0985 -0.2036
 8452SOL    HW130203   1.560   3.599   4.739  1.1565  1.7598 -1.8041
 8452SOL    HW230204   1.653   3.484   4.709 -0.6016 -0.1161 -0.3471
 8453SOL     OW30205   2.797   6.734   7.650 -0.3841 -0.0708 -0.2099
 8453SOL    HW130206   2.838   6.792   7.586 -0.8317  0.9819  0.4420
 8453SOL    HW230207   2.720   6.699   7.605 -0.4424  0.3049 -0.4049
 8454SOL     OW30208   2.866   4.027   0.099 -0.3627  0.8473 -0.3401
 8454SOL    HW130209   2.907   4.072   0.172  0.3018  1.5385 -1.1221
 8454SOL    HW230210   2.801   3.969   0.140  0.8224  0.3189  0.8680
 8455SOL     OW30211   3.258   5.654   7.362 -0.5853 -0.3533 -0.0566
 8455SOL    HW130212   3.241   5.640   7.455  1.4439  0.3684  0.4777
 8455SOL    HW230213   3.247   5.748   7.349 -0.5803 -0.4095 -0.4959
 8456SOL     OW30214   9.372   5.375   6.804  0.2022  0.5406  0.1466
 8456SOL    HW130215   9.393   5.294   6.758  0.5296  0.5314  0.3084
 8456SOL    HW230216   9.279   5.370   6.822 -0.3562  1.3970 -2.2052
 8457SOL     OW30217   0.391   2.184   6.791  0.1887  0.9237  0.3791
 8457SOL    HW130218   0.457   2.153   6.853  1.3484  1.3288 -0.6166
 8457SOL    HW230219   0.433   2.175   6.705 -0.8518  1.7169 -0.2277
 8458SOL     OW30220   3.039   4.499   7.478  0.5782  0.3660 -0.1402
 8458SOL    HW130221   3.003   4.430   7.423  1.0620 -0.0234  0.0280
 8458SOL    HW230222   3.119   4.462   7.514  0.3185  0.6610  0.7469
 8459SOL     OW30223   1.564   4.428   6.678 -0.7742 -0.0163  0.1550
 8459SOL    HW130224   1.564   4.367   6.605  0.5090 -1.6277  1.4347
 8459SOL    HW230225   1.522   4.507   6.644 -2.1815 -1.4748 -1.6518
 8460SOL     OW30226   3.294   6.605   8.235  0.0763  0.3000 -0.1107
 8460SOL    HW130227   3.285   6.601   8.330  0.0157 -0.6376 -0.1433
 8460SOL    HW230228   3.347   6.683   8.219  1.3268 -0.3247  0.7948
 8461SOL     OW30229   2.287   3.073   7.268  0.5453  0.1804  0.7118
 8461SOL    HW130230   2.236   3.124   7.205 -0.1254 -2.4091 -0.9932
 8461SOL    HW230231   2.365   3.046   7.220  0.4872 -1.0448  1.2497
 8462SOL     OW30232   3.044   5.594   6.944 -0.1615 -0.2691 -0.1518
 8462SOL    HW130233   3.033   5.646   6.864 -0.3443 -0.5726 -0.3263
 8462SOL    HW230234   3.138   5.592   6.958 -0.0795 -0.8206 -0.7652
 8463SOL     OW30235   2.840   2.984   5.563 -0.1639  0.0220  0.2121
 8463SOL    HW130236   2.841   2.971   5.468  3.5303  1.4261 -0.0943
 8463SOL    HW230237   2.904   3.053   5.579 -1.2600  0.4305  3.7212
 8464SOL     OW30238   2.233   2.781   8.844  0.0003  0.3269 -0.2654
 8464SOL    HW130239   2.306   2.721   8.843  0.9337  1.4302 -0.6653
 8464SOL    HW230240   2.175   2.748   8.913  0.6399 -0.8256 -0.2684
 8465SOL     OW30241   0.401   8.057   4.288  0.1706 -0.2907 -0.5776
 8465SOL    HW130242   0.364   8.139   4.256  0.8421  0.4927  0.6161
 8465SOL    HW230243   0.328   8.011   4.328  0.1205  0.5235  0.3066
 8466SOL     OW30244   2.459   2.862   7.152 -0.2499 -0.3305  0.4712
 8466SOL    HW130245   2.514   2.784   7.151 -0.2519 -0.3239 -0.9769
 8466SOL    HW230246   2.414   2.861   7.068  0.8823  2.0528 -0.2224
 8467SOL     OW30247   4.302   2.346   6.201  0.0277 -0.3514  0.2525
 8467SOL    HW130248   4.380   2.377   6.247  0.5104  0.7165 -1.2081
 8467SOL    HW230249   4.328   2.261   6.164  0.3733 -0.1718  0.0811
 8468SOL     OW30250   1.149   3.521   7.954  0.2328  0.2431  0.0456
 8468SOL    HW130251   1.200   3.590   7.911 -1.5334 -0.6596 -4.0268
 8468SOL    HW230252   1.175   3.440   7.910 -2.5405 -0.6489 -0.2050
 8469SOL     OW30253   2.721   3.678   7.565 -0.4221  0.2298 -0.1406
 8469SOL    HW130254   2.723   3.585   7.540 -0.6987  0.6417 -1.7629
 8469SOL    HW230255   2.675   3.721   7.493 -0.4077  1.6177  0.6631
 8470SOL     OW30256   0.677   5.684   8.065  0.6216 -0.3093  0.0489
 8470SOL    HW130257   0.617   5.724   8.002  0.5029  1.3963  1.1671
 8470SOL    HW230258   0.747   5.647   8.012  0.4066  0.8611 -1.1077
 8471SOL     OW30259   2.281   1.960   5.768  0.1829 -0.2832  0.5977
 8471SOL    HW130260   2.362   2.010   5.761 -0.6601  1.2008  0.9564
 8471SOL    HW230261   2.302   1.874   5.730  2.1254 -0.2239  1.4053
 8472SOL     OW30262   8.853   4.542   5.125  0.3051 -0.3867 -0.2535
 8472SOL    HW130263   8.929   4.550   5.068  0.9643  0.4298  0.7090
 8472SOL    HW230264   8.882   4.483   5.195  1.5370  2.9372  2.3276
 8473SOL     OW30265   2.634   4.985   5.681  0.5425 -0.9588 -0.6690
 8473SOL    HW130266   2.569   5.054   5.673  2.2249  0.9071  0.6354
 8473SOL    HW230267   2.598   4.925   5.746  0.9853  1.2711  1.8109
 8474SOL     OW30268   1.673   6.721   8.095  0.8321 -0.8616  0.2020
 8474SOL    HW130269   1.749   6.665   8.082 -0.0752 -2.4901  1.4365
 8474SOL    HW230270   1.646   6.704   8.185 -0.8897 -0.2271 -0.1463
 8475SOL     OW30271   0.785   6.783   0.390 -0.5870  0.5397  0.2244
 8475SOL    HW130272   0.797   6.865   0.438  1.0098  2.1242 -2.6337
 8475SOL    HW230273   0.694   6.759   0.408 -0.6369  2.0046  2.4262
 8476SOL     OW30274   3.457   2.877   8.204  0.2588  0.2328 -0.5143
 8476SOL    HW130275   3.448   2.843   8.115  0.3812  1.0740 -0.8557
 8476SOL    HW230276   3.481   2.800   8.256 -1.9922 -0.7410 -0.7838
 8477SOL     OW30277   4.190   3.411   3.839  0.0009  0.1713  0.0206
 8477SOL    HW130278   4.209   3.319   3.856  0.9378  0.5647  1.1809
 8477SOL    HW230279   4.275   3.451   3.819 -0.3470  0.8507 -0.1555
 8478SOL     OW30280   3.137   5.231   6.313  0.0293 -0.2248  0.3394
 8478SOL    HW130281   3.160   5.324   6.311  0.4000 -0.3223 -0.0740
 8478SOL    HW230282   3.164   5.201   6.400  2.4942 -0.5736 -0.4554
 8479SOL     OW30283   9.667   5.411   6.720 -0.2310 -0.1347 -0.2060
 8479SOL    HW130284   9.701   5.483   6.666  0.5451  0.7518  1.3849
 8479SOL    HW230285   9.582   5.443   6.750  0.0749  0.0905  0.4285
 8480SOL     OW30286   1.155   4.317   7.198 -0.2238  0.5009 -0.3723
 8480SOL    HW130287   1.243   4.353   7.187 -0.7632  1.5580 -1.3482
 8480SOL    HW230288   1.119   4.313   7.110 -0.8833 -0.6785 -0.0754
 8481SOL     OW30289   2.250   2.696   8.068 -0.4474  0.1304 -0.0627
 8481SOL    HW130290   2.165   2.738   8.060 -0.1974  0.5160 -0.7842
 8481SOL    HW230291   2.237   2.608   8.033 -0.3412  0.4752 -0.9715
 8482SOL     OW30292   1.895   4.757   8.578  0.2084  0.0040  0.3736
 8482SOL    HW130293   1.895   4.665   8.604 -1.7570  0.0903  0.8796
 8482SOL    HW230294   1.987   4.779   8.567  0.7378 -1.9661  0.4155
 8483SOL     OW30295   0.849   2.530   6.950  0.3326 -0.3043 -0.1469
 8483SOL    HW130296   0.866   2.540   6.856 -2.9708 -0.1213 -0.8773
 8483SOL    HW230297   0.877   2.613   6.988 -3.1098  1.9939 -1.9929
 8484SOL     OW30298   2.073   3.161   6.064 -0.2934 -0.3522  0.0309
 8484SOL    HW130299   2.056   3.253   6.084 -2.4433 -0.5521 -0.5219
 8484SOL    HW230300   2.127   3.130   6.137  2.5831  1.8627 -0.9629
 8485SOL     OW30301   2.582   3.429   7.519 -0.6543 -0.0073  0.3079
 8485SOL    HW130302   2.666   3.383   7.519 -0.4796  0.3068  0.0758
 8485SOL    HW230303   2.524   3.373   7.468 -1.8510 -2.4453  3.9764
 8486SOL     OW30304   1.325   5.058   6.637 -0.0624  0.0052 -0.2993
 8486SOL    HW130305   1.242   5.041   6.683  0.4887 -1.0786  0.3384
 8486SOL    HW230306   1.360   5.137   6.677  0.6729 -1.2206  1.5744
 8487SOL     OW30307   9.636   6.148   4.988 -0.0190 -0.6831 -0.8655
 8487SOL    HW130308   9.606   6.235   5.013  0.2912 -0.8260  0.0698
 8487SOL    HW230309   9.720   6.163   4.945  0.7163 -0.6028  0.5468
 8488SOL     OW30310   4.606   2.781   6.058  0.0595  0.7470 -0.0596
 8488SOL    HW130311   4.546   2.801   6.130  0.5014  1.4164  0.1252
 8488SOL    HW230312   4.592   2.852   5.995 -0.2279  0.2384 -0.5848
 8489SOL     OW30313   1.319   4.681   7.601 -0.6390  0.3710 -0.3440
 8489SOL    HW130314   1.247   4.622   7.624 -1.9671  1.9037 -0.3942
 8489SOL    HW230315   1.362   4.700   7.685 -0.0005 -0.8818 -0.3690
 8490SOL     OW30316   3.438   3.337   6.785 -0.2568  0.0479  0.4437
 8490SOL    HW130317   3.422   3.280   6.860  0.8099 -2.1318 -0.8931
 8490SOL    HW230318   3.494   3.286   6.727  0.9340  2.5478 -0.7875
 8491SOL     OW30319   2.383   6.267   7.320 -0.0485 -0.1197  0.3928
 8491SOL    HW130320   2.429   6.299   7.397 -0.3112  0.1886  0.4279
 8491SOL    HW230321   2.435   6.299   7.246  1.6672 -2.5753  0.4040
 8492SOL     OW30322   9.624   7.136   4.810  0.3816 -0.0291 -0.7957
 8492SOL    HW130323   9.681   7.120   4.735 -0.2169 -0.8120 -1.1012
 8492SOL    HW230324   9.563   7.062   4.811 -1.1520  1.1613 -0.9704
 8493SOL     OW30325   3.954   1.044   4.797 -0.7747 -0.1974  0.1029
 8493SOL    HW130326   4.022   1.006   4.741 -0.1887 -0.3371  0.8887
 8493SOL    HW230327   3.922   1.119   4.748  0.3220  0.1801 -0.0665
 8494SOL     OW30328   1.653   2.801   6.190 -0.1027 -0.4432 -0.4904
 8494SOL    HW130329   1.730   2.758   6.152  0.5506  2.4901 -2.8230
 8494SOL    HW230330   1.579   2.753   6.153  0.5984 -0.1788 -2.3349
 8495SOL     OW30331   1.431   3.167   5.512  0.0638  0.4577 -0.6840
 8495SOL    HW130332   1.376   3.245   5.506 -1.9849 -0.8192  0.4881
 8495SOL    HW230333   1.441   3.152   5.606 -2.2131 -2.3459 -0.7409
 8496SOL     OW30334   1.327   3.006   8.281 -0.7743 -0.2662 -0.2643
 8496SOL    HW130335   1.373   2.963   8.353  0.1341  1.2247  0.0982
 8496SOL    HW230336   1.282   3.080   8.321 -0.2411  0.5985 -1.2075
 8497SOL     OW30337   4.826   2.610   5.344  0.1891  0.2749 -0.4969
 8497SOL    HW130338   4.797   2.529   5.303  0.1284  0.5283 -0.9630
 8497SOL    HW230339   4.804   2.600   5.436 -0.9174  0.2497 -0.7533
 8498SOL     OW30340   4.297   3.671   6.689 -0.2918 -0.4029 -0.7917
 8498SOL    HW130341   4.287   3.766   6.694  1.1697 -0.2752  0.9572
 8498SOL    HW230342   4.215   3.637   6.725  1.0577  0.3800  3.6873
 8499SOL     OW30343   9.757   5.560   8.005 -0.2771 -0.1541  0.3138
 8499SOL    HW130344   9.755   5.505   8.083  0.9014  0.4308  0.7743
 8499SOL    HW230345   9.786   5.646   8.037  0.9466 -0.0982 -0.8687
 8500SOL     OW30346   3.259   4.467   5.971 -0.3819 -0.2190 -0.0621
 8500SOL    HW130347   3.300   4.514   6.044  0.0934 -0.9970  0.1809
 8500SOL    HW230348   3.174   4.510   5.960 -0.4625 -0.0953  0.9534
 8501SOL     OW30349   1.633   5.595   3.863 -0.5104 -0.1410 -0.5292
 8501SOL    HW130350   1.591   5.542   3.795  1.3680 -0.3290 -1.6158
 8501SOL    HW230351   1.567   5.602   3.932 -1.4063 -2.5597 -1.0306
 8502SOL     OW30352   4.495   3.601   6.835 -0.0961  0.0533 -0.1713
 8502SOL    HW130353   4.431   3.609   6.764 -1.0765 -1.1455  0.5226
 8502SOL    HW230354   4.575   3.570   6.793 -1.1182 -2.1997 -0.5970
 8503SOL     OW30355   1.662   3.881   7.722 -0.1126 -0.4731  0.1652
 8503SOL    HW130356   1.743   3.863   7.675 -1.2648 -0.2686 -2.0042
 8503SOL    HW230357   1.673   3.969   7.756  1.0687 -0.9366  1.0599
 8504SOL     OW30358   1.341   5.906   5.289  0.2555  0.9581 -0.1294
 8504SOL    HW130359   1.313   5.816   5.278  1.3592  0.3755  1.3743
 8504SOL    HW230360   1.263   5.952   5.319  0.3067 -0.1651  1.9178
 8505SOL     OW30361   2.533   6.716   5.393  0.4272 -0.0353  0.1177
 8505SOL    HW130362   2.572   6.638   5.433 -0.2153  0.0750  0.9856
 8505SOL    HW230363   2.468   6.746   5.457  0.5399  1.1126 -0.2811
 8506SOL     OW30364   4.502   4.687   8.415 -0.0804 -0.3348  0.8575
 8506SOL    HW130365   4.536   4.597   8.421 -1.1368 -0.6963  1.9886
 8506SOL    HW230366   4.519   4.724   8.502  1.5637  1.0552 -0.0015
 8507SOL     OW30367   1.728   3.589   5.597  0.4305 -0.3718  0.3014
 8507SOL    HW130368   1.671   3.531   5.648  0.2021 -0.9744 -0.5975
 8507SOL    HW230369   1.754   3.535   5.522 -0.3747  0.9140 -0.9424
 8508SOL     OW30370   2.838   4.751   7.237  0.8443  0.0140 -0.2099
 8508SOL    HW130371   2.927   4.755   7.201  0.8149 -2.2005 -0.7084
 8508SOL    HW230372   2.850   4.740   7.331  1.0484  1.1203 -0.1003
 8509SOL     OW30373   3.446   2.512   6.255  0.1054  0.3681 -0.2508
 8509SOL    HW130374   3.419   2.434   6.303 -0.6305  2.3621  2.8770
 8509SOL    HW230375   3.367   2.539   6.208 -0.0672  0.0719 -0.1334
 8510SOL     OW30376   3.526   4.303   6.405  0.1369  0.7643 -0.1764
 8510SOL    HW130377   3.612   4.261   6.400 -0.7172 -1.0530 -0.5032
 8510SOL    HW230378   3.476   4.264   6.334 -1.5689  0.2998  1.1980
 8511SOL     OW30379   4.154   4.550   8.066  0.6156  0.4811 -0.5219
 8511SOL    HW130380   4.204   4.567   8.145 -0.0054 -0.0790 -0.0021
 8511SOL    HW230381   4.221   4.531   7.999  1.1701  1.6698 -0.3268
 8512SOL     OW30382   3.013   3.427   6.735 -0.2815  0.1323 -0.2225
 8512SOL    HW130383   2.953   3.452   6.805 -2.0254 -2.0353 -0.8310
 8512SOL    HW230384   2.957   3.401   6.662  1.2561 -2.9514 -0.5011
 8513SOL     OW30385   2.656   3.638   6.243 -0.2665 -0.2404 -0.5683
 8513SOL    HW130386   2.673   3.545   6.258  1.0581 -0.3994 -2.7525
 8513SOL    HW230387   2.639   3.645   6.149 -0.5492  1.7152 -0.4138
 8514SOL     OW30388   2.062   3.627   7.127  0.2083  0.8249  0.0232
 8514SOL    HW130389   2.058   3.695   7.060 -0.0564 -0.0317 -0.8360
 8514SOL    HW230390   2.131   3.568   7.097  0.0724  0.4211  0.4951
 8515SOL     OW30391   2.234   3.816   6.317  0.2946  0.0340 -0.1295
 8515SOL    HW130392   2.249   3.771   6.400  1.7752  0.0444 -0.3562
 8515SOL    HW230393   2.209   3.746   6.256 -0.8801  0.0386  0.3253
 8516SOL     OW30394   5.936   3.688   6.700 -0.0775  0.3550 -0.4991
 8516SOL    HW130395   5.960   3.765   6.753 -0.6341  0.2118 -0.0275
 8516SOL    HW230396   5.840   3.684   6.707  0.0891 -1.8625  1.5903
 8517SOL     OW30397   3.562   4.040   3.980  0.1789 -0.3140  0.5120
 8517SOL    HW130398   3.589   3.948   3.972 -0.2104 -0.4090  0.2188
 8517SOL    HW230399   3.529   4.062   3.893 -2.4868 -0.8045  1.3029
 8518SOL     OW30400   2.178   6.495   8.466  0.1692 -0.1838  0.1799
 8518SOL    HW130401   2.203   6.519   8.377  2.5404  0.3413  0.9186
 8518SOL    HW230402   2.155   6.578   8.508 -3.2206 -0.6252 -0.4527
 8519SOL     OW30403   2.415   3.680   3.213 -0.3506  0.2361 -0.0887
 8519SOL    HW130404   2.410   3.687   3.309 -2.0142 -1.0822 -0.0352
 8519SOL    HW230405   2.335   3.722   3.182  0.4464  1.1571 -0.9734
 8520SOL     OW30406   2.161   5.095   5.841 -0.5545  0.3288 -0.2231
 8520SOL    HW130407   2.098   5.161   5.812  0.0680  0.7338 -0.6903
 8520SOL    HW230408   2.232   5.100   5.777 -1.3214 -2.1173 -1.4115
 8521SOL     OW30409   3.839   4.025   1.710  0.3444  0.0898  0.1873
 8521SOL    HW130410   3.880   4.003   1.627 -0.4322  0.6366 -0.3511
 8521SOL    HW230411   3.861   3.951   1.768 -0.0493 -0.8505 -0.8234
 8522SOL     OW30412   2.066   3.886   6.716  0.5655 -0.3139 -0.1636
 8522SOL    HW130413   2.060   3.869   6.622  0.7573  0.0979 -0.2529
 8522SOL    HW230414   2.110   3.809   6.752  3.5083  0.8727 -0.8762
 8523SOL     OW30415   3.275   3.537   5.972 -0.3327  0.2554 -0.2360
 8523SOL    HW130416   3.299   3.627   5.950  0.0960  0.0219 -0.7432
 8523SOL    HW230417   3.357   3.488   5.964 -0.7706 -0.3777 -1.0231
 8524SOL     OW30418   3.033   6.368   5.144 -0.3046  0.1020  0.8547
 8524SOL    HW130419   3.036   6.423   5.222  0.2285 -1.0332  1.6746
 8524SOL    HW230420   3.103   6.401   5.088  0.5725 -0.2490  1.7121
 8525SOL     OW30421   9.375   2.345   8.579 -0.3227  0.5416  0.1350
 8525SOL    HW130422   9.437   2.313   8.644  0.0626  2.4701  0.7709
 8525SOL    HW230423   9.427   2.398   8.519 -1.0455  0.6031 -0.4616
 8526SOL     OW30424   4.387   2.622   5.327 -0.4144 -0.5777  0.0545
 8526SOL    HW130425   4.368   2.715   5.338 -0.0213 -0.7217  2.2474
 8526SOL    HW230426   4.478   2.620   5.296 -0.3309 -0.2472  0.2758
 8527SOL     OW30427   4.334   3.062   7.341 -0.5839 -0.2860 -0.1155
 8527SOL    HW130428   4.332   3.138   7.399  0.0777 -0.0462 -0.3913
 8527SOL    HW230429   4.426   3.056   7.313 -1.0870  0.3046 -2.0562
 8528SOL     OW30430   1.797   4.365   2.548 -0.2897  0.3914 -0.4988
 8528SOL    HW130431   1.738   4.437   2.568  0.1481  1.0434 -1.4804
 8528SOL    HW230432   1.784   4.303   2.620 -0.6125  1.4790  0.4143
 8529SOL     OW30433   2.101   3.803   5.665  0.1076 -0.7267 -0.2018
 8529SOL    HW130434   2.090   3.732   5.729  1.1571 -1.4627 -0.8102
 8529SOL    HW230435   2.024   3.796   5.608  0.1749 -1.3589 -0.2230
 8530SOL     OW30436   3.618   1.865   8.729 -0.6392  0.7070  0.3176
 8530SOL    HW130437   3.693   1.873   8.787 -1.2773  0.2307  1.2192
 8530SOL    HW230438   3.640   1.793   8.670  0.2321  1.5346 -0.4005
 8531SOL     OW30439   1.174   6.399   7.142 -0.1973  0.5963  0.2656
 8531SOL    HW130440   1.227   6.342   7.086 -2.9530 -0.4946 -1.4637
 8531SOL    HW230441   1.234   6.468   7.170  2.2642 -0.9335 -0.9194
 8532SOL     OW30442   2.955   4.360   6.988 -0.2343 -0.3025 -0.5646
 8532SOL    HW130443   2.991   4.276   6.958 -1.9032 -1.2415 -0.1088
 8532SOL    HW230444   2.898   4.336   7.061 -0.4483  1.2882 -0.1915
 8533SOL     OW30445   1.997   6.122   5.944  0.2009  0.5496 -0.2413
 8533SOL    HW130446   1.960   6.210   5.931 -1.1240  0.0267 -0.1836
 8533SOL    HW230447   2.021   6.120   6.037 -0.0315  0.7594 -0.1737
 8534SOL     OW30448   4.551   4.382   7.298  0.2984 -0.6942  0.1720
 8534SOL    HW130449   4.488   4.312   7.315  1.2095 -1.5464  0.1002
 8534SOL    HW230450   4.518   4.456   7.348 -0.3274 -1.3659  0.7808
 8535SOL     OW30451   1.990   4.453   6.275  0.4777  0.7235 -0.0773
 8535SOL    HW130452   1.905   4.452   6.232  1.2005 -0.3846 -1.5500
 8535SOL    HW230453   2.053   4.435   6.205  1.6788 -1.7022  1.4984
 8536SOL     OW30454   1.674   4.291   6.439 -0.1497  0.7149 -0.0422
 8536SOL    HW130455   1.656   4.374   6.394  0.2815  0.8578  0.0411
 8536SOL    HW230456   1.677   4.226   6.368 -0.6490  0.7432 -0.0898
 8537SOL     OW30457   1.795   4.466   7.324 -0.0037 -0.3975 -0.1334
 8537SOL    HW130458   1.740   4.537   7.357  0.3149 -0.5949  0.8561
 8537SOL    HW230459   1.751   4.387   7.355  1.2582 -0.5406  1.3973
 8538SOL     OW30460   2.399   4.817   5.759 -0.7264 -0.1351 -0.2176
 8538SOL    HW130461   2.388   4.851   5.848  0.8524  0.5406 -0.2542
 8538SOL    HW230462   2.312   4.784   5.736 -1.7812  1.8118  0.6841
 8539SOL     OW30463   4.460   7.103   8.375 -0.0167  0.0682  0.0956
 8539SOL    HW130464   4.473   7.011   8.352 -1.5090 -0.7850  2.3895
 8539SOL    HW230465   4.368   7.120   8.356 -0.3047  0.4388  1.6778
 8540SOL     OW30466   1.809   6.364   7.952  0.1269  0.5157  0.2337
 8540SOL    HW130467   1.754   6.363   8.031  0.9239 -2.1157  0.8446
 8540SOL    HW230468   1.869   6.437   7.966 -0.5312  0.8571  1.4895
 8541SOL     OW30469   1.934   4.695   3.470 -0.4246 -0.3074 -0.7615
 8541SOL    HW130470   1.917   4.788   3.486 -0.7103 -0.6081  0.9513
 8541SOL    HW230471   2.027   4.692   3.445 -0.1624  0.3764  0.0525
 8542SOL     OW30472   2.186   5.267   7.089 -0.4348  0.0656 -0.0723
 8542SOL    HW130473   2.140   5.199   7.137 -0.4966  0.5148  0.5115
 8542SOL    HW230474   2.278   5.253   7.108 -0.5262  0.9440  1.1406
 8543SOL     OW30475   3.046   4.936   7.290  0.3263  0.2308 -0.2316
 8543SOL    HW130476   2.955   4.940   7.321  0.3564 -0.5089 -0.0341
 8543SOL    HW230477   3.090   4.880   7.353  0.2271 -1.9535 -1.9609
 8544SOL     OW30478   2.330   3.340   5.336  0.4263  0.1814 -0.2995
 8544SOL    HW130479   2.397   3.280   5.303  0.7178  0.5332 -0.3618
 8544SOL    HW230480   2.361   3.426   5.308  0.0820  0.3710 -0.0944
 8545SOL     OW30481   1.179   4.905   5.270 -0.3055  0.1076  0.3642
 8545SOL    HW130482   1.264   4.876   5.305  0.0101 -0.0498 -0.4972
 8545SOL    HW230483   1.122   4.829   5.280  0.1678 -0.4205 -0.7117
 8546SOL     OW30484   2.392   4.863   7.331 -0.6579  0.1793  0.7187
 8546SOL    HW130485   2.387   4.935   7.268  1.5650  0.8927  1.2622
 8546SOL    HW230486   2.327   4.799   7.300 -0.7548  1.2054 -1.3593
 8547SOL     OW30487   1.420   3.806   6.811 -0.6055 -0.6507  0.3130
 8547SOL    HW130488   1.325   3.803   6.808 -0.7551  1.8562 -0.8225
 8547SOL    HW230489   1.447   3.798   6.719  0.0436  1.4724  0.2613
 8548SOL     OW30490   1.693   4.143   6.208 -0.0839 -0.0754 -0.0410
 8548SOL    HW130491   1.753   4.193   6.153 -0.8924 -1.7170 -2.5823
 8548SOL    HW230492   1.627   4.109   6.148 -1.9000 -0.8088  2.1975
 8549SOL     OW30493   1.401   2.584   8.735  0.3488  0.1852 -0.2150
 8549SOL    HW130494   1.406   2.586   8.830  0.9102  1.6932 -0.2646
 8549SOL    HW230495   1.318   2.628   8.715 -0.8380 -1.9806 -0.3828
 8550SOL     OW30496   2.306   3.399   6.737  0.8623  1.0881 -0.5392
 8550SOL    HW130497   2.371   3.465   6.712 -0.8321  2.8377 -0.5785
 8550SOL    HW230498   2.252   3.387   6.659  0.0491  1.0358  0.0080
 8551SOL     OW30499   2.079   3.669   3.438  0.4860 -0.2421  0.5193
 8551SOL    HW130500   2.028   3.749   3.448 -0.3967 -0.8640  1.2523
 8551SOL    HW230501   2.159   3.684   3.488 -0.0308 -0.1009  1.3191
 8552SOL     OW30502   3.673   4.884   3.115 -0.2354  0.3959  0.1599
 8552SOL    HW130503   3.604   4.886   3.049  0.3943 -0.4425 -0.5417
 8552SOL    HW230504   3.659   4.802   3.162 -1.3249  1.4654  1.8144
 8553SOL     OW30505   2.891   5.076   5.741  0.0796  0.3189  0.2762
 8553SOL    HW130506   2.869   5.168   5.757  0.8788  0.7097 -0.7610
 8553SOL    HW230507   2.816   5.042   5.692  0.5174  0.9040 -0.8422
 8554SOL     OW30508   1.800   4.881   7.163 -0.6044 -0.4780  0.1009
 8554SOL    HW130509   1.719   4.848   7.203  0.4834 -1.5302  1.5263
 8554SOL    HW230510   1.850   4.916   7.237  0.6161 -0.6426 -0.6400
 8555SOL     OW30511   1.848   3.247   6.647  0.1751 -0.7090  0.4009
 8555SOL    HW130512   1.778   3.204   6.597 -0.6922 -1.1389  1.9238
 8555SOL    HW230513   1.831   3.340   6.636  0.3931 -0.7700 -0.6194
 8556SOL     OW30514   3.530   2.118   2.601 -0.0195 -0.0878  0.3550
 8556SOL    HW130515   3.457   2.056   2.609 -0.2165  0.1191  0.1734
 8556SOL    HW230516   3.584   2.101   2.678 -0.7565  0.4028  0.9959
 8557SOL     OW30517   4.970   6.128   7.191 -0.0668 -0.4487 -1.0143
 8557SOL    HW130518   4.951   6.076   7.113 -1.7395 -0.7777 -0.4329
 8557SOL    HW230519   5.036   6.077   7.239  0.6861 -0.4290 -2.0060
 8558SOL     OW30520   3.470   3.695   7.212 -0.2306 -0.3649  0.6421
 8558SOL    HW130521   3.448   3.757   7.143  0.5363 -0.9445 -0.1519
 8558SOL    HW230522   3.396   3.634   7.214  0.7465 -1.6991 -1.2933
 8559SOL     OW30523   2.445   5.523   6.918 -0.0940 -0.6658  0.1462
 8559SOL    HW130524   2.522   5.516   6.975 -0.2656 -1.0303  0.3316
 8559SOL    HW230525   2.376   5.558   6.975  0.5646  2.0531 -0.5865
 8560SOL     OW30526   1.666   5.211   5.844 -0.2791  0.1835  0.5126
 8560SOL    HW130527   1.675   5.238   5.935  0.2663  2.5607 -0.1635
 8560SOL    HW230528   1.627   5.124   5.848  0.9299 -0.3336  3.0338
 8561SOL     OW30529   5.222   1.245   3.996 -0.1067  0.0620  0.1710
 8561SOL    HW130530   5.241   1.297   3.919 -1.1579 -0.7216 -0.6488
 8561SOL    HW230531   5.285   1.173   3.993 -0.6555 -0.3997 -0.3983
 8562SOL     OW30532   3.513   4.610   6.391  0.2784  0.0571  0.7395
 8562SOL    HW130533   3.573   4.660   6.446 -0.1499 -0.0787  1.3344
 8562SOL    HW230534   3.555   4.525   6.380  0.4064  0.1160  0.7748
 8563SOL     OW30535   3.347   4.193   3.614 -0.4082 -0.1526  0.2127
 8563SOL    HW130536   3.291   4.123   3.647  0.8470 -1.0930  0.4061
 8563SOL    HW230537   3.394   4.154   3.540  0.7232  0.2848  0.6798
 8564SOL     OW30538   2.064   4.410   6.541 -0.0792  0.2435 -0.5107
 8564SOL    HW130539   2.045   4.462   6.462 -0.2815  0.1460 -0.5258
 8564SOL    HW230540   2.159   4.399   6.539 -0.0428  0.5403 -0.5552
 8565SOL     OW30541   0.498   3.541   6.922  0.0963 -0.0910 -0.5137
 8565SOL    HW130542   0.565   3.553   6.854  1.5709 -0.2352  0.8484
 8565SOL    HW230543   0.496   3.446   6.936  1.0794  0.0630  0.8289
 8566SOL     OW30544   1.821   2.177   6.526 -0.0659 -0.0944 -0.3660
 8566SOL    HW130545   1.754   2.179   6.457 -0.5552  0.8985  0.1053
 8566SOL    HW230546   1.782   2.125   6.596 -0.1417  0.0621 -0.2914
 8567SOL     OW30547   2.237   4.018   5.761  0.6381 -0.0450 -0.0827
 8567SOL    HW130548   2.208   3.941   5.712  0.2799 -0.8064  1.2763
 8567SOL    HW230549   2.157   4.067   5.780  0.6616 -0.2327  0.5189
 8568SOL     OW30550   2.007   4.860   5.078 -0.5054 -0.6366 -0.3834
 8568SOL    HW130551   1.914   4.842   5.067 -0.4681 -0.4641 -1.0496
 8568SOL    HW230552   2.044   4.777   5.108 -0.7889 -0.8554 -0.6292
 8569SOL     OW30553   2.247   6.610   4.452  0.7864 -0.6153  0.3126
 8569SOL    HW130554   2.177   6.636   4.511  0.3336 -0.4979 -0.2749
 8569SOL    HW230555   2.325   6.604   4.509  1.2311  3.1658  0.3277
 8570SOL     OW30556   2.051   3.136   6.834  0.5357 -0.1106  0.2634
 8570SOL    HW130557   2.139   3.148   6.800  0.3019 -0.3377 -0.4293
 8570SOL    HW230558   1.993   3.151   6.759 -0.0768  1.1573  0.9520
 8571SOL     OW30559   1.229   3.945   7.373  0.2001  0.0000 -0.8885
 8571SOL    HW130560   1.298   3.986   7.320  0.3810  0.0136 -0.6430
 8571SOL    HW230561   1.276   3.906   7.447 -0.2484  1.7765  0.3889
 8572SOL     OW30562   0.707   4.168   7.582  0.5646  0.1086  0.0278
 8572SOL    HW130563   0.680   4.098   7.521  3.2468 -1.6509  0.6930
 8572SOL    HW230564   0.669   4.142   7.666  0.1727  0.3791 -0.0630
 8573SOL     OW30565   1.444   2.120   6.551 -0.2617  0.3765  0.4623
 8573SOL    HW130566   1.443   2.188   6.483 -0.1030 -0.9677 -0.9165
 8573SOL    HW230567   1.514   2.060   6.525 -1.5068 -1.2486  0.7076
 8574SOL     OW30568   1.612   3.087   6.534 -0.0813  0.1665 -0.3591
 8574SOL    HW130569   1.606   3.071   6.440 -1.9158 -0.7045 -0.1575
 8574SOL    HW230570   1.657   3.010   6.568 -0.7473 -0.2466 -0.3863
 8575SOL     OW30571   2.375   6.798   5.901  0.1869 -0.4888 -0.4539
 8575SOL    HW130572   2.322   6.788   5.981 -0.9116  0.0364 -1.0933
 8575SOL    HW230573   2.427   6.877   5.917 -0.4249 -0.0759 -0.4607
 8576SOL     OW30574   3.768   4.971   7.138 -0.0836 -0.5044 -0.6568
 8576SOL    HW130575   3.698   4.941   7.080 -0.3292  2.0514 -1.8331
 8576SOL    HW230576   3.752   5.065   7.148  1.9510 -0.2461  0.8176
 8577SOL     OW30577   0.329   5.736   7.487  0.1616 -0.2191 -0.1504
 8577SOL    HW130578   0.424   5.736   7.502  0.1116 -0.1322  0.1723
 8577SOL    HW230579   0.318   5.695   7.401  0.4782 -0.4215 -0.0938
 8578SOL     OW30580   3.228   2.813   6.001  0.2190  0.2821  0.5166
 8578SOL    HW130581   3.227   2.726   6.040 -0.6084  0.0448  0.0125
 8578SOL    HW230582   3.137   2.827   5.972  1.0366 -0.2702 -2.7791
 8579SOL     OW30583   1.035   2.675   9.211 -0.2155 -0.2523  0.0452
 8579SOL    HW130584   1.047   2.714   9.298  1.1876 -0.4350 -0.0374
 8579SOL    HW230585   1.083   2.734   9.152  1.0972 -1.5132 -0.2116
 8580SOL     OW30586   3.375   6.007   5.574  0.1558 -0.0398  0.2296
 8580SOL    HW130587   3.386   5.921   5.532  1.4188  0.3376 -0.2682
 8580SOL    HW230588   3.370   5.986   5.668 -1.1816 -0.7710  0.0173
 8581SOL     OW30589   1.546   3.441   5.750  0.4027 -0.3113 -0.3007
 8581SOL    HW130590   1.525   3.455   5.843  0.7937  1.3448 -0.4209
 8581SOL    HW230591   1.461   3.437   5.707  0.2291  0.2764 -0.0283
 8582SOL     OW30592   2.226   5.924   9.722  0.3954 -0.4348 -0.3921
 8582SOL    HW130593   2.134   5.948   9.732  0.0556 -1.8482  0.0471
 8582SOL    HW230594   2.271   6.007   9.710 -0.4760  0.6536  2.8027
 8583SOL     OW30595   2.217   6.420   4.930 -0.0902  0.6789 -0.3015
 8583SOL    HW130596   2.310   6.427   4.950  0.3717  1.1223 -2.4017
 8583SOL    HW230597   2.193   6.505   4.894 -0.8062 -0.0516 -1.6441
 8584SOL     OW30598   1.523   5.750   6.188  0.5943 -0.3096  0.3683
 8584SOL    HW130599   1.468   5.809   6.137 -0.1210 -0.9116  0.4183
 8584SOL    HW230600   1.465   5.677   6.210  1.0994 -0.4036  1.4184
 8585SOL     OW30601   1.667   7.398   8.401  0.0092 -0.1715  0.3674
 8585SOL    HW130602   1.687   7.339   8.474  2.2912  0.0940  0.0225
 8585SOL    HW230603   1.675   7.486   8.438  0.1876 -0.0436  0.0287
 8586SOL     OW30604   2.724   2.324   7.533  0.3167  0.7018 -0.0492
 8586SOL    HW130605   2.724   2.237   7.573  1.2324  0.8508  0.3012
 8586SOL    HW230606   2.817   2.342   7.516 -0.0359  0.5092 -2.5769
 8587SOL     OW30607   2.896   3.208   4.715  0.4471 -0.0756 -0.2577
 8587SOL    HW130608   2.876   3.283   4.770 -2.2531 -1.9229  1.5041
 8587SOL    HW230609   2.968   3.238   4.660  0.5103  3.2620  1.3750
 8588SOL     OW30610   1.903   6.377   5.981  0.4724  0.0438 -0.1033
 8588SOL    HW130611   1.847   6.413   6.049  0.4281  0.2727 -0.2591
 8588SOL    HW230612   1.984   6.429   5.987  0.8249 -0.5384  0.3803
 8589SOL     OW30613   1.859   4.967   6.345  0.2754 -0.1783  0.4373
 8589SOL    HW130614   1.906   5.048   6.325 -0.4981  0.0371 -0.6136
 8589SOL    HW230615   1.768   4.986   6.323 -0.2649 -0.7181  2.0577
 8590SOL     OW30616   2.889   4.738   8.406  0.3723  0.1193 -0.1011
 8590SOL    HW130617   2.905   4.671   8.471  1.2120  0.4242  0.0228
 8590SOL    HW230618   2.794   4.744   8.400  0.2251  1.3646  2.4241
 8591SOL     OW30619   1.054   4.929   4.852 -0.0254  0.8635  0.5915
 8591SOL    HW130620   0.999   4.944   4.929  0.4631  0.2730  1.0768
 8591SOL    HW230621   0.995   4.939   4.777 -1.1312 -1.0285  1.1357
 8592SOL     OW30622   4.222   4.891   8.909  0.4293  0.2107  0.3361
 8592SOL    HW130623   4.166   4.967   8.892 -1.3073 -1.1200 -0.1995
 8592SOL    HW230624   4.205   4.832   8.836  1.0823 -1.0618  1.1694
 8593SOL     OW30625   2.743   3.573   6.613  0.3882  0.3199 -0.2396
 8593SOL    HW130626   2.699   3.627   6.547 -1.0236  0.4762  0.7710
 8593SOL    HW230627   2.700   3.487   6.607 -0.9952  0.8099  1.5669
 8594SOL     OW30628   0.815   2.253   5.390  0.4141 -0.0981  0.7976
 8594SOL    HW130629   0.823   2.288   5.479 -1.5486  0.0464  0.9665
 8594SOL    HW230630   0.731   2.208   5.390  0.1211  0.3578 -1.1381
 8595SOL     OW30631   3.404   3.475   4.345 -0.3151  0.3188  0.0201
 8595SOL    HW130632   3.430   3.455   4.256  1.8626  2.0273  0.1727
 8595SOL    HW230633   3.309   3.466   4.346 -0.1289 -3.9895 -1.2656
 8596SOL     OW30634   1.293   2.129   7.006 -0.4137 -0.1924  0.3184
 8596SOL    HW130635   1.320   2.058   6.948  0.5283 -0.0349  0.5401
 8596SOL    HW230636   1.205   2.105   7.034 -1.0379 -0.0917 -1.4488
 8597SOL     OW30637   2.046   4.744   6.359 -0.3198  0.4230  0.2520
 8597SOL    HW130638   2.015   4.654   6.350 -3.0678  1.3457 -0.7134
 8597SOL    HW230639   1.968   4.793   6.385  1.0454  2.5913  0.4991
 8598SOL     OW30640   2.459   4.038   7.072 -0.4979 -0.0327 -0.0316
 8598SOL    HW130641   2.515   4.035   6.994 -0.0630 -0.7879  0.2951
 8598SOL    HW230642   2.499   4.104   7.128  0.6133 -1.1716  0.5785
 8599SOL     OW30643   3.250   3.841   6.495 -0.3322 -0.3228 -1.4002
 8599SOL    HW130644   3.289   3.849   6.582 -1.1435  0.3535 -1.0956
 8599SOL    HW230645   3.211   3.754   6.494  1.1398 -1.0185 -1.7073
 8600SOL     OW30646   5.070   3.067   6.376  0.0662 -0.1324  0.3734
 8600SOL    HW130647   5.101   3.129   6.309 -2.2205 -1.3717 -2.0349
 8600SOL    HW230648   5.105   3.101   6.458  3.6077  1.1336 -1.4482
 8601SOL     OW30649   3.962   3.439   5.531  0.4876 -0.0242 -0.0622
 8601SOL    HW130650   4.024   3.444   5.458  0.1492  0.2070 -0.3359
 8601SOL    HW230651   3.950   3.346   5.546  1.1983 -0.0727  0.2466
 8602SOL     OW30652   2.581   5.669   5.509 -0.2178 -0.4557  0.4070
 8602SOL    HW130653   2.618   5.712   5.432 -1.9783  0.5320  0.0485
 8602SOL    HW230654   2.530   5.738   5.553 -1.2930 -1.6252  1.0645
 8603SOL     OW30655   1.041   1.851   7.754  0.0972  0.7460 -0.2029
 8603SOL    HW130656   0.999   1.867   7.669  0.9441  0.1720 -0.7492
 8603SOL    HW230657   1.107   1.784   7.735  0.2955  0.6137  0.9177
 8604SOL     OW30658   3.736   7.163   5.628  0.0743  0.2371 -0.1600
 8604SOL    HW130659   3.711   7.071   5.624 -0.2744  0.3192  0.0834
 8604SOL    HW230660   3.713   7.198   5.542  1.6149 -0.2478 -0.7980
 8605SOL     OW30661   2.680   5.054   4.767  0.7056 -0.2450 -0.5840
 8605SOL    HW130662   2.725   4.976   4.735  2.2257  0.1899  0.3999
 8605SOL    HW230663   2.727   5.127   4.728  1.7342  0.2546  1.4612
 8606SOL     OW30664   1.255   4.050   5.844 -0.4320  0.3388  0.3392
 8606SOL    HW130665   1.328   4.086   5.793  0.0449  0.0542  0.7986
 8606SOL    HW230666   1.265   4.090   5.930 -0.7332  0.1840  0.4452
 8607SOL     OW30667   1.113   4.275   5.719 -0.3195 -0.1345  0.1929
 8607SOL    HW130668   1.066   4.316   5.791 -1.1360 -0.7638  0.0302
 8607SOL    HW230669   1.188   4.231   5.761 -1.0104 -0.8326  0.7229
 8608SOL     OW30670   2.502   2.658   8.146 -0.1200  0.2448 -0.6015
 8608SOL    HW130671   2.421   2.677   8.100  1.1159  0.2099 -2.9192
 8608SOL    HW230672   2.567   2.716   8.107  0.7815  1.1583  2.0488
 8609SOL     OW30673   9.220   4.036   4.498 -0.1074  0.0330 -0.2650
 8609SOL    HW130674   9.309   4.070   4.493  0.3954 -0.3247  3.3689
 8609SOL    HW230675   9.231   3.942   4.512 -1.1127 -0.2202 -1.1089
 8610SOL     OW30676   1.441   4.696   6.664 -0.1004 -0.5774  0.4523
 8610SOL    HW130677   1.497   4.756   6.712  0.8418 -0.1629 -1.0756
 8610SOL    HW230678   1.410   4.748   6.589 -2.1659 -0.9388  0.9882
 8611SOL     OW30679   2.067   4.437   7.401  0.0740 -0.3572 -0.0353
 8611SOL    HW130680   1.973   4.424   7.391  0.3159 -1.2286 -1.5174
 8611SOL    HW230681   2.083   4.526   7.369 -0.0721 -0.7687 -1.3423
 8612SOL     OW30682   5.264   5.274   7.817  0.4852 -0.0113  0.3879
 8612SOL    HW130683   5.247   5.366   7.799 -0.5508 -0.2721 -0.0513
 8612SOL    HW230684   5.301   5.240   7.735  0.3380 -0.1128  0.3638
 8613SOL     OW30685   1.708   3.945   5.881  0.1404 -0.0231 -0.4269
 8613SOL    HW130686   1.654   3.917   5.808 -0.7702 -0.6690  0.4550
 8613SOL    HW230687   1.649   3.994   5.938  0.4179 -0.8347  0.6094
 8614SOL     OW30688   4.261   4.052   8.730  0.4893  0.7390 -0.4781
 8614SOL    HW130689   4.284   3.977   8.785 -0.8562  2.0338  2.0674
 8614SOL    HW230690   4.344   4.080   8.691  1.2367 -1.1942 -0.3823
 8615SOL     OW30691   2.728   2.757   5.629 -0.3781  0.3182 -0.1842
 8615SOL    HW130692   2.760   2.847   5.628 -1.0588  0.5741  0.3790
 8615SOL    HW230693   2.639   2.763   5.663 -0.5305 -0.5395 -0.3926
 8616SOL     OW30694   0.384   4.732   7.172  0.0671  0.3895 -0.3213
 8616SOL    HW130695   0.476   4.722   7.196 -0.1938  1.2700  1.1880
 8616SOL    HW230696   0.374   4.825   7.154 -0.7777  0.5247  0.7463
 8617SOL     OW30697   4.719   2.795   4.870 -0.1866  0.2394 -0.2220
 8617SOL    HW130698   4.711   2.886   4.840  1.9814  0.1396 -1.2935
 8617SOL    HW230699   4.662   2.790   4.947  1.6838  3.3045  1.5894
 8618SOL     OW30700   2.294   4.614   6.130  0.1639 -0.1485  0.7220
 8618SOL    HW130701   2.352   4.539   6.142  1.4141  0.6987  0.2797
 8618SOL    HW230702   2.227   4.583   6.070 -0.3834 -1.4223  1.9410
 8619SOL     OW30703   2.916   4.585   4.522 -0.4846 -0.3997  0.0687
 8619SOL    HW130704   2.984   4.537   4.569  0.8888  1.5011  0.1421
 8619SOL    HW230705   2.914   4.544   4.435  0.8575 -0.4289  0.0298
 8620SOL     OW30706   1.696   2.796   5.216  0.0457 -0.2268 -0.1448
 8620SOL    HW130707   1.623   2.788   5.277  0.5579  0.4448  0.5824
 8620SOL    HW230708   1.746   2.871   5.248  1.2185 -0.8586 -0.4384
 8621SOL     OW30709   0.881   2.375   7.536  0.3911 -0.6843  0.1043
 8621SOL    HW130710   0.968   2.368   7.576  0.3823 -2.9918 -0.1398
 8621SOL    HW230711   0.880   2.307   7.469 -1.6625 -0.8436  0.2332
 8622SOL     OW30712   2.084   5.151   7.582 -0.3878  0.0248  0.1876
 8622SOL    HW130713   2.034   5.128   7.660  0.4879 -2.7129  0.0511
 8622SOL    HW230714   2.043   5.100   7.512  2.4138 -2.3111  0.0710
 8623SOL     OW30715   3.134   3.998   4.543  0.1653  0.2300  0.0880
 8623SOL    HW130716   3.046   3.974   4.516  0.4283 -1.2956  0.5063
 8623SOL    HW230717   3.145   3.957   4.629  0.9871  1.1176  0.4257
 8624SOL     OW30718   4.470   2.231   5.445  0.7132  0.2838  0.1330
 8624SOL    HW130719   4.551   2.230   5.496  0.1099 -0.9389  1.1375
 8624SOL    HW230720   4.401   2.219   5.509 -0.3307  1.8049 -0.6526
 8625SOL     OW30721   2.659   6.149   7.229  0.0150  0.1080 -0.2366
 8625SOL    HW130722   2.613   6.145   7.313  1.2020  1.4583  0.5399
 8625SOL    HW230723   2.720   6.223   7.239  1.3213 -0.7024 -1.7030
 8626SOL     OW30724   2.983   4.998   4.619 -0.5046  0.1177 -0.1926
 8626SOL    HW130725   2.959   4.929   4.680 -1.5484  0.5041 -0.1362
 8626SOL    HW230726   2.996   4.953   4.536 -2.2736 -0.0691 -0.4227
 8627SOL     OW30727   2.067   4.702   7.310  0.0569 -0.3643  0.0498
 8627SOL    HW130728   2.007   4.775   7.325  0.2611 -0.2753  0.4543
 8627SOL    HW230729   2.111   4.723   7.228  0.1953  0.0206  0.2241
 8628SOL     OW30730   1.752   3.426   7.105  0.2217 -0.1260  0.0968
 8628SOL    HW130731   1.686   3.460   7.045 -1.0630  0.8492  1.9857
 8628SOL    HW230732   1.709   3.354   7.151  1.1212 -0.7258  0.0266
 8629SOL     OW30733   1.579   6.102   4.287 -0.4491 -0.2198  0.1083
 8629SOL    HW130734   1.652   6.164   4.290  0.3804 -1.1054 -0.8336
 8629SOL    HW230735   1.513   6.138   4.346  0.3801  1.0796  0.2601
 8630SOL     OW30736   2.450   7.140   6.232  0.0269  0.2677  0.1427
 8630SOL    HW130737   2.432   7.083   6.307 -0.3436  1.2320  0.8065
 8630SOL    HW230738   2.398   7.218   6.248 -1.1636 -0.0407 -1.8352
 8631SOL     OW30739   2.171   2.476   7.152  0.0314  0.1560  0.0224
 8631SOL    HW130740   2.165   2.385   7.179  0.0801  0.3794  0.8033
 8631SOL    HW230741   2.185   2.525   7.233  0.3961  0.8205 -0.4310
 8632SOL     OW30742   4.503   7.574   7.892  0.7127 -0.0666 -0.2933
 8632SOL    HW130743   4.510   7.662   7.929 -1.1814  0.4116 -0.9756
 8632SOL    HW230744   4.575   7.569   7.829  0.5989  1.1661 -0.5439
 8633SOL     OW30745   3.363   2.250   7.023  0.3645  0.3126 -0.0518
 8633SOL    HW130746   3.329   2.195   6.952  1.1714  1.5208 -1.4214
 8633SOL    HW230747   3.384   2.188   7.093  0.3505 -1.0197 -1.1788
 8634SOL     OW30748   0.958   2.592   5.728 -0.0615  1.0558 -0.6825
 8634SOL    HW130749   0.964   2.656   5.799 -1.3354  0.8972 -0.4062
 8634SOL    HW230750   0.887   2.534   5.754 -0.1979  0.6704 -1.8448
 8635SOL     OW30751   2.615   4.890   7.479 -0.4587  0.2996  0.7842
 8635SOL    HW130752   2.589   4.861   7.567 -1.3555 -2.7023 -0.3458
 8635SOL    HW230753   2.532   4.906   7.433 -0.4782 -4.0086 -1.1793
 8636SOL     OW30754   0.433   2.301   7.908 -0.8389 -0.7166 -0.3306
 8636SOL    HW130755   0.413   2.394   7.898 -1.8910 -0.8618  0.2139
 8636SOL    HW230756   0.491   2.280   7.835 -2.7173 -0.2191 -2.0587
 8637SOL     OW30757   0.818   3.568   4.095 -0.9614  0.0395  0.8531
 8637SOL    HW130758   0.765   3.504   4.143 -1.9505 -0.2911 -0.6179
 8637SOL    HW230759   0.907   3.556   4.130 -0.9334 -2.7085  0.1053
 8638SOL     OW30760   5.811   2.493   7.284 -0.6668 -0.0727 -0.3449
 8638SOL    HW130761   5.823   2.581   7.250  0.0332 -1.3606 -3.8574
 8638SOL    HW230762   5.720   2.471   7.265 -1.1072  0.1149  1.3350
 8639SOL     OW30763   3.810   4.682   7.159 -0.0460  0.1054  0.2383
 8639SOL    HW130764   3.823   4.770   7.123  0.5205  0.4673  1.2744
 8639SOL    HW230765   3.733   4.691   7.216 -1.0803 -0.5176 -1.0082
 8640SOL     OW30766   2.412   5.133   6.606 -0.4792  0.2012 -0.8025
 8640SOL    HW130767   2.459   5.185   6.671 -1.1302 -0.7629  0.4801
 8640SOL    HW230768   2.357   5.073   6.657 -0.1745 -1.3713 -2.2211
 8641SOL     OW30769   3.575   3.007   1.723 -0.3189  0.0102 -0.0384
 8641SOL    HW130770   3.481   2.998   1.708 -0.3122 -0.2252  0.0409
 8641SOL    HW230771   3.613   3.007   1.635 -0.3084 -1.0003 -0.0477
 8642SOL     OW30772   1.186   4.853   7.399 -0.3154  0.6666  0.9647
 8642SOL    HW130773   1.132   4.925   7.430 -2.7154 -0.8938  0.6631
 8642SOL    HW230774   1.215   4.808   7.479 -1.6309  0.0473  1.1193
 8643SOL     OW30775   2.306   3.202   7.641  0.8095 -0.0791  0.0093
 8643SOL    HW130776   2.344   3.210   7.729  4.2146 -1.5025 -1.1692
 8643SOL    HW230777   2.340   3.119   7.608 -0.8346  0.1456 -2.4702
 8644SOL     OW30778   2.045   2.846   8.052  0.2422 -0.5164 -0.0191
 8644SOL    HW130779   2.025   2.916   8.114 -0.4481 -1.9933  1.4931
 8644SOL    HW230780   1.974   2.849   7.988  1.1755  1.2828 -1.0445
 8645SOL     OW30781   1.192   5.184   7.534 -0.8464  0.5699  0.3211
 8645SOL    HW130782   1.131   5.111   7.547 -0.5792  0.1308 -0.8128
 8645SOL    HW230783   1.176   5.214   7.445 -0.5231  1.5073  0.5654
 8646SOL     OW30784   0.841   4.831   9.594  0.5487 -0.9837  0.4436
 8646SOL    HW130785   0.756   4.865   9.621  1.3620  0.7346  0.9551
 8646SOL    HW230786   0.822   4.780   9.514 -0.7797  0.4642 -0.2073
 8647SOL     OW30787   4.054   5.821   7.227 -0.7669  0.0613  0.7710
 8647SOL    HW130788   4.087   5.805   7.315 -0.4402  1.4187  0.9153
 8647SOL    HW230789   4.111   5.768   7.170 -0.4629 -0.1945  1.3047
 8648SOL     OW30790   1.885   4.222   5.976 -0.5519  0.2287  0.0043
 8648SOL    HW130791   1.925   4.142   5.941 -1.8841 -0.9270  0.9948
 8648SOL    HW230792   1.955   4.263   6.026  0.7728  0.8338 -2.2353
 8649SOL     OW30793   3.956   5.045   2.044  0.2222  0.4371  0.5477
 8649SOL    HW130794   3.995   5.048   2.132  0.2488 -0.3699  0.5764
 8649SOL    HW230795   4.015   4.989   1.994  0.8534  1.8582 -0.3353
 8650SOL     OW30796   1.829   3.140   9.508  0.6581 -0.0907  0.4272
 8650SOL    HW130797   1.762   3.097   9.562  0.1956  0.4563  0.3085
 8650SOL    HW230798   1.780   3.206   9.459  0.8120 -1.4682 -1.6946
 8651SOL     OW30799   1.130   1.044   9.062 -0.4523  0.6214 -0.1889
 8651SOL    HW130800   1.034   1.054   9.061 -0.7957 -1.9068  0.5753
 8651SOL    HW230801   1.163   1.134   9.062 -2.9023  1.7058  2.7012
 8652SOL     OW30802   2.298   3.726   9.535  0.3490  0.1586 -0.5787
 8652SOL    HW130803   2.312   3.669   9.459 -0.0686 -0.9737  0.1605
 8652SOL    HW230804   2.294   3.666   9.609 -0.3230  1.1485  0.2109
 8653SOL     OW30805   0.520   6.000   7.398  0.1631 -0.2658 -0.1831
 8653SOL    HW130806   0.516   6.017   7.492  0.9176 -2.5377  0.3211
 8653SOL    HW230807   0.591   6.056   7.366  0.3850 -0.0108  0.7284
 8654SOL     OW30808   3.201   3.560   7.314 -1.0440  0.2556 -0.0632
 8654SOL    HW130809   3.107   3.545   7.325 -0.9631 -0.9811 -0.9025
 8654SOL    HW230810   3.239   3.530   7.397 -1.2437 -0.7265 -0.3222
 8655SOL     OW30811   3.486   4.920   0.021 -0.0502  0.0305  0.4146
 8655SOL    HW130812   3.400   4.952   0.048 -0.9310 -2.1502  0.4037
 8655SOL    HW230813   3.487   4.930  -0.074 -0.3263  0.0192  0.4103
 8656SOL     OW30814   0.962   5.006   6.129 -0.0853 -0.6664 -0.0709
 8656SOL    HW130815   0.917   4.994   6.213  0.0850  0.2261  0.1540
 8656SOL    HW230816   0.928   5.088   6.094  0.8533 -0.3320 -0.2272
 8657SOL     OW30817   2.177   7.217   5.701  0.2644 -0.0775 -0.9821
 8657SOL    HW130818   2.136   7.275   5.637  0.5787  0.6922 -0.5153
 8657SOL    HW230819   2.210   7.144   5.650  0.6259  0.5879 -1.7296
 8658SOL     OW30820   3.029   4.115   7.091  0.2010  0.3471 -0.4207
 8658SOL    HW130821   3.120   4.090   7.109  0.3335 -2.2392 -3.7547
 8658SOL    HW230822   2.982   4.096   7.172  2.3111 -0.1669  0.7389
 8659SOL     OW30823   3.970   6.429   4.878  0.0292  0.1492  0.5394
 8659SOL    HW130824   3.903   6.377   4.921 -1.2477  0.6528 -0.7591
 8659SOL    HW230825   4.049   6.413   4.929 -1.1048 -0.2866  2.2511
 8660SOL     OW30826   9.823   4.137   8.884 -0.2457  0.3160  0.4318
 8660SOL    HW130827   9.822   4.141   8.980 -1.7397  1.4683  0.3893
 8660SOL    HW230828   9.893   4.074   8.864  0.1583  0.1272  2.2623
 8661SOL     OW30829   2.660   5.038   8.954  0.4609  0.3807 -0.2114
 8661SOL    HW130830   2.719   5.111   8.934 -0.4729  0.6014 -2.5554
 8661SOL    HW230831   2.588   5.078   9.002  0.0585  1.0233 -1.2992
 8662SOL     OW30832   0.924   1.539   8.780  0.5182  0.1036  0.2028
 8662SOL    HW130833   0.869   1.484   8.724 -0.5100  0.8544  0.4318
 8662SOL    HW230834   1.001   1.486   8.797  0.0792 -0.8104 -0.5198
 8663SOL     OW30835   4.428   2.945   9.248  0.1342 -0.0005 -0.5843
 8663SOL    HW130836   4.410   3.036   9.228  2.5793  0.8714  0.7912
 8663SOL    HW230837   4.512   2.927   9.206  1.1430 -0.6875  1.5762
 8664SOL     OW30838   0.421   4.622   5.544  0.2315  0.1619 -1.0287
 8664SOL    HW130839   0.395   4.671   5.466  1.6053  1.2789 -0.8357
 8664SOL    HW230840   0.359   4.649   5.612  0.7324  1.3823 -1.0300
 8665SOL     OW30841   2.775   6.505   6.860  1.0252  0.4717 -0.4185
 8665SOL    HW130842   2.799   6.526   6.769  0.0660 -2.3319 -1.4317
 8665SOL    HW230843   2.857   6.474   6.899  0.9035 -1.0631 -1.2840
 8666SOL     OW30844   1.750   3.067   8.716  0.2223 -0.1991 -0.1086
 8666SOL    HW130845   1.673   3.113   8.751  0.4603  0.1121  0.0180
 8666SOL    HW230846   1.800   3.042   8.794 -0.7547 -2.2319 -0.0701
 8667SOL     OW30847   3.235   2.003   0.814 -0.2267  0.5722  0.5178
 8667SOL    HW130848   3.163   2.015   0.752  0.4634  0.6608 -0.2748
 8667SOL    HW230849   3.248   1.908   0.817  2.1822  0.6619 -2.3831
 8668SOL     OW30850   1.181   4.278   7.813  0.1340  0.0515 -0.1629
 8668SOL    HW130851   1.183   4.371   7.791  0.4466  0.5005  1.5842
 8668SOL    HW230852   1.094   4.248   7.786 -0.9411  1.4830  1.4739
 8669SOL     OW30853   2.613   7.884   7.302 -0.2322  0.0838  0.1900
 8669SOL    HW130854   2.589   7.974   7.324  0.5598  0.0990  1.0449
 8669SOL    HW230855   2.591   7.834   7.380  0.9718 -0.1592  0.3974
 8670SOL     OW30856   1.669   2.856   8.111 -0.1868  0.3161  0.2615
 8670SOL    HW130857   1.715   2.928   8.155 -0.5748  2.0513 -1.9401
 8670SOL    HW230858   1.576   2.874   8.128 -0.2718  0.1216  0.0031
 8671SOL     OW30859   1.486   4.454   7.451  0.4099  0.4808  0.5598
 8671SOL    HW130860   1.423   4.523   7.469 -0.1145 -0.0048  0.6217
 8671SOL    HW230861   1.571   4.499   7.447 -0.1127  1.4132 -1.2517
 8672SOL     OW30862   1.377   4.498   9.084  0.2116  0.9476 -0.1387
 8672SOL    HW130863   1.349   4.589   9.087 -1.1218  0.5775 -0.7893
 8672SOL    HW230864   1.369   4.468   9.175  0.7346  1.4857  0.0919
 8673SOL     OW30865   2.420   7.194   8.167  0.3173 -0.2541  0.0551
 8673SOL    HW130866   2.457   7.235   8.245  1.5332  0.5306 -0.8997
 8673SOL    HW230867   2.332   7.231   8.160  0.3472 -0.0192  0.8186
 8674SOL     OW30868   1.370   8.047   9.452  0.3710 -0.0650 -0.1054
 8674SOL    HW130869   1.314   8.119   9.481 -0.2799 -0.5416 -0.1545
 8674SOL    HW230870   1.309   7.976   9.433  1.0931 -1.0547  1.1702
 8675SOL     OW30871   3.342   4.920   1.446  0.3971 -0.0054  0.3063
 8675SOL    HW130872   3.286   4.930   1.524  0.7289 -0.1783  0.5693
 8675SOL    HW230873   3.356   4.826   1.437 -1.2394 -0.1508 -1.1213
 8676SOL     OW30874   5.077   4.902   7.783 -0.6351  0.3577 -0.5953
 8676SOL    HW130875   5.098   4.980   7.834 -0.7671  0.2477 -0.3737
 8676SOL    HW230876   5.033   4.843   7.845  2.3777 -1.2851  0.1577
 8677SOL     OW30877   5.090   7.184   7.955 -0.0998 -0.6745 -0.1852
 8677SOL    HW130878   5.171   7.235   7.956 -0.2135 -0.5006  1.2886
 8677SOL    HW230879   5.119   7.093   7.955  0.0950 -0.6132 -0.4135
 8678SOL     OW30880   2.171   4.387   9.160 -0.4012 -0.0354 -0.1524
 8678SOL    HW130881   2.084   4.426   9.149 -0.9572 -0.5823  1.8175
 8678SOL    HW230882   2.177   4.369   9.254  1.2576 -1.3874 -0.4728
 8679SOL     OW30883   3.462   7.140   6.456 -0.0680  0.0817 -0.1457
 8679SOL    HW130884   3.468   7.234   6.473  0.3556 -0.2012  1.4814
 8679SOL    HW230885   3.529   7.101   6.512 -1.2068 -1.3084  0.3219
 8680SOL     OW30886   1.709   2.659   1.037  0.3760 -0.2189 -0.5345
 8680SOL    HW130887   1.656   2.730   1.001  0.0766  0.9382  2.0172
 8680SOL    HW230888   1.647   2.586   1.047 -0.6169  0.8326  1.5694
 8681SOL     OW30889   5.279   1.593   9.295  0.4019 -0.4366  0.1452
 8681SOL    HW130890   5.236   1.673   9.325  0.2711 -0.7139  0.7182
 8681SOL    HW230891   5.357   1.586   9.350  0.0558 -1.0571  0.5721
 8682SOL     OW30892   1.950   3.875   6.968 -0.9156  0.5585  0.7868
 8682SOL    HW130893   1.856   3.860   6.981 -0.9167 -0.4899 -0.2869
 8682SOL    HW230894   1.960   3.885   6.874 -0.0582  1.6197  0.9723
 8683SOL     OW30895   2.607   2.712   0.368 -0.0604 -0.7274  0.7653
 8683SOL    HW130896   2.628   2.636   0.423 -1.9241 -0.5054  1.8615
 8683SOL    HW230897   2.527   2.687   0.322 -1.7234  1.1240  2.4494
 8684SOL     OW30898   0.501   3.406   5.806  0.4804 -0.3673  0.1882
 8684SOL    HW130899   0.542   3.320   5.792  1.2627  0.0011  0.1675
 8684SOL    HW230900   0.432   3.411   5.740  0.9233 -0.6755 -0.3057
 8685SOL     OW30901   0.181   4.365   9.157  0.1935  0.0616 -0.2161
 8685SOL    HW130902   0.227   4.412   9.087  1.8495  0.0637  0.8161
 8685SOL    HW230903   0.242   4.365   9.230 -0.8190 -1.4121  0.6924
 8686SOL     OW30904   1.584   6.135   7.034 -0.2180  0.0148  0.6678
 8686SOL    HW130905   1.498   6.169   7.060  0.1258 -0.0398  1.9054
 8686SOL    HW230906   1.613   6.196   6.966 -1.3465 -0.1302  0.0216
 8687SOL     OW30907   1.901   6.369   6.527  0.4985  0.1168 -0.2817
 8687SOL    HW130908   1.960   6.312   6.477  1.2949  0.8076 -0.1609
 8687SOL    HW230909   1.959   6.412   6.591 -0.1748  0.6719 -0.0360
 8688SOL     OW30910   5.198   6.637   8.007  0.0681 -0.5206 -0.3847
 8688SOL    HW130911   5.109   6.656   8.037  0.2313 -0.2411 -0.0653
 8688SOL    HW230912   5.232   6.576   8.072 -0.2963 -1.5777 -1.1595
 8689SOL     OW30913   2.732   2.631   9.366  0.0378  0.6584  0.4084
 8689SOL    HW130914   2.689   2.584   9.294  3.0428 -0.6485 -0.7159
 8689SOL    HW230915   2.699   2.589   9.445 -2.1656  1.0625 -0.2407
 8690SOL     OW30916   0.995   3.839   9.131 -0.6515  0.2953  0.0022
 8690SOL    HW130917   1.018   3.914   9.076  0.4006  0.2185  0.3124
 8690SOL    HW230918   0.921   3.798   9.086 -1.2696  1.5154 -0.1647
 8691SOL     OW30919   2.604   6.674   6.968  0.7096 -0.2122  0.6436
 8691SOL    HW130920   2.675   6.614   6.947  0.9032  0.1834  0.1545
 8691SOL    HW230921   2.610   6.743   6.902  1.0968  0.8589  1.7649
 8692SOL     OW30922   4.657   5.903   7.191  0.0903  0.4921 -0.3727
 8692SOL    HW130923   4.748   5.932   7.201  0.3608 -0.3021 -0.4365
 8692SOL    HW230924   4.647   5.887   7.098 -0.0359  0.3307 -0.3323
 8693SOL     OW30925   3.032   4.759   3.387 -0.2321 -0.1205 -0.1645
 8693SOL    HW130926   2.956   4.728   3.337  1.0375 -0.6514 -1.8575
 8693SOL    HW230927   3.094   4.686   3.385  0.3199  0.2737  1.2587
 8694SOL     OW30928   3.072   3.827   8.554  0.5336  0.7995  0.4295
 8694SOL    HW130929   3.105   3.903   8.506  2.8530  0.2813  1.1118
 8694SOL    HW230930   3.124   3.825   8.635 -0.9003 -0.3473  1.3768
 8695SOL     OW30931   2.756   4.957   7.057 -0.0736 -0.0667  0.0190
 8695SOL    HW130932   2.785   4.909   7.135  0.4992 -2.6297 -1.6745
 8695SOL    HW230933   2.698   4.896   7.011 -0.0448  1.2014 -1.7929
 8696SOL     OW30934   4.689   5.135   9.273  0.1826 -0.6748  0.3971
 8696SOL    HW130935   4.747   5.201   9.309 -3.0918  2.6224  0.2905
 8696SOL    HW230936   4.700   5.143   9.178  1.0985 -1.6727  0.4030
 8697SOL     OW30937   1.959   3.043   8.240 -0.0274  0.3032 -0.2388
 8697SOL    HW130938   2.020   3.099   8.287 -0.8748  1.0411 -0.0026
 8697SOL    HW230939   1.883   3.035   8.298  0.3934 -1.8078  0.1330
 8698SOL     OW30940   3.190   4.981   7.630  0.5771  0.3406  0.7596
 8698SOL    HW130941   3.193   5.047   7.560  0.4386  0.5174  0.9181
 8698SOL    HW230942   3.168   4.899   7.586 -0.5841  0.6450  0.7263
 8699SOL     OW30943   2.566   4.089   6.797  0.1075 -0.1778 -0.4369
 8699SOL    HW130944   2.518   4.161   6.755 -0.3539 -0.4593 -0.3947
 8699SOL    HW230945   2.651   4.088   6.752 -0.0656  0.0783 -0.7780
 8700SOL     OW30946   3.049   4.314   6.157 -0.0201  0.0411  0.3732
 8700SOL    HW130947   3.082   4.260   6.228  3.4739 -0.9972 -1.7747
 8700SOL    HW230948   3.113   4.384   6.147 -0.4926  0.2757 -1.6048
 8701SOL     OW30949   3.090   5.195   8.258  0.3769  0.4585  0.0262
 8701SOL    HW130950   3.104   5.147   8.340  2.0007  1.6880  0.5176
 8701SOL    HW230951   3.002   5.232   8.267 -0.2532 -1.0057  0.3325
 8702SOL     OW30952   3.280   5.020   6.797  0.2405 -0.4465 -0.4100
 8702SOL    HW130953   3.251   5.009   6.887 -1.3443  0.0319 -0.8278
 8702SOL    HW230954   3.337   4.945   6.781  0.1194 -0.8261  0.8213
 8703SOL     OW30955   1.947   3.908   6.185 -0.5145 -0.7443 -0.3687
 8703SOL    HW130956   2.028   3.906   6.133 -0.4382  3.0508 -0.6805
 8703SOL    HW230957   1.882   3.866   6.129  0.5191 -0.7561 -1.6067
 8704SOL     OW30958   2.213   5.937   5.918 -0.5040  0.2186 -0.2582
 8704SOL    HW130959   2.215   6.033   5.925  1.8299  0.4709 -2.7800
 8704SOL    HW230960   2.124   5.917   5.888 -1.2817  1.4538  1.0542
 8705SOL     OW30961   1.654   6.394   7.728 -0.3322 -0.2026  0.5677
 8705SOL    HW130962   1.600   6.316   7.718  0.4959 -0.5881 -1.1865
 8705SOL    HW230963   1.692   6.386   7.816 -0.0586 -1.8974  0.3277
 8706SOL     OW30964   2.685   4.288   4.379  0.0790 -0.3215 -0.0110
 8706SOL    HW130965   2.625   4.361   4.363 -0.7398 -1.1246 -0.7086
 8706SOL    HW230966   2.721   4.267   4.293  1.9007  0.5648  0.4871
 8707SOL     OW30967   2.860   5.171   7.698  0.1049 -0.1117  0.0790
 8707SOL    HW130968   2.768   5.178   7.673  0.3944  1.0968 -0.7203
 8707SOL    HW230969   2.858   5.138   7.788 -1.1560  1.3417  0.6277
 8708SOL     OW30970   1.647   6.440   7.461 -0.3163 -0.1507  0.5596
 8708SOL    HW130971   1.725   6.468   7.412 -0.7418  1.7689  0.9192
 8708SOL    HW230972   1.669   6.458   7.553 -0.8256 -0.5462  0.7646
 8709SOL     OW30973   3.936   3.872   1.484  0.3998  0.4727 -0.5280
 8709SOL    HW130974   4.024   3.839   1.464 -1.1477 -3.9689 -1.1341
 8709SOL    HW230975   3.902   3.902   1.400  0.1255 -1.3129 -1.0890
 8710SOL     OW30976   2.077   7.411   6.497 -0.0139  0.2423 -0.0324
 8710SOL    HW130977   2.002   7.449   6.544 -0.2879  3.1858 -2.5109
 8710SOL    HW230978   2.145   7.478   6.503  0.9866 -0.6269 -1.2711
 8711SOL     OW30979   2.087   3.158   7.810  0.0251 -0.5979  0.2124
 8711SOL    HW130980   2.169   3.183   7.767  0.5003 -1.5699  0.5210
 8711SOL    HW230981   2.077   3.065   7.790 -1.8596 -0.1439 -1.1757
 8712SOL     OW30982   2.397   2.922   7.462 -0.0879 -0.3003  0.0479
 8712SOL    HW130983   2.367   2.979   7.391 -2.2304 -3.0579 -1.4835
 8712SOL    HW230984   2.454   2.859   7.420 -0.4146 -1.2657  1.0007
 8713SOL     OW30985   0.587   3.861   8.639 -0.7801 -0.4275 -0.2297
 8713SOL    HW130986   0.602   3.915   8.717  0.8112 -1.5550  0.2917
 8713SOL    HW230987   0.641   3.783   8.653 -1.2983 -1.1504 -1.9837
 8714SOL     OW30988   1.092   2.325   6.738  0.2092 -0.4818  0.0800
 8714SOL    HW130989   1.036   2.289   6.807  1.3217 -0.8395  0.8291
 8714SOL    HW230990   1.032   2.342   6.665 -0.4061 -4.1177 -0.4512
 8715SOL     OW30991   4.122   5.490   9.175 -0.6005 -0.5639  0.2043
 8715SOL    HW130992   4.110   5.401   9.141  2.3816 -1.4726  1.2099
 8715SOL    HW230993   4.082   5.546   9.108 -1.3406 -2.5741 -1.1539
 8716SOL     OW30994   4.617   7.451   9.432 -0.2987  0.1725  0.6724
 8716SOL    HW130995   4.694   7.490   9.474  0.1739  2.1840 -1.8109
 8716SOL    HW230996   4.566   7.526   9.403 -2.1139 -1.1464  0.3407
 8717SOL     OW30997   1.785   5.280   8.881 -0.1960  0.1254 -0.6572
 8717SOL    HW130998   1.867   5.232   8.894 -0.6795 -0.7948 -0.9172
 8717SOL    HW230999   1.786   5.348   8.948  0.3203 -0.5095 -0.0000
 8718SOL     OW31000   0.928   3.042   9.388  0.4412 -0.2657 -0.1891
 8718SOL    HW131001   1.013   3.071   9.354 -0.1927  1.1563 -0.6256
 8718SOL    HW231002   0.871   3.118   9.378 -1.0345 -1.3688 -0.3828
 8719SOL     OW31003   2.976   6.166   6.315  0.1174  0.0984 -0.0592
 8719SOL    HW131004   2.985   6.185   6.409  0.1920  1.0940 -0.2508
 8719SOL    HW231005   2.906   6.101   6.310  0.6172 -0.5176  0.7360
 8720SOL     OW31006   4.678   3.925   7.918  0.0517  0.2299  0.1707
 8720SOL    HW131007   4.668   3.908   8.011  0.4728 -0.0844  0.1628
 8720SOL    HW231008   4.597   3.969   7.892 -0.0774  0.2911  0.6760
 8721SOL     OW31009   9.374   3.664   9.277  0.0885  0.0382  0.1073
 8721SOL    HW131010   9.337   3.751   9.291  1.1951  0.3520  1.2356
 8721SOL    HW231011   9.466   3.680   9.258  0.8558 -0.9573  2.5889
 8722SOL     OW31012   2.964   3.782   9.722  0.8388 -0.1674  0.2320
 8722SOL    HW131013   2.986   3.689   9.725  1.8892  0.0767  0.1562
 8722SOL    HW231014   2.868   3.783   9.713  0.7114 -1.2170  1.3235
 8723SOL     OW31015   1.058   5.630   7.914  0.2875  0.3582  0.3766
 8723SOL    HW131016   0.985   5.628   7.852  0.0920  2.6608  0.4569
 8723SOL    HW231017   1.130   5.586   7.868 -0.2437  0.8387 -0.9708
 8724SOL     OW31018   8.816   2.479   7.735  0.3604 -0.7152  0.2098
 8724SOL    HW131019   8.850   2.505   7.821 -0.3823  0.4395  0.1751
 8724SOL    HW231020   8.877   2.518   7.673 -0.0899 -0.0350  0.1850
 8725SOL     OW31021   4.669   5.974   8.427 -0.2656 -0.1866  0.2028
 8725SOL    HW131022   4.697   5.910   8.362 -0.2537  0.2550 -0.2357
 8725SOL    HW231023   4.588   6.010   8.392  1.6011  2.7390 -1.4905
 8726SOL     OW31024   1.665   5.425   7.291  0.5440 -0.3569 -0.1058
 8726SOL    HW131025   1.648   5.494   7.355  2.8062  1.2580 -1.1105
 8726SOL    HW231026   1.597   5.437   7.224  0.8731  0.8801 -0.2366
 8727SOL     OW31027   2.469   5.224   7.131 -0.3369  0.2565  0.7280
 8727SOL    HW131028   2.503   5.196   7.217  1.1292 -0.2187  0.0248
 8727SOL    HW231029   2.450   5.142   7.085  1.6018  0.3979 -0.4266
 8728SOL     OW31030   3.693   5.074   0.113 -0.1744 -0.0839 -0.3025
 8728SOL    HW131031   3.638   5.008   0.070 -1.0589  0.6106 -0.2728
 8728SOL    HW231032   3.631   5.136   0.151  0.6086 -0.1710  1.1894
 8729SOL     OW31033   3.161   4.614   9.115 -0.0469 -0.1393  0.4865
 8729SOL    HW131034   3.168   4.531   9.160  0.0669 -0.6293 -0.4183
 8729SOL    HW231035   3.109   4.595   9.036  0.2429  0.5706  0.1104
 8730SOL     OW31036   3.433   5.728   8.805 -0.4410  0.8645  0.6738
 8730SOL    HW131037   3.402   5.763   8.721  0.3890 -2.4478 -1.1683
 8730SOL    HW231038   3.370   5.659   8.827  0.6975  0.0573  1.5034
 8731SOL     OW31039   0.927   2.030   9.301 -0.1738 -0.3519 -0.4092
 8731SOL    HW131040   0.880   2.103   9.341  0.5290  0.2240 -0.6361
 8731SOL    HW231041   0.899   1.954   9.352  1.5851  0.4985  1.9644
 8732SOL     OW31042   9.344   4.494   7.823  0.0750  0.3988  0.3108
 8732SOL    HW131043   9.326   4.450   7.907  0.0838  0.1447  0.1809
 8732SOL    HW231044   9.342   4.423   7.759  2.6815  0.1390  0.4091
 8733SOL     OW31045   3.274   7.383   8.529 -0.4157  0.1584 -0.0646
 8733SOL    HW131046   3.307   7.401   8.618 -1.8217  0.5838  0.3928
 8733SOL    HW231047   3.328   7.438   8.472  1.9184 -1.6605  0.2529
 8734SOL     OW31048   3.734   7.530   9.479  0.0556  0.1622  0.0950
 8734SOL    HW131049   3.674   7.561   9.546  0.3766  0.2848  0.3291
 8734SOL    HW231050   3.813   7.506   9.527  0.6479  1.1833 -0.3460
 8735SOL     OW31051   1.889   2.502   6.398  0.5140  0.1797 -0.0336
 8735SOL    HW131052   1.821   2.468   6.457  1.9278  0.0517  1.6231
 8735SOL    HW231053   1.865   2.468   6.312 -0.0300 -2.2265  0.9636
 8736SOL     OW31054   0.783   4.081   9.127  0.3996 -0.1296 -0.1451
 8736SOL    HW131055   0.747   4.145   9.189 -0.8246  0.1068 -1.0718
 8736SOL    HW231056   0.735   4.000   9.145 -1.9133  0.5856 -2.4486
 8737SOL     OW31057   4.326   3.531   6.425 -0.5347 -0.5619 -0.7072
 8737SOL    HW131058   4.268   3.458   6.402 -3.2784  0.6682  1.6668
 8737SOL    HW231059   4.321   3.535   6.520  1.0306  1.6013 -0.6648
 8738SOL     OW31060   2.480   5.439   9.501 -0.2183  0.2751 -0.8828
 8738SOL    HW131061   2.401   5.472   9.459  0.0250  1.8962 -0.1632
 8738SOL    HW231062   2.449   5.387   9.575 -0.7236  3.4223  1.2989
 8739SOL     OW31063   3.162   6.082   9.468  0.2235  0.2341  0.2605
 8739SOL    HW131064   3.202   6.146   9.526  0.7582  0.0745  0.0761
 8739SOL    HW231065   3.078   6.062   9.508  1.3132 -1.2128  1.9579
 8740SOL     OW31066   3.147   5.157   8.562  0.1880  0.1452 -0.4222
 8740SOL    HW131067   3.213   5.203   8.510  2.1739 -0.5131  1.3735
 8740SOL    HW231068   3.129   5.077   8.513 -1.1818  1.4184 -2.1400
 8741SOL     OW31069   3.807   4.928   8.057  0.4113 -0.5941  0.1039
 8741SOL    HW131070   3.890   4.961   8.093  0.3887 -0.5507  0.1172
 8741SOL    HW231071   3.765   4.884   8.131  0.4429 -0.6554  0.0850
 8742SOL     OW31072   0.970   5.858   6.789 -0.0988  0.3121  0.2570
 8742SOL    HW131073   0.912   5.816   6.852 -0.2583  1.0045  0.5885
 8742SOL    HW231074   1.035   5.791   6.768 -0.4428 -0.1509  0.6312
 8743SOL     OW31075   0.364   7.564   7.353  0.0368 -0.0937 -0.0624
 8743SOL    HW131076   0.349   7.560   7.447 -2.0827 -1.5837 -0.3825
 8743SOL    HW231077   0.283   7.532   7.314  1.0150  0.0280 -2.4013
 8744SOL     OW31078   3.718   3.936   7.810 -0.1624 -0.5019  0.1764
 8744SOL    HW131079   3.720   3.863   7.871  0.3302 -0.1171  0.6300
 8744SOL    HW231080   3.638   3.984   7.832  1.0903  0.8906  2.0492
 8745SOL     OW31081   1.935   5.004   7.791 -0.4202  0.1259  0.1380
 8745SOL    HW131082   1.876   5.047   7.854  0.5713  0.1891  1.0441
 8745SOL    HW231083   1.943   4.915   7.824 -1.5928 -0.4736 -1.1228
 8746SOL     OW31084   2.807   5.648   7.557  0.2080  0.4237 -0.2800
 8746SOL    HW131085   2.878   5.587   7.536 -0.8069 -0.0521 -2.6952
 8746SOL    HW231086   2.843   5.704   7.626  1.2559 -2.7325  1.9786
 8747SOL     OW31087   3.562   2.900   6.226 -0.4997 -0.2362  0.4883
 8747SOL    HW131088   3.475   2.922   6.259 -1.1639 -1.2951 -0.4697
 8747SOL    HW231089   3.588   2.824   6.278  0.3725  0.7505  1.5508
 8748SOL     OW31090   1.976   5.215   9.682 -0.2372 -0.2661 -0.1458
 8748SOL    HW131091   2.018   5.130   9.694  1.6509  0.7678  0.8688
 8748SOL    HW231092   2.013   5.271   9.750 -1.2630  1.4507 -0.9225
 8749SOL     OW31093   0.260   5.504   9.443  0.2841 -0.1811  0.0278
 8749SOL    HW131094   0.173   5.501   9.483 -0.2282  0.9479 -0.9467
 8749SOL    HW231095   0.314   5.448   9.499 -0.2938  1.6608  2.5913
 8750SOL     OW31096   4.559   0.675   6.272 -0.5063 -0.2850  0.0049
 8750SOL    HW131097   4.523   0.731   6.340 -0.7037 -0.1049 -0.2444
 8750SOL    HW231098   4.641   0.643   6.307 -0.7592 -0.4448  0.4555
 8751SOL     OW31099   1.598   3.636   0.216  0.6848  0.3014  0.0113
 8751SOL    HW131100   1.505   3.616   0.205  0.9675 -0.0593 -2.1556
 8751SOL    HW231101   1.628   3.574   0.283 -0.5007  0.0046  0.2905
 8752SOL     OW31102   4.281   3.204   0.029  0.3288  0.1093  0.2726
 8752SOL    HW131103   4.356   3.203  -0.030  0.2449 -0.9052  0.1651
 8752SOL    HW231104   4.208   3.233  -0.026  0.0482 -1.7653 -0.4239
 8753SOL     OW31105   2.017   3.880   7.869  0.4816 -0.2767  0.4542
 8753SOL    HW131106   1.988   3.795   7.901  3.6071 -1.9329 -0.6998
 8753SOL    HW231107   1.994   3.880   7.776 -0.8128  0.8333  0.7395
 8754SOL     OW31108   0.449   6.258   6.647 -0.5105 -0.4148  0.5927
 8754SOL    HW131109   0.356   6.258   6.670 -1.1340 -1.3817 -1.6486
 8754SOL    HW231110   0.482   6.341   6.681 -2.1735 -0.0608  1.4512
 8755SOL     OW31111   2.163   3.117   5.809 -0.5364 -0.3244  0.0502
 8755SOL    HW131112   2.154   3.102   5.903  1.0212 -1.2703  0.0870
 8755SOL    HW231113   2.250   3.155   5.799  0.3725 -2.5447 -1.1983
 8756SOL     OW31114   1.083   6.189   8.823  0.4394 -0.9910  0.0643
 8756SOL    HW131115   1.046   6.234   8.899  2.3263  0.3940  0.2400
 8756SOL    HW231116   1.134   6.257   8.778  2.3777 -2.6284 -0.3725
 8757SOL     OW31117   1.519   3.537   8.781 -0.1408 -0.3702 -0.4332
 8757SOL    HW131118   1.490   3.448   8.764  0.6900 -0.5117 -1.2077
 8757SOL    HW231119   1.452   3.592   8.739  0.3521 -0.6759 -1.6598
 8758SOL     OW31120   4.368   4.870   0.716 -0.3195 -0.1856  0.4304
 8758SOL    HW131121   4.369   4.960   0.683 -1.5492 -0.7957 -1.4315
 8758SOL    HW231122   4.456   4.837   0.697  0.2024  0.6239  1.2862
 8759SOL     OW31123   8.394   2.108   7.826  0.2211  0.2749  0.8771
 8759SOL    HW131124   8.411   2.171   7.895  0.4489  0.0674  1.0120
 8759SOL    HW231125   8.395   2.159   7.745 -1.2114  0.7324  1.1160
 8760SOL     OW31126   4.561   6.079   9.602  0.0251  0.5906  0.1283
 8760SOL    HW131127   4.519   6.060   9.518  1.6195 -0.0272 -0.5774
 8760SOL    HW231128   4.566   5.993   9.646  0.1905  0.7274  0.3797
 8761SOL     OW31129   2.166   3.908   7.126  0.3847  0.0293 -0.0762
 8761SOL    HW131130   2.089   3.891   7.072  1.2108  0.9451 -1.6351
 8761SOL    HW231131   2.216   3.827   7.123  0.5624  0.1555 -0.9921
 8762SOL     OW31132   0.814   3.410   8.917  0.5804  0.6871 -0.0189
 8762SOL    HW131133   0.728   3.407   8.961  0.4712  0.0660 -0.2752
 8762SOL    HW231134   0.798   3.372   8.831  1.0867  0.6985 -0.1174
 8763SOL     OW31135   4.851   6.041   7.579  0.0558  0.0850  0.3744
 8763SOL    HW131136   4.866   5.992   7.497 -0.2058  1.7341 -0.6944
 8763SOL    HW231137   4.776   6.097   7.560 -0.5243 -0.0785  2.0435
 8764SOL     OW31138   0.803   4.452   8.083  0.4754  0.1996  0.1633
 8764SOL    HW131139   0.740   4.501   8.136 -0.9909 -1.8058  0.4098
 8764SOL    HW231140   0.822   4.509   8.009 -0.6772  1.3670  0.7390
 8765SOL     OW31141   3.248   3.861   7.561  0.0540  0.0846  0.7684
 8765SOL    HW131142   3.209   3.828   7.641  1.0633  0.2695  1.3493
 8765SOL    HW231143   3.330   3.814   7.552  0.8089  1.3430  0.8100
 8766SOL     OW31144   2.754   2.949   7.845 -0.7531  0.9033 -0.2107
 8766SOL    HW131145   2.787   2.867   7.882  0.9627  1.8576  0.4776
 8766SOL    HW231146   2.661   2.932   7.830 -1.6815  0.3714  4.5325
 8767SOL     OW31147   0.850   5.476   0.069  0.3941 -0.2180 -0.1565
 8767SOL    HW131148   0.786   5.522   0.124 -0.6614 -0.6570 -0.9734
 8767SOL    HW231149   0.921   5.539   0.057 -0.4546  0.7515 -0.2588
 8768SOL     OW31150   2.532   4.538   8.831 -0.1343  0.1993 -0.0352
 8768SOL    HW131151   2.466   4.527   8.762 -0.4276  0.8965  0.1271
 8768SOL    HW231152   2.505   4.477   8.899 -0.6818  0.5557  0.0740
 8769SOL     OW31153   4.433   4.472   7.958 -0.1218 -0.1007 -0.3234
 8769SOL    HW131154   4.458   4.439   7.872 -0.0017  0.8403 -0.6593
 8769SOL    HW231155   4.508   4.451   8.015  1.5504  2.6630 -1.3064
 8770SOL     OW31156   0.320   5.106   1.024 -0.0796  0.1079  0.6306
 8770SOL    HW131157   0.365   5.190   1.029  0.0305  0.0325  0.8953
 8770SOL    HW231158   0.366   5.049   1.086 -0.8225  0.1605  1.2429
 8771SOL     OW31159   1.792   3.543   9.279 -0.1631 -0.2169 -0.3279
 8771SOL    HW131160   1.791   3.451   9.305  0.4371 -0.2408 -0.3812
 8771SOL    HW231161   1.713   3.553   9.225 -0.6351 -0.5105  0.2900
 8772SOL     OW31162   1.906   3.528   6.422  0.4920  0.6415  0.0815
 8772SOL    HW131163   1.814   3.507   6.432  0.7403  0.4680  2.5166
 8772SOL    HW231164   1.908   3.624   6.413  0.0345  0.5611 -0.9838
 8773SOL     OW31165   0.515   5.216   7.519  0.2685  0.1285  0.2698
 8773SOL    HW131166   0.581   5.265   7.569 -0.3610  2.9667 -1.4443
 8773SOL    HW231167   0.446   5.197   7.582  1.0876  0.3893  1.2679
 8774SOL     OW31168   0.778   4.545   8.816  0.0975 -0.0519 -0.1998
 8774SOL    HW131169   0.765   4.480   8.885 -0.4041 -0.4109 -0.6180
 8774SOL    HW231170   0.758   4.498   8.735  1.2761  0.1935 -0.6477
 8775SOL     OW31171   4.247   4.628   8.321 -0.0187 -0.0997 -0.3786
 8775SOL    HW131172   4.325   4.594   8.365  0.0078 -0.4892 -0.7173
 8775SOL    HW231173   4.240   4.718   8.350  0.7083  0.0156 -0.5410
 8776SOL     OW31174   3.608   5.152   7.767  0.1385 -0.3102 -0.1486
 8776SOL    HW131175   3.634   5.060   7.768  1.5425  0.0390  1.2902
 8776SOL    HW231176   3.591   5.172   7.675  0.0891 -1.9230 -0.5142
 8777SOL     OW31177   1.727   4.410   9.365  0.0556  0.2928 -0.3542
 8777SOL    HW131178   1.698   4.408   9.274  0.2362  1.6669 -0.4633
 8777SOL    HW231179   1.722   4.502   9.390 -0.5168 -0.1160  1.2102
 8778SOL     OW31180   4.037   5.861   9.539 -0.4248  0.0653 -0.0764
 8778SOL    HW131181   3.970   5.875   9.472 -0.3464  2.5788  0.2853
 8778SOL    HW231182   3.989   5.827   9.614 -1.0164  0.1881 -0.3920
 8779SOL     OW31183   0.379   7.248   9.414  0.4004 -0.3766 -0.0278
 8779SOL    HW131184   0.440   7.226   9.344 -1.1657  0.1750 -1.6515
 8779SOL    HW231185   0.311   7.180   9.409 -0.2917  0.2762  0.2288
 8780SOL     OW31186   3.453   5.440   2.132  0.3947 -0.0483  0.5741
 8780SOL    HW131187   3.518   5.408   2.070  1.2689  0.5240  1.1706
 8780SOL    HW231188   3.441   5.532   2.110 -2.3466 -0.7375 -1.3344
 8781SOL     OW31189   2.576   5.634   7.924 -1.0374 -0.2800  0.2270
 8781SOL    HW131190   2.506   5.599   7.869 -0.9658  1.4363 -1.0593
 8781SOL    HW231191   2.654   5.585   7.899 -0.4732  1.9931 -3.1031
 8782SOL     OW31192   2.226   4.732   9.209  0.5458 -0.0828  0.8203
 8782SOL    HW131193   2.181   4.792   9.269  1.4341 -0.3527  1.7940
 8782SOL    HW231194   2.160   4.668   9.185 -0.0042  0.4156  0.9750
 8783SOL     OW31195   1.594   2.785   6.914 -0.2570  0.1391 -0.4923
 8783SOL    HW131196   1.550   2.711   6.873  0.3078 -2.0463  2.5330
 8783SOL    HW231197   1.544   2.802   6.993  0.7241  1.8049 -0.1844
 8784SOL     OW31198   4.555   5.735   8.739 -0.5297  0.1118  0.5964
 8784SOL    HW131199   4.562   5.792   8.816  0.9535 -0.7056  1.1015
 8784SOL    HW231200   4.486   5.775   8.686 -1.5122  0.7573  2.2916
 8785SOL     OW31201   3.453   4.002   8.540 -0.2352 -0.1089  0.6519
 8785SOL    HW131202   3.511   3.974   8.611 -2.2637 -0.3201  2.3071
 8785SOL    HW231203   3.459   4.098   8.541  0.1688 -0.1328  0.7334
 8786SOL     OW31204   4.949   6.217   9.347  0.0284  0.6248  0.0570
 8786SOL    HW131205   4.873   6.166   9.318 -0.6585 -0.1269  2.8805
 8786SOL    HW231206   4.981   6.171   9.425  1.8283  2.3550  0.4153
 8787SOL     OW31207   3.161   6.100   7.085  0.5038  0.4708 -0.5810
 8787SOL    HW131208   3.224   6.161   7.046  2.0450 -0.7441 -0.0964
 8787SOL    HW231209   3.122   6.149   7.157  1.7892  0.8811 -0.1292
 8788SOL     OW31210   2.516   3.577   8.375 -0.2231 -0.1376  0.3802
 8788SOL    HW131211   2.459   3.588   8.451 -1.3411  0.4341 -0.5087
 8788SOL    HW231212   2.536   3.483   8.374 -0.1776 -0.1521  1.3690
 8789SOL     OW31213   2.992   8.407   9.234  0.0429  0.2552  0.0673
 8789SOL    HW131214   2.960   8.493   9.207  1.4238  0.9247  0.4590
 8789SOL    HW231215   3.087   8.412   9.221  0.1648 -1.1341  0.3164
 8790SOL     OW31216   1.696   5.799   7.790 -0.2913  0.0381 -0.2632
 8790SOL    HW131217   1.696   5.749   7.708  0.6289  0.5097 -0.5647
 8790SOL    HW231218   1.603   5.807   7.813 -0.5135 -0.8376 -0.7987
 8791SOL     OW31219   4.079   6.659   9.386 -0.1418  0.3310  0.4305
 8791SOL    HW131220   4.048   6.570   9.368  1.0710  0.0966 -0.6298
 8791SOL    HW231221   4.102   6.658   9.479 -0.0052 -0.4991  0.3915
 8792SOL     OW31222   1.584   4.813   7.901  0.5434 -0.0490 -0.5122
 8792SOL    HW131223   1.605   4.731   7.857  1.4579 -0.1659  0.0989
 8792SOL    HW231224   1.509   4.791   7.956  0.6278 -0.4186 -0.5373
 8793SOL     OW31225   3.679   3.102   9.377 -0.1666  0.3243  0.7256
 8793SOL    HW131226   3.584   3.098   9.388 -0.4453 -1.2351 -1.5654
 8793SOL    HW231227   3.705   3.011   9.362  1.0837  1.0682 -2.5104
 8794SOL     OW31228   1.352   3.853   0.945 -0.3879  0.1693 -0.0517
 8794SOL    HW131229   1.258   3.874   0.945 -0.2435  0.9096 -1.1449
 8794SOL    HW231230   1.370   3.825   0.856  0.5116  0.4209  0.0415
 8795SOL     OW31231   2.967   5.395   7.571  0.2646  0.6682 -0.4245
 8795SOL    HW131232   3.062   5.393   7.553 -0.2247 -0.7534 -3.5044
 8795SOL    HW231233   2.949   5.311   7.612  0.1993  0.5370 -0.7217
 8796SOL     OW31234   2.866   3.219   8.761 -0.1421 -0.0072  0.1855
 8796SOL    HW131235   2.928   3.258   8.824  1.4376 -0.1316 -1.2309
 8796SOL    HW231236   2.921   3.180   8.694 -1.7771  0.1491 -1.3188
 8797SOL     OW31237   1.784   5.342   6.801 -0.3369  0.0366  0.2298
 8797SOL    HW131238   1.856   5.280   6.813 -1.0617 -0.8269  0.1617
 8797SOL    HW231239   1.708   5.300   6.841 -0.8490  0.8665  0.1513
 8798SOL     OW31240   1.433   3.751   9.232 -0.4304 -0.0910  0.0439
 8798SOL    HW131241   1.479   3.751   9.315 -1.3753  0.0017  0.5812
 8798SOL    HW231242   1.472   3.679   9.182 -0.0953 -0.3617  0.6907
 8799SOL     OW31243   6.943   2.873   8.454  0.4604  0.2568 -0.1378
 8799SOL    HW131244   7.038   2.861   8.446  0.2161 -2.2562 -0.1286
 8799SOL    HW231245   6.906   2.791   8.420 -1.5714 -0.1498  2.7507
 8800SOL     OW31246   4.543   3.450   9.743 -0.4411  0.8457 -0.3624
 8800SOL    HW131247   4.581   3.367   9.772  1.3723  1.6889 -0.1735
 8800SOL    HW231248   4.603   3.517   9.776 -3.0390  2.4613  1.5302
 8801SOL     OW31249   3.467   3.031   5.668 -0.0203 -1.1986 -0.2294
 8801SOL    HW131250   3.417   3.042   5.749 -0.3752 -1.2207 -0.4447
 8801SOL    HW231251   3.463   2.937   5.651 -0.7459 -1.0771 -0.7749
 8802SOL     OW31252   3.862   5.996   7.189  0.3073 -0.8247 -0.5433
 8802SOL    HW131253   3.842   6.017   7.280  2.2275  0.9354 -0.4590
 8802SOL    HW231254   3.945   5.950   7.193 -0.4024 -2.2534 -1.3356
 8803SOL     OW31255   2.787   5.192   6.509  0.1392  0.1581  0.2031
 8803SOL    HW131256   2.807   5.159   6.421 -2.2760 -0.7924 -0.0597
 8803SOL    HW231257   2.703   5.237   6.499 -0.4387 -0.4118  2.0969
 8804SOL     OW31258   1.299   3.664   0.297 -0.1049  0.4618 -0.3110
 8804SOL    HW131259   1.237   3.680   0.227 -1.2401 -1.0094  0.3142
 8804SOL    HW231260   1.273   3.580   0.334  0.3322  1.2627  1.9902
 8805SOL     OW31261   2.723   2.852   7.356  0.9062  0.3943  0.1949
 8805SOL    HW131262   2.668   2.782   7.392  1.9593 -0.1818  0.7184
 8805SOL    HW231263   2.770   2.811   7.283 -0.3616  1.2555 -1.1782
 8806SOL     OW31264   1.300   5.269   3.022  0.0348  0.4584 -0.1589
 8806SOL    HW131265   1.205   5.265   3.031  0.0929 -1.9986  0.2240
 8806SOL    HW231266   1.333   5.262   3.112  0.5961  1.3748 -0.2812
 8807SOL     OW31267   2.713   4.079   5.289  0.2128 -0.4918 -0.8919
 8807SOL    HW131268   2.646   4.017   5.318  0.1621  0.1068  0.3152
 8807SOL    HW231269   2.743   4.121   5.369  0.9222  0.3666 -1.5930
 8808SOL     OW31270   2.247   3.528   0.145  0.1850 -0.2723 -0.1356
 8808SOL    HW131271   2.254   3.581   0.225  0.6739 -0.5350  0.0022
 8808SOL    HW231272   2.214   3.444   0.176  2.6585 -1.2088  0.1873
 8809SOL     OW31273   0.704   5.566   7.273  0.2643  0.0012 -0.0905
 8809SOL    HW131274   0.796   5.562   7.301 -0.5227 -2.8439  2.5977
 8809SOL    HW231275   0.686   5.480   7.237 -1.7261 -0.0025  0.8146
 8810SOL     OW31276   3.160   4.367   7.223  0.0518  0.0521 -0.2675
 8810SOL    HW131277   3.210   4.285   7.219  1.5083  0.8183  1.1713
 8810SOL    HW231278   3.086   4.352   7.164  0.4953 -2.1446 -0.3764
 8811SOL     OW31279   1.545   2.843   0.381  0.4052  0.4612 -0.1701
 8811SOL    HW131280   1.495   2.907   0.330 -0.3943  2.1375  2.5001
 8811SOL    HW231281   1.521   2.758   0.343 -4.2380  1.1603  0.6239
 8812SOL     OW31282   3.053   4.365   8.181  0.7921  0.1193 -0.1717
 8812SOL    HW131283   3.051   4.458   8.158  0.1011  0.0620 -0.3597
 8812SOL    HW231284   3.007   4.321   8.109  0.9153 -0.3463  0.0286
 8813SOL     OW31285   0.292   4.027   7.936  0.3859 -0.5175  0.4581
 8813SOL    HW131286   0.302   3.934   7.916  2.0840 -0.6053  1.5070
 8813SOL    HW231287   0.201   4.036   7.962 -0.0397 -1.7006 -0.5206
 8814SOL     OW31288   2.179   4.073   8.702  0.3595  1.0434 -0.3565
 8814SOL    HW131289   2.134   4.144   8.747 -1.0175 -0.9446  1.5889
 8814SOL    HW231290   2.139   4.072   8.615 -3.0716 -0.1803  1.0530
 8815SOL     OW31291   1.566   3.775   7.941 -0.1867 -0.0244 -0.0173
 8815SOL    HW131292   1.578   3.798   7.849  1.3970 -1.9137 -0.3450
 8815SOL    HW231293   1.654   3.761   7.974 -0.4845  2.9583  2.5394
 8816SOL     OW31294   2.160   6.550   7.823  0.4352 -0.3164 -0.5378
 8816SOL    HW131295   2.088   6.554   7.760 -1.6750 -0.6354  1.6950
 8816SOL    HW231296   2.203   6.467   7.806 -0.6052 -0.7669 -1.0613
 8817SOL     OW31297   1.323   5.237   7.983 -0.5269  0.1044 -0.4387
 8817SOL    HW131298   1.283   5.278   7.906 -0.7606  2.2015  0.7376
 8817SOL    HW231299   1.250   5.190   8.025 -0.9032  0.7816 -0.3238
 8818SOL     OW31300   0.287   3.178   7.944 -0.0945  0.4342 -0.7136
 8818SOL    HW131301   0.357   3.119   7.975  0.4217  1.4003  0.0109
 8818SOL    HW231302   0.236   3.124   7.883  1.4073 -0.2323 -1.4423
 8819SOL     OW31303   2.443   3.890   9.796  0.5355  0.1458  0.7736
 8819SOL    HW131304   2.435   3.815   9.855 -1.3304  0.7331  1.3502
 8819SOL    HW231305   2.461   3.964   9.854 -0.2288  0.5523  0.5018
 8820SOL     OW31306   0.403   6.019   8.646  0.5433 -0.5079 -0.1993
 8820SOL    HW131307   0.314   6.053   8.659 -0.0987 -1.6539 -1.3794
 8820SOL    HW231308   0.442   6.023   8.733 -0.9329 -0.6971  0.5199
 8821SOL     OW31309   2.989   3.089   8.438  0.5040 -0.3295 -0.3168
 8821SOL    HW131310   2.960   3.025   8.504  0.2913 -0.6897 -0.7588
 8821SOL    HW231311   3.071   3.052   8.404  1.5194  0.6751  0.9182
 8822SOL     OW31312   3.827   4.561   8.602 -0.3399 -0.6101  0.6046
 8822SOL    HW131313   3.811   4.588   8.693 -2.0535 -1.5442  0.6158
 8822SOL    HW231314   3.869   4.475   8.610 -1.9224 -1.4275  0.5488
 8823SOL     OW31315   2.480   3.380   8.795 -0.9276 -0.2258 -0.1436
 8823SOL    HW131316   2.468   3.328   8.874 -0.2601  0.7396  0.6342
 8823SOL    HW231317   2.526   3.322   8.734 -0.9417 -0.7997  0.3839
 8824SOL     OW31318   3.567   5.365   7.023  0.4549  0.0464 -0.1726
 8824SOL    HW131319   3.589   5.450   6.985  1.7699 -0.2105 -0.0402
 8824SOL    HW231320   3.490   5.382   7.077 -0.4605  0.7576 -1.6301
 8825SOL     OW31321   2.890   5.583   7.195 -0.0056  0.1761 -0.4738
 8825SOL    HW131322   2.885   5.624   7.109  0.1625  1.3087  0.0378
 8825SOL    HW231323   2.957   5.633   7.242 -0.7957  0.2235  0.6436
 8826SOL     OW31324   4.275   5.189   7.588 -0.1774 -0.1542 -0.4124
 8826SOL    HW131325   4.213   5.250   7.550 -0.6670 -0.2302  0.2422
 8826SOL    HW231326   4.237   5.102   7.573 -0.2889 -0.1943  0.0758
 8827SOL     OW31327   2.567   3.826   7.383 -0.0803 -0.4686  0.0766
 8827SOL    HW131328   2.526   3.801   7.300 -0.3794  0.0153  0.0692
 8827SOL    HW231329   2.560   3.922   7.384  0.5865 -0.4230  0.3187
 8828SOL     OW31330   2.346   5.977   7.336  0.5095 -0.4036 -0.1391
 8828SOL    HW131331   2.307   6.063   7.318  0.9239 -0.2257 -0.2002
 8828SOL    HW231332   2.429   5.998   7.380  0.9836 -0.7550 -0.8627
 8829SOL     OW31333   4.315   5.506   7.391 -0.5662 -0.2934  0.0697
 8829SOL    HW131334   4.325   5.436   7.326  4.0429 -1.4561  1.6492
 8829SOL    HW231335   4.313   5.586   7.339  0.8119 -1.2879 -1.6416
 8830SOL     OW31336   2.362   3.539   8.610 -0.4185  0.8479  0.0414
 8830SOL    HW131337   2.378   3.509   8.700 -3.5582  0.1294  0.4639
 8830SOL    HW231338   2.344   3.632   8.618  1.1042  1.1876 -0.1504
 8831SOL     OW31339   2.704   6.135   2.102 -0.3793 -0.5948  0.1785
 8831SOL    HW131340   2.728   6.042   2.107  1.2930 -0.2051 -0.2639
 8831SOL    HW231341   2.646   6.148   2.177 -1.5791 -2.2382 -0.3932
 8832SOL     OW31342   0.083   5.395   8.535  0.3061 -0.3298 -0.2419
 8832SOL    HW131343   0.020   5.454   8.494  1.6403 -0.6419 -2.9800
 8832SOL    HW231344   0.107   5.334   8.465  3.1047 -0.6220  0.8496
 8833SOL     OW31345   5.316   5.987   6.815  0.1082  0.1086 -0.1979
 8833SOL    HW131346   5.255   5.915   6.831  1.5000 -1.2470 -0.7258
 8833SOL    HW231347   5.396   5.945   6.784  0.3405  2.0036 -2.5245
 8834SOL     OW31348   1.938   3.852   6.451  0.0116  0.1525 -0.1420
 8834SOL    HW131349   1.939   3.850   6.356 -0.5809  0.6252 -0.1674
 8834SOL    HW231350   1.902   3.939   6.473 -2.3443 -0.9070  0.4940
 8835SOL     OW31351   2.941   3.192   7.048  0.7838  0.4871 -0.5699
 8835SOL    HW131352   2.934   3.284   7.024  1.0762  0.5674 -0.3575
 8835SOL    HW231353   2.893   3.145   6.979 -0.3484  0.8752 -0.0586
 8836SOL     OW31354   2.485   5.398   8.599 -0.1493 -0.0330 -0.3750
 8836SOL    HW131355   2.472   5.308   8.572  0.9348 -0.0835 -0.7910
 8836SOL    HW231356   2.406   5.444   8.571  0.7185 -0.1491 -3.4252
 8837SOL     OW31357   5.036   5.420   9.844 -0.1121 -0.1605 -0.8362
 8837SOL    HW131358   5.114   5.383   9.803 -0.2541 -2.0139  0.4273
 8837SOL    HW231359   5.069   5.490   9.901  0.2446  1.2568 -2.7074
 8838SOL     OW31360   2.834   4.706   6.694 -0.0849 -0.5920 -0.2054
 8838SOL    HW131361   2.847   4.613   6.676  0.4539 -0.4940 -0.3391
 8838SOL    HW231362   2.899   4.726   6.762  0.7312 -0.0039 -1.1414
 8839SOL     OW31363   3.493   3.542   7.973  0.2687  0.4892  0.5316
 8839SOL    HW131364   3.496   3.509   8.062 -0.9192  1.5451  0.9885
 8839SOL    HW231365   3.466   3.467   7.920 -0.5966  0.2558  1.2848
 8840SOL     OW31366   4.284   5.397   8.009 -0.4749  0.1256 -0.0869
 8840SOL    HW131367   4.303   5.444   7.928  0.5409 -0.2909 -0.1128
 8840SOL    HW231368   4.328   5.313   7.998 -2.5234 -1.0089 -0.1824
 8841SOL     OW31369   2.121   2.225   5.979 -0.5381 -0.2931 -0.0772
 8841SOL    HW131370   2.120   2.242   5.885 -2.7380 -0.1171 -0.0766
 8841SOL    HW231371   2.035   2.187   5.997  0.2996 -1.4612  1.6787
 8842SOL     OW31372   1.710   5.078   9.696  0.0969 -0.2606 -0.2301
 8842SOL    HW131373   1.718   5.160   9.646 -0.6337 -0.1528 -0.1891
 8842SOL    HW231374   1.629   5.089   9.746  1.5620  0.2515  2.1570
 8843SOL     OW31375   4.946   1.774   5.045  0.1195  0.0163  0.4355
 8843SOL    HW131376   4.985   1.856   5.015  2.0077 -1.3930 -1.2537
 8843SOL    HW231377   5.018   1.710   5.040 -2.1778 -2.6650 -2.4779
 8844SOL     OW31378   0.204   4.245   1.714  0.2634 -0.4030 -0.4645
 8844SOL    HW131379   0.172   4.238   1.803  0.2087  1.3021 -0.3039
 8844SOL    HW231380   0.125   4.244   1.659  0.1606  0.1934 -0.3426
 8845SOL     OW31381   2.375   4.895   8.428 -0.1007 -0.1350 -0.1756
 8845SOL    HW131382   2.346   4.986   8.415 -0.1613 -0.1079  0.1340
 8845SOL    HW231383   2.293   4.845   8.434 -0.1062 -0.0126  1.0278
 8846SOL     OW31384   4.038   5.312   8.716 -0.4100  0.4133  0.5415
 8846SOL    HW131385   4.024   5.219   8.734 -0.6891  0.4371  0.4579
 8846SOL    HW231386   4.095   5.342   8.786 -2.2652  0.7431  1.9836
 8847SOL     OW31387   0.781   3.944   0.202  0.3970 -0.0561  0.2326
 8847SOL    HW131388   0.780   3.941   0.107  2.8328  1.1434  0.0885
 8847SOL    HW231389   0.867   3.909   0.226  0.3252  0.8138  1.9130
 8848SOL     OW31390   2.856   5.333   8.260  0.3096 -0.6200  0.3510
 8848SOL    HW131391   2.816   5.397   8.202  0.9158  0.2181  0.8360
 8848SOL    HW231392   2.783   5.300   8.313 -0.1785 -1.1040 -0.5903
 8849SOL     OW31393   3.851   6.107   7.451 -0.6574 -0.3267 -0.0733
 8849SOL    HW131394   3.778   6.126   7.510 -0.3250 -0.0738  0.2596
 8849SOL    HW231395   3.867   6.013   7.463  0.0058 -0.1056  0.9413
 8850SOL     OW31396   4.693   5.825   2.113  0.1173 -0.4326  0.2956
 8850SOL    HW131397   4.695   5.848   2.021  3.9088  1.0633  0.5841
 8850SOL    HW231398   4.718   5.732   2.115 -1.0884 -0.7827 -0.1915
 8851SOL     OW31399   2.215   3.997   7.631 -0.1526  0.2235 -0.1773
 8851SOL    HW131400   2.225   3.924   7.693  0.9479 -1.2480 -1.9796
 8851SOL    HW231401   2.138   3.973   7.579 -1.7178  1.9657  1.1903
 8852SOL     OW31402   0.760   3.910   2.411 -0.2968 -0.2459 -0.0173
 8852SOL    HW131403   0.782   3.834   2.464 -0.8287 -0.1431  0.3564
 8852SOL    HW231404   0.682   3.947   2.453 -0.5067  0.0466 -0.6514
 8853SOL     OW31405   2.937   9.341   2.348 -0.1243  0.3054 -0.7389
 8853SOL    HW131406   2.990   9.262   2.337  0.8475  0.9155 -0.5296
 8853SOL    HW231407   2.954   9.392   2.269 -0.3725  0.5347 -0.6444
 8854SOL     OW31408   2.224   4.179   0.059  0.1528 -0.3107  0.2314
 8854SOL    HW131409   2.279   4.255   0.076  0.2693  0.5491 -3.1846
 8854SOL    HW231410   2.138   4.203   0.095 -0.0732  1.9566 -1.5906
 8855SOL     OW31411   3.414   6.106   0.427  0.2670 -0.0187  0.4190
 8855SOL    HW131412   3.320   6.117   0.416 -0.1268 -3.3536 -0.5252
 8855SOL    HW231413   3.452   6.146   0.348 -0.4159  0.4686  0.3272
 8856SOL     OW31414   2.834   3.325   9.205 -0.1426 -0.7714 -0.2809
 8856SOL    HW131415   2.888   3.253   9.237  0.8608  0.0034 -0.1689
 8856SOL    HW231416   2.891   3.371   9.142 -0.9364 -0.3646 -0.7149
 8857SOL     OW31417   1.624   4.160   7.742  0.6009  0.4515 -0.1103
 8857SOL    HW131418   1.532   4.143   7.722  0.6751 -0.9139  0.5755
 8857SOL    HW231419   1.625   4.186   7.834  1.0304 -1.1400  0.3661
 8858SOL     OW31420   3.651   1.157   0.958  0.1216  0.5668  0.2525
 8858SOL    HW131421   3.686   1.246   0.965  1.0559  0.3327 -1.0500
 8858SOL    HW231422   3.706   1.105   1.016 -0.4368  0.8300  1.0284
 8859SOL     OW31423   3.482   3.845   8.901 -0.2316 -0.5311 -0.6159
 8859SOL    HW131424   3.508   3.913   8.964  1.3619 -1.8751  0.2539
 8859SOL    HW231425   3.552   3.845   8.836 -0.8909 -0.4703 -1.3351
 8860SOL     OW31426   4.133   6.081   7.575  0.2811  0.0384  0.2625
 8860SOL    HW131427   4.083   6.129   7.509  1.2551 -0.1829 -0.6714
 8860SOL    HW231428   4.168   6.005   7.529 -0.4245 -1.0740  1.4797
 8861SOL     OW31429   2.881   4.339   9.193 -0.2531 -0.1940  0.2766
 8861SOL    HW131430   2.831   4.404   9.143  0.4077  0.9125  1.0123
 8861SOL    HW231431   2.959   4.386   9.222  0.8979 -1.6802 -0.2606
 8862SOL     OW31432   2.298   6.098   0.481  0.0958  0.2320  0.3204
 8862SOL    HW131433   2.359   6.162   0.518 -0.1322  0.3061  0.5712
 8862SOL    HW231434   2.302   6.023   0.540  0.0775  0.1658  0.2382
 8863SOL     OW31435   3.241   1.889   7.960 -0.2076 -0.3421 -0.9336
 8863SOL    HW131436   3.238   1.885   7.865 -0.5464 -0.3994 -0.9196
 8863SOL    HW231437   3.199   1.972   7.983  0.4771 -0.0082 -0.8641
 8864SOL     OW31438   6.393   8.186   0.018 -0.2909  0.3361 -0.2666
 8864SOL    HW131439   6.468   8.170   0.076  0.0259  0.4887 -0.6290
 8864SOL    HW231440   6.363   8.098  -0.007  0.0142  0.2794 -0.4359
 8865SOL     OW31441   2.809   5.821   0.454 -0.0833  0.2769  0.7613
 8865SOL    HW131442   2.858   5.826   0.372  1.7669  1.6078  1.8785
 8865SOL    HW231443   2.839   5.896   0.505  0.5331 -1.6815  3.5309
 8866SOL     OW31444   5.363   5.482   9.762 -0.1149  0.5107  0.4128
 8866SOL    HW131445   5.394   5.393   9.742 -2.0502 -0.5329  1.7117
 8866SOL    HW231446   5.406   5.538   9.697 -0.2420 -1.6082 -1.6245
 8867SOL     OW31447   2.050   6.309   7.637  0.3283 -0.4419  0.3843
 8867SOL    HW131448   2.139   6.321   7.670  0.5501  3.3657 -1.0901
 8867SOL    HW231449   2.062   6.289   7.544 -0.3789 -1.5746  0.5252
 8868SOL     OW31450   3.989   5.515   8.511  1.1193  0.3794  0.4341
 8868SOL    HW131451   3.899   5.533   8.536  0.6235 -0.4665 -0.6847
 8868SOL    HW231452   4.020   5.451   8.576  0.5658 -0.1270  0.2055
 8869SOL     OW31453   3.886   4.651   1.772 -0.1528  0.7499  0.4740
 8869SOL    HW131454   3.871   4.691   1.686  2.2480  1.9136  0.4897
 8869SOL    HW231455   3.819   4.690   1.829 -0.6876  1.2957 -0.5039
 8870SOL     OW31456   2.317   5.023   0.650 -0.1771 -0.3425 -0.1383
 8870SOL    HW131457   2.409   5.024   0.624 -0.0885  1.4163  0.1616
 8870SOL    HW231458   2.316   4.977   0.734  0.6731  0.9495  0.6102
 8871SOL     OW31459   3.004   5.775   7.787  0.1695  0.7613 -0.0400
 8871SOL    HW131460   3.007   5.696   7.842  0.9839  0.6838 -0.1884
 8871SOL    HW231461   2.954   5.838   7.839  0.6157  0.5682  0.6424
 8872SOL     OW31462   4.016   3.593   7.395  0.0353  0.5493 -0.2871
 8872SOL    HW131463   4.053   3.668   7.349  0.3201  0.8206  0.3737
 8872SOL    HW231464   4.010   3.525   7.328  0.9202  0.7774 -0.6077
 8873SOL     OW31465   1.913   3.845   8.678  0.1859  0.0966 -0.0862
 8873SOL    HW131466   1.969   3.886   8.612  0.3534  2.0361  1.2179
 8873SOL    HW231467   1.867   3.776   8.629  0.5625  1.2225 -2.1490
 8874SOL     OW31468   1.686   4.659   8.204 -0.2197  0.2603 -0.2134
 8874SOL    HW131469   1.600   4.625   8.230  0.3332 -0.1129  1.1746
 8874SOL    HW231470   1.713   4.602   8.132 -0.8233 -0.0587 -0.1951
 8875SOL     OW31471   2.085   2.828   9.459 -0.4289  0.3973 -0.3144
 8875SOL    HW131472   2.053   2.753   9.409  3.4615 -0.9879 -0.9972
 8875SOL    HW231473   2.067   2.904   9.403  0.0265 -0.6207 -1.8803
 8876SOL     OW31474   2.988   1.941   0.685  0.1332 -0.3487  0.4770
 8876SOL    HW131475   3.049   1.876   0.649  0.7274 -0.5306  1.7621
 8876SOL    HW231476   2.954   1.987   0.608  0.2286 -1.7053 -0.4118
 8877SOL     OW31477   3.773   3.659   7.138 -0.0896  0.5237  0.1137
 8877SOL    HW131478   3.737   3.607   7.066 -0.5297 -1.0541  1.3956
 8877SOL    HW231479   3.699   3.670   7.199  1.0967 -1.5384  2.1136
 8878SOL     OW31480   2.250   6.269   8.801  0.2130  0.0164  0.0816
 8878SOL    HW131481   2.183   6.276   8.732 -0.3934 -2.0372  0.3825
 8878SOL    HW231482   2.325   6.228   8.758  0.4744  0.2981  0.2624
 8879SOL     OW31483   2.564   3.626   8.960  0.4040  0.2565  0.0809
 8879SOL    HW131484   2.519   3.563   8.904 -0.9406  0.7613  0.5479
 8879SOL    HW231485   2.655   3.621   8.933  0.3407 -1.8479  0.0682
 8880SOL     OW31486   1.529   7.491   1.079 -0.6942 -0.3220  0.0835
 8880SOL    HW131487   1.611   7.540   1.069 -1.0177  0.1673 -0.1964
 8880SOL    HW231488   1.501   7.509   1.168 -0.2081 -0.9493  0.3731
 8881SOL     OW31489   3.815   2.537   0.422 -0.1626 -0.0108  0.1535
 8881SOL    HW131490   3.906   2.517   0.400  0.3809  1.9295  0.3675
 8881SOL    HW231491   3.783   2.588   0.348 -0.4668  0.8370  0.8367
 8882SOL     OW31492   3.097   3.280   2.683 -0.2570  0.1096 -0.0485
 8882SOL    HW131493   3.054   3.320   2.607  0.1660 -0.6821 -0.7184
 8882SOL    HW231494   3.035   3.213   2.712  0.9055 -1.7973 -1.6893
 8883SOL     OW31495   5.245   5.119   1.332  0.3612 -0.5693  0.6555
 8883SOL    HW131496   5.269   5.061   1.405  0.5006 -0.8146  0.4145
 8883SOL    HW231497   5.321   5.175   1.321  0.2785 -0.4285  0.8014
 8884SOL     OW31498   1.464   4.021   9.307 -0.3883 -0.1415  0.3080
 8884SOL    HW131499   1.445   3.938   9.264  1.7957 -0.1084 -0.8439
 8884SOL    HW231500   1.535   4.059   9.257 -1.3044  2.4671  0.7956
 8885SOL     OW31501   4.092   5.993   3.051  0.0953  0.0596  0.0499
 8885SOL    HW131502   3.997   5.993   3.060  0.1520  1.2935  1.0790
 8885SOL    HW231503   4.124   5.956   3.134  0.5116 -1.0024 -0.5717
 8886SOL     OW31504   3.575   3.935   1.394 -0.3051  0.2746 -0.4694
 8886SOL    HW131505   3.547   3.963   1.307 -0.9515  1.0161 -0.0436
 8886SOL    HW231506   3.658   3.890   1.380 -0.9859 -0.6689 -1.6054
 8887SOL     OW31507   1.403   3.195   0.663  0.2454 -0.6805 -0.0534
 8887SOL    HW131508   1.402   3.209   0.568 -1.5758 -0.2600 -0.0022
 8887SOL    HW231509   1.484   3.237   0.692 -0.8934  2.4428 -0.9987
 8888SOL     OW31510   4.480   5.201   0.213  0.0332  0.3988  0.4159
 8888SOL    HW131511   4.539   5.206   0.289  0.5547  0.3974  0.0166
 8888SOL    HW231512   4.532   5.157   0.146 -0.0574  1.3568 -0.2922
 8889SOL     OW31513   3.502   5.290   9.343  0.2441 -0.0094  0.1241
 8889SOL    HW131514   3.583   5.263   9.385  0.3217 -1.3145 -0.8095
 8889SOL    HW231515   3.526   5.365   9.289  0.3142  1.1264  1.6924
 8890SOL     OW31516   2.175   3.937   8.949  0.0189 -0.9453 -0.1828
 8890SOL    HW131517   2.176   3.935   8.854 -1.0458  0.3838 -0.2619
 8890SOL    HW231518   2.112   4.007   8.971  1.4634 -0.0673  1.4692
 8891SOL     OW31519   2.051   4.528   0.921  0.3520  0.0254 -0.0215
 8891SOL    HW131520   1.989   4.456   0.931 -1.8893  1.7352 -0.6864
 8891SOL    HW231521   2.015   4.581   0.850  1.7268  1.9708  0.6358
 8892SOL     OW31522   7.358   3.665   9.795 -0.2665 -0.7227  0.2925
 8892SOL    HW131523   7.342   3.740   9.853  0.9453 -1.3122  1.4601
 8892SOL    HW231524   7.281   3.661   9.739 -1.0277  0.5077  1.1924
 8893SOL     OW31525   3.128   3.036   8.786 -0.2055 -0.1671 -0.2517
 8893SOL    HW131526   3.072   2.990   8.724 -0.1902 -0.9222  0.2878
 8893SOL    HW231527   3.090   3.017   8.872 -0.0630  0.6389 -0.0005
 8894SOL     OW31528   2.736   4.205   8.763 -0.2817  0.3384  0.3968
 8894SOL    HW131529   2.780   4.125   8.792  0.2986  0.9718  1.3320
 8894SOL    HW231530   2.650   4.201   8.803 -0.2789  0.1481  0.3839
 8895SOL     OW31531   2.299   3.989   9.338  0.2278 -0.2851 -0.0592
 8895SOL    HW131532   2.362   3.924   9.307  0.1672 -0.8014  0.8676
 8895SOL    HW231533   2.342   4.073   9.323  1.2800 -0.6404  0.8042
 8896SOL     OW31534   0.880   4.646   9.111  0.3331  0.2097 -0.4678
 8896SOL    HW131535   0.843   4.558   9.117  0.4488  0.1076 -1.2209
 8896SOL    HW231536   0.939   4.643   9.036 -0.3632  1.1808 -1.0854
 8897SOL     OW31537   1.855   2.354   8.751  0.2067 -0.8844  0.0955
 8897SOL    HW131538   1.777   2.366   8.698  1.4400  0.6849 -1.5210
 8897SOL    HW231539   1.885   2.265   8.731 -0.8399 -1.2968  0.3192
 8898SOL     OW31540   1.976   6.941   9.622  0.8488  0.1187 -0.0419
 8898SOL    HW131541   2.006   7.030   9.606  0.3051  0.0163 -1.8010
 8898SOL    HW231542   2.041   6.903   9.681  1.1986  1.5884  0.5589
 8899SOL     OW31543   3.099   6.403   1.910  0.2348 -0.5510  0.1083
 8899SOL    HW131544   3.062   6.446   1.833  1.0237  1.6376  0.8658
 8899SOL    HW231545   3.024   6.362   1.954 -0.2348 -1.7530 -1.7299
 8900SOL     OW31546   6.240   6.094   8.800  0.3089  0.2118  0.5956
 8900SOL    HW131547   6.232   6.167   8.861  0.3915  0.3118  0.4870
 8900SOL    HW231548   6.277   6.023   8.852  0.9918  0.4953  0.5101
 8901SOL     OW31549   1.348   4.767   9.100 -0.3845 -0.0870  0.2959
 8901SOL    HW131550   1.401   4.844   9.121 -0.4536  1.2899 -3.6599
 8901SOL    HW231551   1.258   4.794   9.117 -0.4014  0.7333 -0.9777
 8902SOL     OW31552   2.569   2.831   9.566 -0.8996  0.4784 -0.1788
 8902SOL    HW131553   2.555   2.910   9.618  0.2199  0.4386  0.2082
 8902SOL    HW231554   2.590   2.863   9.479 -0.7357  0.5983 -0.0954
 8903SOL     OW31555   0.704   6.049   0.776  0.9785  0.0903 -0.2973
 8903SOL    HW131556   0.704   6.125   0.833  1.4017 -1.5146  1.9948
 8903SOL    HW231557   0.796   6.036   0.752  0.9061  0.3086 -0.6926
 8904SOL     OW31558   9.509   2.310   9.454  0.1135 -0.2035 -0.3897
 8904SOL    HW131559   9.414   2.295   9.447  0.1886 -1.1145  0.3148
 8904SOL    HW231560   9.546   2.222   9.458  0.8478  0.1476  1.0137
 8905SOL     OW31561   1.669   1.338   9.229  0.3943  0.0349  0.0700
 8905SOL    HW131562   1.643   1.320   9.139 -1.2088 -2.0036  0.8764
 8905SOL    HW231563   1.608   1.405   9.259 -0.2257 -0.5661  0.1703
 8906SOL     OW31564   4.076   3.421   1.756 -0.1589 -0.1907  0.3578
 8906SOL    HW131565   4.047   3.511   1.766  0.2209  0.0965 -1.0173
 8906SOL    HW231566   4.153   3.414   1.814  0.1136  0.5093  0.0871
 8907SOL     OW31567   3.356   4.614   9.781 -0.2264 -0.3198  0.3313
 8907SOL    HW131568   3.394   4.569   9.857  0.4767  0.0291  0.1984
 8907SOL    HW231569   3.432   4.636   9.726 -0.6157  0.4338  0.0761
 8908SOL     OW31570   1.855   4.486   0.028 -0.0910 -0.4489 -0.3391
 8908SOL    HW131571   1.803   4.529   0.096 -0.3836 -3.7740  1.8129
 8908SOL    HW231572   1.946   4.506   0.051 -0.2314 -0.5314  0.3140
 8909SOL     OW31573   4.687   8.415   5.762 -0.1259  0.2015 -0.0280
 8909SOL    HW131574   4.727   8.371   5.838 -0.5812 -1.7553 -0.8574
 8909SOL    HW231575   4.648   8.344   5.711 -1.6501  1.6869 -1.0412
 8910SOL     OW31576   1.515   7.177   0.304 -0.1334 -0.3298 -0.5844
 8910SOL    HW131577   1.573   7.253   0.299  0.3071 -0.6319 -0.1900
 8910SOL    HW231578   1.434   7.206   0.263 -0.5412  0.9032  0.9593
 8911SOL     OW31579   1.053   4.734   1.327 -0.3936 -0.0725 -0.4928
 8911SOL    HW131580   1.014   4.765   1.408  1.1839  0.3780  0.1279
 8911SOL    HW231581   1.050   4.639   1.333  0.3188 -0.0431  0.3992
 8912SOL     OW31582   2.975   6.635   6.573  0.5488  0.2456 -0.2189
 8912SOL    HW131583   3.063   6.671   6.560  0.5208  0.1324 -0.7405
 8912SOL    HW231584   2.919   6.712   6.580  0.4518  0.3249 -1.5970
 8913SOL     OW31585   5.922   2.608   8.767 -0.4716  0.9142 -0.2551
 8913SOL    HW131586   5.900   2.642   8.854 -0.8330  1.4345 -0.5445
 8913SOL    HW231587   5.837   2.596   8.725 -0.3957 -0.9078  0.0404
 8914SOL     OW31588   3.399   5.407   0.562 -0.4692 -0.1005  0.5646
 8914SOL    HW131589   3.408   5.482   0.621 -2.1848  0.2288  0.4644
 8914SOL    HW231590   3.484   5.364   0.565  0.6622  1.9578  0.4748
 8915SOL     OW31591   1.384   5.009   3.017 -0.7612  0.3310  0.8275
 8915SOL    HW131592   1.290   5.000   3.032 -1.4791 -0.2350 -2.9878
 8915SOL    HW231593   1.393   5.093   2.972  0.5685  0.3876  1.1705
 8916SOL     OW31594   1.103   5.945   9.014  0.1999 -0.4202 -0.0583
 8916SOL    HW131595   1.139   6.009   9.075 -1.9866 -0.7737  1.7476
 8916SOL    HW231596   1.083   5.995   8.935 -1.2147  1.1294  1.2138
 8917SOL     OW31597   3.896   6.931   1.329 -0.6398 -0.4476 -0.7155
 8917SOL    HW131598   3.923   7.014   1.290  0.9720 -0.4634  0.2684
 8917SOL    HW231599   3.938   6.864   1.275 -0.1374 -0.5389 -0.2180
 8918SOL     OW31600   3.258   6.175   1.001  0.1026  0.2380 -0.2927
 8918SOL    HW131601   3.264   6.241   1.070  1.8481  2.5212 -2.4387
 8918SOL    HW231602   3.218   6.221   0.927  0.0566 -1.5514 -1.4394
 8919SOL     OW31603   3.010   3.722   2.579  0.7592  0.2052 -0.1151
 8919SOL    HW131604   3.082   3.711   2.516  0.1201 -2.1395 -0.5420
 8919SOL    HW231605   2.977   3.633   2.592  0.0851  0.7899  2.6442
 8920SOL     OW31606   2.039   4.896   9.377 -0.2764  0.2012 -0.2015
 8920SOL    HW131607   1.987   4.913   9.299 -1.2436 -1.3255  0.0622
 8920SOL    HW231608   1.979   4.852   9.437  0.2010  2.1105  1.7915
 8921SOL     OW31609   6.034   5.899   3.387  0.4306 -0.1438  0.6557
 8921SOL    HW131610   6.039   5.947   3.304 -0.6373  0.9452  1.1839
 8921SOL    HW231611   6.124   5.896   3.418  0.5788  1.2568  0.4363
 8922SOL     OW31612   5.043   4.804   9.295 -0.1653 -0.2044  0.1753
 8922SOL    HW131613   5.082   4.717   9.294 -1.6401 -0.8948  0.0795
 8922SOL    HW231614   5.025   4.824   9.203  0.3241  0.2840  0.1794
 8923SOL     OW31615   1.801   7.065   3.593 -0.2517 -0.0793  0.2634
 8923SOL    HW131616   1.865   7.113   3.541 -0.4604 -1.3185 -1.2389
 8923SOL    HW231617   1.822   6.973   3.578 -1.6190 -0.4991  0.7050
 8924SOL     OW31618   0.895   6.070   2.709 -0.1266 -0.1462 -0.6186
 8924SOL    HW131619   0.908   6.112   2.794  1.0983  1.3107 -1.4616
 8924SOL    HW231620   0.850   6.137   2.656 -0.5251 -0.8852 -1.2392
 8925SOL     OW31621   2.515   4.849   9.306  0.0825  0.1420 -0.1792
 8925SOL    HW131622   2.442   4.910   9.294 -0.8688 -0.9633 -0.1332
 8925SOL    HW231623   2.487   4.791   9.376  0.5528 -0.9779 -0.8977
 8926SOL     OW31624   3.255   7.544   3.998  0.5245 -0.3741 -0.4125
 8926SOL    HW131625   3.308   7.622   4.015  0.6215 -1.0057  2.8970
 8926SOL    HW231626   3.165   7.577   3.991  0.5082  0.0626  1.3779
 8927SOL     OW31627   0.591   7.580   2.857  0.0405  0.0311 -0.3422
 8927SOL    HW131628   0.580   7.655   2.915  3.9929 -0.4312  1.3442
 8927SOL    HW231629   0.520   7.520   2.881 -1.1198  1.7698  0.7353
 8928SOL     OW31630   2.977   7.423   2.397  0.7700 -0.2381 -0.0255
 8928SOL    HW131631   3.020   7.502   2.430  0.5014 -0.4178  0.7652
 8928SOL    HW231632   3.045   7.355   2.403  0.5512 -0.4046  0.7415
 8929SOL     OW31633   0.620   7.254   7.194  0.1292 -0.3572  0.1444
 8929SOL    HW131634   0.704   7.221   7.224  0.0161 -1.3834 -0.5859
 8929SOL    HW231635   0.555   7.197   7.236 -0.2100  0.4067  0.6834
 8930SOL     OW31636   3.413   4.829   2.671 -0.0944 -0.2955  0.5860
 8930SOL    HW131637   3.415   4.739   2.639  0.2662 -0.2960  0.6127
 8930SOL    HW231638   3.357   4.875   2.608  0.5848 -0.3017 -0.0393
 8931SOL     OW31639   1.877   6.274   0.654  0.8612  0.2944  0.5214
 8931SOL    HW131640   1.859   6.297   0.563 -3.1351 -4.4859 -0.3678
 8931SOL    HW231641   1.820   6.333   0.705 -2.4421 -1.4071 -0.8750
 8932SOL     OW31642   3.599   5.536   2.950  0.3831  0.0222  0.1066
 8932SOL    HW131643   3.537   5.545   2.878  0.2100  0.0362  0.2571
 8932SOL    HW231644   3.546   5.547   3.029  0.7502  1.0517  0.2254
 8933SOL     OW31645   0.506   6.406   3.171  0.3478  0.1682 -0.7031
 8933SOL    HW131646   0.507   6.312   3.158 -0.7176 -0.0762  0.7339
 8933SOL    HW231647   0.437   6.438   3.113  0.4864  0.0172 -0.9484
 8934SOL     OW31648   2.786   6.328   9.254  0.7024  0.4143 -0.7710
 8934SOL    HW131649   2.832   6.336   9.337  0.1582 -1.8873 -0.1563
 8934SOL    HW231650   2.695   6.349   9.275  0.2757 -1.6047 -0.3610
 8935SOL     OW31651   0.806   5.315   2.324  0.2987 -0.3895 -0.4836
 8935SOL    HW131652   0.851   5.323   2.240 -0.6173  2.2792 -0.7870
 8935SOL    HW231653   0.870   5.347   2.389  0.7674 -1.8357 -0.1887
 8936SOL     OW31654   3.365   9.189   0.216  0.3116 -0.0804 -0.1580
 8936SOL    HW131655   3.394   9.184   0.307 -1.9327 -0.9679  0.5736
 8936SOL    HW231656   3.279   9.147   0.216 -0.7876  1.9286 -2.2216
 8937SOL     OW31657   5.590   6.698   5.243  0.2613  0.5614 -0.8688
 8937SOL    HW131658   5.640   6.616   5.242  1.2248  1.1297 -1.6577
 8937SOL    HW231659   5.548   6.700   5.329 -2.1193 -2.1089 -1.8311
 8938SOL     OW31660   1.969   5.906   0.325 -0.0269  0.5060 -0.4932
 8938SOL    HW131661   2.026   5.864   0.262 -0.4331  0.7220 -1.0081
 8938SOL    HW231662   1.961   5.842   0.396  1.6278  0.8500  0.0567
 8939SOL     OW31663   3.692   6.625   8.508  0.9230 -0.0619 -0.3330
 8939SOL    HW131664   3.637   6.681   8.563 -0.5595 -1.8301  0.0952
 8939SOL    HW231665   3.701   6.674   8.426  1.1428  1.5325  0.5980
 8940SOL     OW31666   1.706   5.996   9.032  0.3080 -0.5657  0.3587
 8940SOL    HW131667   1.738   6.033   9.115 -0.7101  1.9127 -0.2374
 8940SOL    HW231668   1.632   5.941   9.058  0.5931 -0.5872  1.1626
 8941SOL     OW31669   0.986   6.033   0.731 -1.1795  0.3946  0.2560
 8941SOL    HW131670   1.025   6.117   0.706 -0.5974  0.3351  0.9335
 8941SOL    HW231671   1.013   6.021   0.822 -1.1273 -0.6087  0.1122
 8942SOL     OW31672   4.840   5.339   0.910  0.6497 -0.2109  0.3375
 8942SOL    HW131673   4.883   5.391   0.842 -0.0481 -0.4587 -0.3051
 8942SOL    HW231674   4.899   5.345   0.986  0.4034  1.8905  0.4425
 8943SOL     OW31675   2.740   7.146   3.886  0.3881  0.0412  0.6799
 8943SOL    HW131676   2.798   7.217   3.857  0.8766  0.3701  2.3273
 8943SOL    HW231677   2.771   7.126   3.974  1.2413 -3.2927 -0.2461
 8944SOL     OW31678   2.856   6.627   0.817 -0.4605 -0.0038  0.3974
 8944SOL    HW131679   2.948   6.613   0.838 -0.6989  0.9137  2.2389
 8944SOL    HW231680   2.843   6.721   0.825 -1.7939 -0.2338  1.1968
 8945SOL     OW31681   3.109   7.876   2.873  0.5860 -0.2154  0.1955
 8945SOL    HW131682   3.030   7.929   2.862  0.9205 -0.0509 -1.7130
 8945SOL    HW231683   3.085   7.789   2.842  1.1899 -0.1305 -0.5246
 8946SOL     OW31684   4.219   4.989   9.409 -0.0293 -0.3586 -0.1632
 8946SOL    HW131685   4.272   5.055   9.455  1.2598 -2.1186  1.0012
 8946SOL    HW231686   4.180   4.937   9.480  0.8301 -2.2416 -1.0183
 8947SOL     OW31687   0.873   5.606   0.545 -0.1259 -0.0803 -0.1772
 8947SOL    HW131688   0.902   5.597   0.636 -0.2843  0.3992 -0.0756
 8947SOL    HW231689   0.792   5.657   0.551  1.9388  3.6669 -0.8676
 8948SOL     OW31690   0.945   7.593   8.779 -0.2273  0.3959 -0.4298
 8948SOL    HW131691   0.981   7.656   8.717  0.0333  0.6891  0.0186
 8948SOL    HW231692   0.987   7.510   8.757 -0.4584  0.4100 -0.9246
 8949SOL     OW31693   4.128   6.770   1.568 -0.0906  0.5024  0.7300
 8949SOL    HW131694   4.033   6.783   1.565 -0.3632 -0.8674  2.0867
 8949SOL    HW231695   4.154   6.807   1.652  0.3764 -0.2071  0.9022
 8950SOL     OW31696   1.570   5.958   1.012 -0.1264  0.1511  0.0590
 8950SOL    HW131697   1.557   6.019   1.085  1.5365 -0.8482  1.2607
 8950SOL    HW231698   1.495   5.973   0.955 -2.0627  0.2537  2.4656
 8951SOL     OW31699   4.022   6.491   0.874 -0.0898 -0.2639 -0.0551
 8951SOL    HW131700   3.930   6.474   0.896 -0.1793  0.8629  0.5443
 8951SOL    HW231701   4.021   6.580   0.837  0.4875 -1.0049 -1.9551
 8952SOL     OW31702   2.588   6.644   9.053  0.0529  0.1023  0.4398
 8952SOL    HW131703   2.617   6.720   9.004 -0.0700  0.4942  0.9686
 8952SOL    HW231704   2.649   6.575   9.029  0.6434  0.5794  0.5579
 8953SOL     OW31705   3.234   8.285   8.577 -0.0873  0.2991 -0.4065
 8953SOL    HW131706   3.325   8.257   8.593  0.0046  1.2407  0.8561
 8953SOL    HW231707   3.233   8.312   8.485  1.1823  1.2256 -0.1782
 8954SOL     OW31708   2.375   5.629   3.812 -0.0774 -0.7121  0.0252
 8954SOL    HW131709   2.374   5.550   3.866 -0.3409 -1.3307 -0.8508
 8954SOL    HW231710   2.282   5.651   3.800  0.0058  0.1096  0.7819
 8955SOL     OW31711   4.429   7.004   0.663 -0.1715 -0.2822 -0.2998
 8955SOL    HW131712   4.519   7.037   0.653  0.2263 -0.9055  1.0105
 8955SOL    HW231713   4.375   7.071   0.622  0.6813  1.5612  1.4407
 8956SOL     OW31714   4.521   4.868   1.207 -0.4655 -0.0760  0.0933
 8956SOL    HW131715   4.555   4.802   1.267 -1.1160 -0.8249 -0.3512
 8956SOL    HW231716   4.492   4.819   1.130 -1.8043  0.6136  0.1288
 8957SOL     OW31717   2.156   5.559   0.611  0.7312 -0.7707 -0.2165
 8957SOL    HW131718   2.209   5.485   0.639  2.0101  0.6452  1.3070
 8957SOL    HW231719   2.198   5.591   0.532 -0.3918 -2.1995 -1.4430
 8958SOL     OW31720   2.049   4.700   2.842 -0.0009  0.2091  0.2641
 8958SOL    HW131721   2.029   4.609   2.820 -1.0700  0.6470 -0.6451
 8958SOL    HW231722   2.076   4.739   2.760 -0.1332  0.8621  0.5274
 8959SOL     OW31723   1.205   5.731   0.528 -0.2409  0.0735  0.6408
 8959SOL    HW131724   1.278   5.792   0.533 -0.4037  0.3659 -0.3097
 8959SOL    HW231725   1.241   5.647   0.558  0.7028  0.0341 -0.5115
 8960SOL     OW31726   2.328   5.302   6.826  0.4148  0.4059  0.1764
 8960SOL    HW131727   2.282   5.295   6.910  0.3001  1.8896  0.2753
 8960SOL    HW231728   2.385   5.378   6.837  0.0356  0.9254 -1.2504
 8961SOL     OW31729   1.794   6.574   8.325 -0.5792  0.6575  0.0596
 8961SOL    HW131730   1.888   6.561   8.338 -0.6105  0.7751  0.4298
 8961SOL    HW231731   1.761   6.489   8.297 -0.1086  0.9946 -1.6256
 8962SOL     OW31732   2.823   8.660   3.482  0.4852 -0.3873  0.1009
 8962SOL    HW131733   2.771   8.641   3.403  1.4391 -2.4426 -0.0899
 8962SOL    HW231734   2.810   8.584   3.538  2.3742 -0.4300  0.5350
 8963SOL     OW31735   2.641   6.138   9.519  0.1026  0.4979  0.0682
 8963SOL    HW131736   2.548   6.141   9.543 -0.3926  1.2619 -1.7726
 8963SOL    HW231737   2.681   6.083   9.586 -1.8204 -0.5670  0.4172
 8964SOL     OW31738   3.674   3.734   1.883  0.0183  0.3244 -0.8510
 8964SOL    HW131739   3.600   3.706   1.936  2.1250 -0.6218  1.8070
 8964SOL    HW231740   3.738   3.663   1.891  1.4204  1.2897 -2.6545
 8965SOL     OW31741   3.529   6.812   1.704 -0.8152  0.2379  0.2472
 8965SOL    HW131742   3.491   6.750   1.766 -0.2250 -0.0320  0.3448
 8965SOL    HW231743   3.601   6.764   1.663 -0.7227  0.6655 -0.1004
 8966SOL     OW31744   1.880   6.390   3.026 -0.5886  0.0627 -0.3671
 8966SOL    HW131745   1.812   6.339   3.071 -1.4457  1.6338  0.1666
 8966SOL    HW231746   1.945   6.409   3.093  2.0474 -3.8611 -1.4124
 8967SOL     OW31747   2.810   7.192   1.095 -0.1380  0.2122  0.4488
 8967SOL    HW131748   2.856   7.173   1.014 -0.9052 -0.5276  0.1789
 8967SOL    HW231749   2.791   7.286   1.091 -0.2072  0.1725 -0.2453
 8968SOL     OW31750   1.113   8.193   2.665 -0.2591  0.3586  0.0283
 8968SOL    HW131751   1.101   8.196   2.570  1.4067 -1.2439 -0.2982
 8968SOL    HW231752   1.077   8.108   2.691 -1.0570  0.9434  0.9089
 8969SOL     OW31753   2.333   6.068   9.456  0.7433 -0.5456 -0.1633
 8969SOL    HW131754   2.364   5.977   9.455  0.0676 -0.8754  2.2145
 8969SOL    HW231755   2.240   6.061   9.431  1.0899 -0.2520 -1.6491
 8970SOL     OW31756   2.366   6.575   0.829 -0.0948  0.4916 -0.2925
 8970SOL    HW131757   2.425   6.644   0.859  0.6557 -0.6356  0.8975
 8970SOL    HW231758   2.326   6.540   0.909 -0.4760 -0.4500 -0.8746
 8971SOL     OW31759   4.650   5.817   3.274  0.2039  0.4619 -0.5571
 8971SOL    HW131760   4.591   5.746   3.251  1.2132 -1.3684  2.0542
 8971SOL    HW231761   4.734   5.775   3.291  0.5444  2.0102  2.2726
 8972SOL     OW31762   3.797   4.514   0.985 -0.0491  0.0842  0.0390
 8972SOL    HW131763   3.750   4.591   1.019 -0.2792  0.0401 -0.1779
 8972SOL    HW231764   3.882   4.516   1.031  0.4739  1.2180 -0.9243
 8973SOL     OW31765   0.810   5.537   3.136  0.1433 -0.7597  0.2401
 8973SOL    HW131766   0.734   5.485   3.163 -0.3246 -0.1189  0.1639
 8973SOL    HW231767   0.776   5.625   3.122  0.2045 -1.1267 -2.9597
 8974SOL     OW31768   2.616   5.306   9.730  0.0908 -0.0700 -0.0686
 8974SOL    HW131769   2.530   5.277   9.700 -0.1995  1.5071 -0.8670
 8974SOL    HW231770   2.678   5.253   9.680 -0.4164  0.2137 -1.0186
 8975SOL     OW31771   1.608   8.334   2.762 -0.2912  0.4478  0.4863
 8975SOL    HW131772   1.658   8.371   2.835  1.0314 -1.0391  0.3719
 8975SOL    HW231773   1.657   8.360   2.684 -1.0264  0.9860  0.1879
 8976SOL     OW31774   3.286   6.688   8.726 -0.5688  0.2462 -0.1525
 8976SOL    HW131775   3.207   6.639   8.705 -0.0638 -0.1229 -1.3192
 8976SOL    HW231776   3.288   6.759   8.661 -0.3835  0.7670  0.4089
 8977SOL     OW31777   1.529   5.201   1.122  0.5693  0.4822 -0.0502
 8977SOL    HW131778   1.543   5.253   1.201 -0.6123  0.2993  0.2911
 8977SOL    HW231779   1.476   5.127   1.152  0.3233  0.2835 -0.9645
 8978SOL     OW31780   4.063   8.264   2.762  0.1059 -0.0665  0.1940
 8978SOL    HW131781   4.096   8.250   2.673 -2.3008 -0.6474 -0.6813
 8978SOL    HW231782   4.004   8.339   2.754 -2.4473 -1.9002  0.5634
 8979SOL     OW31783   2.617   6.760   2.443  0.2935 -0.1796 -0.9173
 8979SOL    HW131784   2.627   6.855   2.455  2.1172 -0.3928 -0.4898
 8979SOL    HW231785   2.706   6.727   2.442 -0.3357 -1.9665 -0.5689
 8980SOL     OW31786   4.069   5.003   9.150  0.0009 -0.4569 -0.2788
 8980SOL    HW131787   4.064   5.010   9.245  4.1600  1.0449  0.0167
 8980SOL    HW231788   4.057   5.093   9.119 -0.3654 -0.7820 -1.1158
 8981SOL     OW31789   2.081   7.742   4.055  0.0700 -0.1188 -0.4653
 8981SOL    HW131790   2.087   7.659   4.103  0.7711  0.5317  0.6193
 8981SOL    HW231791   2.165   7.785   4.072  0.4873 -0.0044 -2.5764
 8982SOL     OW31792   4.606   6.592   7.865 -0.1303 -0.1590  0.5235
 8982SOL    HW131793   4.688   6.638   7.847  0.4045  0.1880  3.3381
 8982SOL    HW231794   4.552   6.658   7.910 -0.8869 -1.1443  1.0888
 8983SOL     OW31795   3.025   5.145   0.225  0.1300  0.8866 -0.4849
 8983SOL    HW131796   3.016   5.225   0.174  1.3248  1.0854 -0.4097
 8983SOL    HW231797   2.995   5.076   0.166  1.3063  1.1301 -1.4112
 8984SOL     OW31798   1.838   9.279   1.498  0.6647  0.3584 -0.2998
 8984SOL    HW131799   1.890   9.359   1.491  1.3715 -0.0149  0.6050
 8984SOL    HW231800   1.899   9.213   1.531 -0.0265 -0.4429 -0.5957
 8985SOL     OW31801   4.220   8.482   1.746  0.3523  0.1903  0.3535
 8985SOL    HW131802   4.222   8.534   1.666  1.9508 -0.8735 -0.3390
 8985SOL    HW231803   4.203   8.546   1.816 -0.2778  1.2393 -0.7337
 8986SOL     OW31804   1.294   8.459   9.438 -0.2134  0.2701  0.0211
 8986SOL    HW131805   1.345   8.493   9.511 -0.2112  1.1215 -0.3671
 8986SOL    HW231806   1.256   8.378   9.471 -0.1542  0.6090  0.9370
 8987SOL     OW31807   3.531   5.998   0.093  0.1925  0.1608  0.8016
 8987SOL    HW131808   3.542   6.070   0.156 -0.0944  0.6744  0.2790
 8987SOL    HW231809   3.438   5.999   0.071  0.2651 -0.0935  0.4682
 8988SOL     OW31810   9.295   4.218   1.672 -0.0673 -0.3873  0.4275
 8988SOL    HW131811   9.247   4.176   1.743 -0.3760 -0.4825  0.1636
 8988SOL    HW231812   9.230   4.231   1.603 -0.5654  2.5012  1.2731
 8989SOL     OW31813   2.975   7.633   1.134  0.0491  0.2965 -1.2157
 8989SOL    HW131814   2.980   7.647   1.228  1.2298  1.5208 -1.4236
 8989SOL    HW231815   2.893   7.675   1.107 -0.3694 -0.1964 -0.7240
 8990SOL     OW31816   3.322   6.858   9.793  0.2327 -0.3321  0.1744
 8990SOL    HW131817   3.281   6.790   9.739  0.6297 -1.8112  1.6527
 8990SOL    HW231818   3.414   6.858   9.767  0.2220 -0.3118  0.1367
 8991SOL     OW31819   6.462   6.191   2.234  0.2261  0.7241 -0.3333
 8991SOL    HW131820   6.459   6.101   2.203  0.9846  0.6035 -0.0777
 8991SOL    HW231821   6.372   6.211   2.259  0.3962 -0.7019  1.6245
 8992SOL     OW31822   4.382   6.341   9.235  0.2365  0.1464 -0.1513
 8992SOL    HW131823   4.465   6.308   9.269  1.0146  1.0977 -1.0838
 8992SOL    HW231824   4.353   6.405   9.301 -0.7037 -1.4476  1.0766
 8993SOL     OW31825   2.157   4.031   9.701  0.1876 -0.5478  0.0300
 8993SOL    HW131826   2.168   4.066   9.789 -0.8049 -0.2905  0.0603
 8993SOL    HW231827   2.062   4.025   9.689  0.3088 -0.4927 -1.0554
 8994SOL     OW31828   3.402   0.232   0.693  0.4533 -0.5743  0.1974
 8994SOL    HW131829   3.357   0.152   0.722  0.8894 -1.3213 -1.1036
 8994SOL    HW231830   3.333   0.283   0.651  0.4579 -0.9471 -0.2769
 8995SOL     OW31831   2.582   7.839   1.591 -0.1074  0.7531  0.2169
 8995SOL    HW131832   2.526   7.835   1.514  0.8638  1.1457 -0.5395
 8995SOL    HW231833   2.554   7.918   1.638 -0.0920  1.0264 -0.2330
 8996SOL     OW31834   0.077   6.491   1.491 -0.1620  0.1911  0.1939
 8996SOL    HW131835  -0.016   6.513   1.503  0.0173 -0.0379  2.4773
 8996SOL    HW231836   0.093   6.421   1.554  1.5075  0.0504 -0.3490
 8997SOL     OW31837   3.082   5.727   9.206 -0.2958  0.6389 -0.2369
 8997SOL    HW131838   3.004   5.691   9.165  0.2503  1.0770 -1.7168
 8997SOL    HW231839   3.147   5.657   9.199 -0.2858  0.6030  0.1766
 8998SOL     OW31840   2.819   5.110   1.615 -0.2608  0.1517  0.2704
 8998SOL    HW131841   2.854   5.032   1.573 -3.0873 -1.0051 -0.1689
 8998SOL    HW231842   2.809   5.087   1.707 -2.5698 -0.6907 -0.1215
 8999SOL     OW31843   2.243   4.106   0.344 -0.7115 -0.1519  0.2951
 8999SOL    HW131844   2.271   4.095   0.253  3.2351 -0.8771  1.3885
 8999SOL    HW231845   2.214   4.019   0.371 -1.6937  0.0180 -0.1772
 9000SOL     OW31846   3.359   7.095   8.560  0.7373  0.4812 -0.4665
 9000SOL    HW131847   3.366   7.102   8.656  0.7564  0.9550 -0.4998
 9000SOL    HW231848   3.322   7.179   8.533  0.3450  0.1929 -0.8393
 9001SOL     OW31849   0.515   4.403   0.967 -0.0753  0.1906 -0.5201
 9001SOL    HW131850   0.578   4.365   0.905 -1.1015  0.4210 -1.7606
 9001SOL    HW231851   0.483   4.482   0.923  0.0603  1.0378  0.8625
 9002SOL     OW31852   3.024   5.643   1.896  0.5020 -0.2007  0.1396
 9002SOL    HW131853   3.003   5.732   1.871 -1.5103 -0.7552 -0.2713
 9002SOL    HW231854   3.040   5.648   1.990  0.8887  0.6491  0.0418
 9003SOL     OW31855   4.760   7.693   2.105 -0.1232 -0.2840  0.0517
 9003SOL    HW131856   4.709   7.712   2.027 -0.1019 -0.2599  0.0439
 9003SOL    HW231857   4.851   7.703   2.078 -0.0686 -1.4380 -0.2325
 9004SOL     OW31858   5.282   7.120   8.878 -0.1547 -0.2623  0.9833
 9004SOL    HW131859   5.366   7.142   8.837 -1.3117  1.8041 -0.4657
 9004SOL    HW231860   5.295   7.032   8.913  3.0283  0.5099  2.0445
 9005SOL     OW31861   5.109   5.757   0.378 -0.0577  0.9157 -0.0019
 9005SOL    HW131862   5.137   5.823   0.315 -0.4523  0.8943 -0.2064
 9005SOL    HW231863   5.022   5.786   0.406 -0.0073  0.7698  0.3101
 9006SOL     OW31864   0.586   5.009   0.909 -0.5834 -0.4011 -0.7713
 9006SOL    HW131865   0.665   5.008   0.962 -0.9174 -2.4307 -0.2210
 9006SOL    HW231866   0.544   5.093   0.929  0.7345  0.1068 -0.0522
 9007SOL     OW31867   2.833   5.983   0.968  0.4054  0.1345  0.3573
 9007SOL    HW131868   2.842   6.058   1.027 -2.2761 -0.2004  1.3486
 9007SOL    HW231869   2.918   5.939   0.971  0.4874  0.2144  3.9347
 9008SOL     OW31870   4.307   8.158   3.028 -0.4210 -0.1886 -0.5087
 9008SOL    HW131871   4.341   8.070   3.012 -1.6765 -0.5726 -1.2364
 9008SOL    HW231872   4.363   8.194   3.096  0.3258 -1.4269 -0.4467
 9009SOL     OW31873   4.132   7.717   0.864  0.2103 -0.1022  0.1440
 9009SOL    HW131874   4.118   7.807   0.894 -0.3456 -0.4940  1.1058
 9009SOL    HW231875   4.046   7.676   0.867  0.5605 -0.8580  0.3996
 9010SOL     OW31876   2.707   5.909   8.692 -0.0108  0.0914  0.1051
 9010SOL    HW131877   2.671   5.822   8.677  0.2014  0.1559 -0.7900
 9010SOL    HW231878   2.720   5.912   8.787 -1.8329 -0.1307  0.4101
 9011SOL     OW31879   2.688   7.130   8.828  0.2322  0.3269  0.2503
 9011SOL    HW131880   2.690   7.075   8.749  1.2476  0.7800 -0.0541
 9011SOL    HW231881   2.652   7.214   8.798 -1.1358 -0.0711  0.6752
 9012SOL     OW31882   3.762   6.894   4.204  0.5713  0.1621 -0.3241
 9012SOL    HW131883   3.691   6.934   4.155 -2.3072 -1.3707  2.2551
 9012SOL    HW231884   3.790   6.820   4.150 -0.6713  0.0627 -0.8624
 9013SOL     OW31885   3.853   8.724   2.885  0.7332  0.1061 -0.5394
 9013SOL    HW131886   3.933   8.687   2.922 -0.0495 -1.5444 -0.4303
 9013SOL    HW231887   3.853   8.815   2.915  2.0446 -0.1505  0.3166
 9014SOL     OW31888   3.306   5.649   1.814  0.0416 -0.1359 -0.0166
 9014SOL    HW131889   3.227   5.597   1.798  0.5428 -1.3152  1.0905
 9014SOL    HW231890   3.292   5.730   1.765 -0.1674 -1.8346 -3.0364
 9015SOL     OW31891   3.561   5.685   3.932  0.0648  0.2499 -0.2891
 9015SOL    HW131892   3.494   5.671   3.998  1.7034  2.2636  1.9763
 9015SOL    HW231893   3.524   5.751   3.872 -0.9705 -0.7082 -0.7440
 9016SOL     OW31894   3.327   6.832   2.790  0.4491  0.4177 -0.2717
 9016SOL    HW131895   3.311   6.911   2.841  0.3173 -0.3323  0.8739
 9016SOL    HW231896   3.251   6.827   2.731 -1.0892 -0.3870  1.6479
 9017SOL     OW31897   2.624   5.006   0.255 -0.3359  0.2679 -0.1198
 9017SOL    HW131898   2.669   4.925   0.279 -0.3046  0.0212 -0.9769
 9017SOL    HW231899   2.532   4.988   0.273 -0.3217  0.0536 -0.2560
 9018SOL     OW31900   1.808   4.007   1.842 -0.3061 -0.0888 -0.9880
 9018SOL    HW131901   1.853   3.945   1.785 -1.0306 -1.1345 -0.4477
 9018SOL    HW231902   1.783   3.956   1.919 -0.9205  0.8661 -0.5318
 9019SOL     OW31903   2.646   6.154   9.829 -0.1205 -0.2262  0.0270
 9019SOL    HW131904   2.616   6.080   9.883  0.5783 -1.1595 -0.8333
 9019SOL    HW231905   2.741   6.147   9.830  0.0656  1.7324  1.3821
 9020SOL     OW31906   5.054   8.112   0.278  0.4427 -0.7680 -0.2471
 9020SOL    HW131907   4.976   8.146   0.322  1.0294 -0.4271  0.5468
 9020SOL    HW231908   5.028   8.025   0.249 -0.2287 -0.6707  0.0366
 9021SOL     OW31909   4.302   6.647   0.866 -0.0314 -0.0104 -0.1622
 9021SOL    HW131910   4.258   6.576   0.820  0.0084  1.3795 -2.5140
 9021SOL    HW231911   4.235   6.684   0.923 -0.0843 -1.7763  1.0018
 9022SOL     OW31912   1.407   4.135   0.239  0.3561  0.5801 -0.3347
 9022SOL    HW131913   1.409   4.221   0.281  0.9138  1.0232 -1.2316
 9022SOL    HW231914   1.494   4.099   0.255 -0.1101 -0.1298  0.6497
 9023SOL     OW31915   1.154   6.486   0.273  0.0350  0.3032 -0.5691
 9023SOL    HW131916   1.142   6.532   0.189  0.0771 -0.8249 -1.2092
 9023SOL    HW231917   1.087   6.524   0.330  1.0868  2.2942 -0.5613
 9024SOL     OW31918   9.361   5.319   1.222 -0.0452 -0.0633 -0.2528
 9024SOL    HW131919   9.353   5.295   1.130 -0.3268  1.7166 -0.7461
 9024SOL    HW231920   9.353   5.415   1.222 -2.3261 -0.1602  1.8452
 9025SOL     OW31921   3.515   6.206   0.881 -0.5710 -0.7257  0.6547
 9025SOL    HW131922   3.426   6.202   0.917 -0.1190 -1.8276  1.7187
 9025SOL    HW231923   3.563   6.137   0.928  1.1363  0.5780  0.9229
 9026SOL     OW31924   3.604   8.164   2.138 -0.0358 -0.5288 -0.3615
 9026SOL    HW131925   3.609   8.116   2.221 -1.6725  2.4219  1.6269
 9026SOL    HW231926   3.680   8.221   2.138 -1.7260  1.9355  0.9543
 9027SOL     OW31927   1.222   6.188   9.836  0.2870 -0.0984 -0.2605
 9027SOL    HW131928   1.198   6.216   9.924  0.1652  0.2422 -0.3994
 9027SOL    HW231929   1.315   6.211   9.827  1.3079 -3.2740  1.0178
 9028SOL     OW31930   1.850   5.534   9.710  0.6546  0.2831 -0.1432
 9028SOL    HW131931   1.818   5.473   9.776  0.3274  0.3882 -0.2019
 9028SOL    HW231932   1.773   5.556   9.658  0.8589  0.4025 -0.3973
 9029SOL     OW31933   3.732   7.929   1.918  0.4509 -0.3149  0.1723
 9029SOL    HW131934   3.787   7.952   1.843  0.8419 -0.9116  0.2722
 9029SOL    HW231935   3.785   7.953   1.994  0.0518  0.2972  0.2628
 9030SOL     OW31936   3.663   6.312   2.079 -0.0190  0.1001 -0.2893
 9030SOL    HW131937   3.576   6.320   2.117 -0.6844  0.8379 -1.8920
 9030SOL    HW231938   3.668   6.221   2.049 -1.0886  0.5741 -2.0636
 9031SOL     OW31939   0.465   5.772   1.167 -0.4464 -0.5979  0.0278
 9031SOL    HW131940   0.407   5.760   1.092 -1.0305 -1.9555  0.6569
 9031SOL    HW231941   0.414   5.739   1.241  0.4874 -0.1833  0.8688
 9032SOL     OW31942   0.792   6.558   9.307 -0.4135  0.2410 -0.2317
 9032SOL    HW131943   0.710   6.521   9.275 -0.1799  1.3900 -2.3458
 9032SOL    HW231944   0.773   6.585   9.397 -1.9448 -0.6752 -0.2442
 9033SOL     OW31945   3.973   7.603   2.055  0.2383 -0.2814 -0.5974
 9033SOL    HW131946   3.904   7.655   2.097  1.5821  1.9386 -0.9857
 9033SOL    HW231947   3.967   7.624   1.962 -0.2328 -2.1637 -1.0371
 9034SOL     OW31948   3.966   4.343   0.496  0.2139  0.5601 -0.1449
 9034SOL    HW131949   3.900   4.354   0.565  0.9510 -1.5393  0.9972
 9034SOL    HW231950   3.964   4.249   0.477  1.5227  0.7749 -1.4919
 9035SOL     OW31951   3.044   6.112   9.133  0.2718  0.0846 -0.1332
 9035SOL    HW131952   2.987   6.165   9.078 -1.3968  0.1451  1.5489
 9035SOL    HW231953   3.083   6.174   9.195  1.6498 -0.0614 -0.8337
 9036SOL     OW31954   0.468   5.895   0.774 -0.0531 -0.0952 -0.2199
 9036SOL    HW131955   0.553   5.939   0.775 -0.5414  0.9003 -1.2015
 9036SOL    HW231956   0.404   5.965   0.769 -0.9027 -0.8691 -0.5202
 9037SOL     OW31957   3.462   7.328   3.126  0.1485 -0.4077 -0.1165
 9037SOL    HW131958   3.409   7.304   3.050  0.2827  1.2164 -0.7620
 9037SOL    HW231959   3.553   7.313   3.098  0.1761 -0.2553 -0.1086
 9038SOL     OW31960   2.710   8.593   9.851  0.2930 -0.1493  0.2304
 9038SOL    HW131961   2.794   8.586   9.896  0.3063 -1.6947 -0.0017
 9038SOL    HW231962   2.732   8.628   9.764  0.6656 -0.3726  0.2347
 9039SOL     OW31963   2.046   5.722   3.208 -0.1084 -0.3711 -0.6035
 9039SOL    HW131964   2.072   5.655   3.272 -1.1979 -2.1473 -1.9080
 9039SOL    HW231965   2.043   5.803   3.258 -0.5027 -1.6054  1.4936
 9040SOL     OW31966   4.784   5.299   0.062  0.0674  0.4417  0.1095
 9040SOL    HW131967   4.870   5.331   0.035  0.2142  0.4916  0.6285
 9040SOL    HW231968   4.760   5.355   0.136 -1.0631  1.3956 -0.9451
 9041SOL     OW31969   2.762   6.374   0.453  0.7913 -0.0773 -0.1298
 9041SOL    HW131970   2.753   6.468   0.472  0.0054 -0.0382 -0.6446
 9041SOL    HW231971   2.856   6.360   0.445  1.0017  0.4075  1.2276
 9042SOL     OW31972   0.542   7.827   2.005  0.2945 -0.4552  0.4640
 9042SOL    HW131973   0.469   7.887   2.018  1.3378  0.8234  0.6415
 9042SOL    HW231974   0.520   7.751   2.060 -0.3417  0.4057  1.4373
 9043SOL     OW31975   3.807   4.501   8.891  0.1689 -0.5930  0.1724
 9043SOL    HW131976   3.721   4.477   8.856  0.3582  0.1787 -0.8910
 9043SOL    HW231977   3.854   4.418   8.897 -0.1166 -0.8487 -0.8060
 9044SOL     OW31978   2.833   6.543   1.755 -0.4882  0.0459 -0.3849
 9044SOL    HW131979   2.837   6.614   1.819  1.1450 -1.1477  0.9504
 9044SOL    HW231980   2.762   6.486   1.787 -1.1439  0.5533 -0.9072
 9045SOL     OW31981   1.406   5.718   1.730 -0.0226 -0.1667 -0.3252
 9045SOL    HW131982   1.386   5.809   1.750  0.6447 -0.5202  2.2780
 9045SOL    HW231983   1.502   5.715   1.726 -0.0301 -0.8215 -0.0805
 9046SOL     OW31984   3.016   5.696   1.184 -0.7235  0.2232  0.5227
 9046SOL    HW131985   3.030   5.761   1.115 -0.8230 -0.8267 -0.5033
 9046SOL    HW231986   2.949   5.638   1.150 -0.2569 -0.7458  1.2030
 9047SOL     OW31987   2.590   7.544   1.614  1.0220  0.4657  0.0944
 9047SOL    HW131988   2.646   7.520   1.540  2.4069  0.0241  1.2406
 9047SOL    HW231989   2.596   7.640   1.619  0.3296  0.5611 -0.8044
 9048SOL     OW31990   5.183   0.095   2.168  0.0365 -0.3945  0.2286
 9048SOL    HW131991   5.273   0.081   2.139 -0.4081 -2.4188 -0.3471
 9048SOL    HW231992   5.129   0.071   2.092 -0.9958  0.4606  0.6626
 9049SOL     OW31993   1.125   5.356   9.674 -0.4335  0.0210 -0.7939
 9049SOL    HW131994   1.029   5.358   9.672 -0.4440  2.0577 -2.4670
 9049SOL    HW231995   1.151   5.449   9.671  1.6256 -0.3739  1.4802
 9050SOL     OW31996   3.928   5.176   4.082  0.5869 -0.1574  0.1539
 9050SOL    HW131997   3.943   5.263   4.045  0.2285  0.4048  1.2862
 9050SOL    HW231998   3.834   5.162   4.073  1.0607 -2.2419 -3.8162
 9051SOL     OW31999   0.338   3.870   0.988 -0.2192  0.1240  0.5097
 9051SOL    HW132000   0.357   3.852   1.081 -0.2132 -0.1616  0.4548
 9051SOL    HW232001   0.269   3.808   0.966  0.1919 -0.2224  0.1649
 9052SOL     OW32002   9.667   6.558   1.519 -0.0085 -0.0222  0.2785
 9052SOL    HW132003   9.638   6.512   1.441  1.0068 -0.1001 -0.0736
 9052SOL    HW232004   9.608   6.633   1.527  0.2844  0.3651 -0.9614
 9053SOL     OW32005   4.529   7.306   1.100 -0.5198 -0.0413  0.0660
 9053SOL    HW132006   4.476   7.375   1.061 -1.6485 -1.4068 -0.9244
 9053SOL    HW232007   4.618   7.321   1.068 -0.4883  1.6152  0.8351
 9054SOL     OW32008   2.503   5.561   9.795 -0.4134 -0.0575 -0.0683
 9054SOL    HW132009   2.510   5.483   9.851  1.3783  1.8772  2.6485
 9054SOL    HW232010   2.591   5.571   9.757 -0.7610  0.4173 -0.7735
 9055SOL     OW32011   3.159   6.680   1.242  0.0539  0.1992  1.1354
 9055SOL    HW132012   3.178   6.733   1.165 -0.5450 -2.1600 -0.7458
 9055SOL    HW232013   3.063   6.682   1.249  0.1246  0.7722  2.1423
 9056SOL     OW32014   2.836   5.688   0.742  0.2124 -0.3255 -0.2729
 9056SOL    HW132015   2.832   5.748   0.668  1.1946  0.9125  0.6299
 9056SOL    HW232016   2.930   5.679   0.760  0.0850 -1.9988 -0.2594
 9057SOL     OW32017   2.611   7.487   2.903 -0.0071  0.0681  0.2433
 9057SOL    HW132018   2.582   7.571   2.868 -0.4359  0.1017  0.6711
 9057SOL    HW232019   2.537   7.455   2.955 -0.1882 -0.9856 -0.6118
 9058SOL     OW32020   2.512   6.899   2.952 -0.2988 -0.3411  0.0197
 9058SOL    HW132021   2.532   6.828   2.890  0.0068 -1.5364  1.4280
 9058SOL    HW232022   2.462   6.856   3.022  0.7495  0.6069  1.4044
 9059SOL     OW32023   2.515   7.602   8.350  0.2966  0.3755  0.3441
 9059SOL    HW132024   2.597   7.651   8.349 -0.2775  1.3585 -1.0456
 9059SOL    HW232025   2.451   7.661   8.311 -1.2481 -0.1156  2.0023
 9060SOL     OW32026   4.659   8.554   0.180  0.3481 -0.3066  0.2317
 9060SOL    HW132027   4.639   8.521   0.093 -1.4416 -0.3087  0.6118
 9060SOL    HW232028   4.599   8.507   0.238  1.7522 -0.5855  1.5389
 9061SOL     OW32029   4.372   6.362   8.943 -0.2963  0.6629  0.2046
 9061SOL    HW132030   4.363   6.457   8.940 -1.8013  0.5654  0.6380
 9061SOL    HW232031   4.384   6.342   9.036 -0.4019  0.4111  0.1660
 9062SOL     OW32032   2.341   6.569   0.486  0.0179  0.7892 -0.0509
 9062SOL    HW132033   2.273   6.526   0.436 -2.1721  1.7371  1.9264
 9062SOL    HW232034   2.408   6.593   0.421 -1.5246 -0.1147 -2.0700
 9063SOL     OW32035   0.748   7.064   8.690 -0.1147  0.1487  0.1631
 9063SOL    HW132036   0.717   7.134   8.748  1.8178 -0.1298  1.6354
 9063SOL    HW232037   0.836   7.093   8.662  0.5175 -1.4388  0.4084
 9064SOL     OW32038   3.780   7.001   0.954 -0.3898 -0.4192 -0.2805
 9064SOL    HW132039   3.736   6.916   0.958 -1.7486  0.2875  0.5386
 9064SOL    HW232040   3.732   7.051   0.889 -0.5615  0.2248  0.3228
 9065SOL     OW32041   4.756   6.833   9.351 -0.1471  0.0495  0.8741
 9065SOL    HW132042   4.671   6.833   9.395 -0.8709  0.7193 -0.4416
 9065SOL    HW232043   4.736   6.860   9.261  1.6042  1.4573  0.8422
 9066SOL     OW32044   2.470   5.382   0.395 -0.2127 -0.5616  0.3997
 9066SOL    HW132045   2.517   5.465   0.389  1.2897 -1.3002  1.3232
 9066SOL    HW232046   2.394   5.393   0.338 -0.1135  1.4683  0.5961
 9067SOL     OW32047   4.502   8.003   3.185  0.3871  0.1713  0.2997
 9067SOL    HW132048   4.539   8.090   3.166 -0.5370  0.1667 -1.7660
 9067SOL    HW232049   4.448   8.017   3.263 -0.1203  1.5941 -0.2601
 9068SOL     OW32050   2.576   5.892   2.375 -0.0185 -0.1051  0.1293
 9068SOL    HW132051   2.582   5.975   2.423 -1.7327  0.5854 -0.7495
 9068SOL    HW232052   2.490   5.857   2.399  1.7494 -3.1748  2.7404
 9069SOL     OW32053   3.698   4.771   1.946 -0.5677 -0.6247  0.5458
 9069SOL    HW132054   3.670   4.752   2.035  0.6232 -0.8323  0.8995
 9069SOL    HW232055   3.733   4.861   1.951 -2.0405  0.0182 -0.1073
 9070SOL     OW32056   0.218   7.370   0.625  0.0340  0.2323 -0.4797
 9070SOL    HW132057   0.287   7.421   0.583 -1.0839  0.6384 -1.8900
 9070SOL    HW232058   0.139   7.422   0.613 -0.7478 -0.8109 -0.0119
 9071SOL     OW32059   2.603   6.768   1.427  0.0555  0.0861  0.0238
 9071SOL    HW132060   2.653   6.848   1.412  0.4433 -0.1217  0.2012
 9071SOL    HW232061   2.560   6.751   1.343  1.6715 -0.6914 -0.7066
 9072SOL     OW32062   2.861   6.358   0.118  0.8278  0.1373 -0.3393
 9072SOL    HW132063   2.918   6.343   0.042  1.4251  0.9830 -0.0682
 9072SOL    HW232064   2.918   6.346   0.194 -0.0073 -1.7342  0.0321
 9073SOL     OW32065   2.636   3.811   1.192  0.4639  0.1522  1.0343
 9073SOL    HW132066   2.694   3.752   1.143 -2.2422 -2.0677  0.1885
 9073SOL    HW232067   2.628   3.888   1.137  0.9193 -0.4301  0.1252
 9074SOL     OW32068   1.469   7.990   8.633 -0.7824  0.5897  0.1475
 9074SOL    HW132069   1.437   7.919   8.688 -0.8299 -0.3052 -1.0053
 9074SOL    HW232070   1.530   7.949   8.572 -0.8135  1.5224 -0.5476
 9075SOL     OW32071   2.112   6.894   2.601  0.3744 -0.6531  0.0741
 9075SOL    HW132072   2.189   6.843   2.574  0.7849  0.3895 -0.7866
 9075SOL    HW232073   2.108   6.966   2.538 -0.7617 -0.1639  0.6850
 9076SOL     OW32074   3.096   6.638   2.360 -0.0823 -0.4265  0.5748
 9076SOL    HW132075   3.170   6.602   2.410 -0.0590 -1.3668 -0.0942
 9076SOL    HW232076   3.118   6.617   2.269 -0.9445 -0.2808  0.3332
 9077SOL     OW32077   1.922   7.798   0.588  0.9739  0.6221 -0.1284
 9077SOL    HW132078   1.925   7.891   0.611  1.9516  0.1485  1.8878
 9077SOL    HW232079   1.950   7.795   0.496 -1.3187  2.4778 -0.9963
 9078SOL     OW32080   2.190   6.553   1.358 -0.7457  0.1010 -0.5100
 9078SOL    HW132081   2.167   6.560   1.450 -0.5538 -2.5327 -0.1686
 9078SOL    HW232082   2.109   6.525   1.314 -0.5394  0.1332 -0.9196
 9079SOL     OW32083   1.143   5.863   3.265 -0.4126  0.1852  0.9041
 9079SOL    HW132084   1.060   5.861   3.313 -0.2401  0.6294  1.2318
 9079SOL    HW232085   1.119   5.843   3.175 -0.8452  0.0760  1.0412
 9080SOL     OW32086   2.226   5.930   9.160  0.6509 -0.1107  0.4223
 9080SOL    HW132087   2.246   5.839   9.137  2.5257  0.1466  0.8513
 9080SOL    HW232088   2.183   5.925   9.245 -2.0387 -0.7533 -0.8864
 9081SOL     OW32089   1.731   6.615   2.966  0.1452 -0.0574  0.4904
 9081SOL    HW132090   1.813   6.571   2.987  0.7468  0.2773 -1.0236
 9081SOL    HW232091   1.673   6.546   2.936  0.6597 -0.0202 -0.6440
 9082SOL     OW32092   2.100   5.323   1.056 -0.2034 -0.5299 -0.0042
 9082SOL    HW132093   2.007   5.348   1.063  0.1869  1.1979 -0.3682
 9082SOL    HW232094   2.099   5.241   1.007 -1.4755  0.4379 -1.7426
 9083SOL     OW32095   3.955   5.417   0.634 -0.3043 -0.1664  0.3106
 9083SOL    HW132096   3.946   5.356   0.561 -1.2155  1.1196 -0.7009
 9083SOL    HW232097   4.041   5.399   0.671  0.3536 -0.5661 -1.3524
 9084SOL     OW32098   3.814   7.298   0.434 -0.0153 -0.1361 -0.5038
 9084SOL    HW132099   3.738   7.349   0.460 -0.9534 -2.4302  1.6436
 9084SOL    HW232100   3.889   7.347   0.469 -0.9543 -0.6634  2.5294
 9085SOL     OW32101   2.705   8.797   2.814  0.3359 -0.2425 -0.0389
 9085SOL    HW132102   2.639   8.816   2.748  2.8048 -1.1493 -3.0425
 9085SOL    HW232103   2.780   8.850   2.788  1.8136 -1.5427  1.3308
 9086SOL     OW32104   1.617   7.839   1.057 -0.0876  0.4015 -0.1523
 9086SOL    HW132105   1.534   7.886   1.047 -0.2672  0.1640  0.2012
 9086SOL    HW232106   1.621   7.818   1.150 -0.0129 -0.2838 -0.3059
 9087SOL     OW32107   2.284   7.010   8.423  0.3668 -0.2817 -0.2047
 9087SOL    HW132108   2.235   7.090   8.407  0.5394 -0.4093 -1.4667
 9087SOL    HW232109   2.356   7.037   8.480 -0.9557 -0.0369  1.4201
 9088SOL     OW32110   5.002   4.884   2.848 -0.0780 -0.3444 -0.0083
 9088SOL    HW132111   4.962   4.969   2.829  0.4660 -0.4344 -1.6275
 9088SOL    HW232112   5.057   4.900   2.925 -3.3910 -0.3028  2.5881
 9089SOL     OW32113   1.784   6.231   9.758  0.3569  0.1609 -0.2200
 9089SOL    HW132114   1.876   6.222   9.784  0.4832  0.2351 -0.6247
 9089SOL    HW232115   1.788   6.268   9.670 -0.0760  0.6340 -0.0410
 9090SOL     OW32116   3.837   8.435   1.175  0.4098 -0.0800 -0.4579
 9090SOL    HW132117   3.764   8.401   1.123 -0.4574  0.3500  0.4498
 9090SOL    HW232118   3.797   8.496   1.237  1.8375  2.2674 -1.6864
 9091SOL     OW32119   1.175   7.028   8.442  0.0151 -0.1310 -0.1170
 9091SOL    HW132120   1.232   7.074   8.380 -0.5088 -0.3042 -0.7380
 9091SOL    HW232121   1.232   7.006   8.516  0.8902 -0.7903 -0.9684
 9092SOL     OW32122   4.800   6.555   1.040  0.2050 -0.2972 -0.3188
 9092SOL    HW132123   4.732   6.608   1.082  0.0222  0.3268 -1.3454
 9092SOL    HW232124   4.847   6.514   1.112 -0.6624  0.0150  0.4477
 9093SOL     OW32125   0.164   5.810   1.454  0.1257  0.2319 -0.3690
 9093SOL    HW132126   0.219   5.750   1.404 -2.5990 -0.9315 -2.2524
 9093SOL    HW232127   0.174   5.895   1.412  0.4268  0.0237 -0.7175
 9094SOL     OW32128   3.070   7.121   1.353 -0.2461  0.2588 -0.5795
 9094SOL    HW132129   3.098   7.141   1.264 -0.4261 -0.8069 -0.8825
 9094SOL    HW232130   3.138   7.064   1.388 -0.9292 -0.5525 -0.5608
 9095SOL     OW32131   1.461   7.940   0.516  0.0988  0.5484 -0.4646
 9095SOL    HW132132   1.480   8.033   0.525 -1.8638  0.8489  1.2593
 9095SOL    HW232133   1.381   7.937   0.463  0.3759 -0.2135 -0.8704
 9096SOL     OW32134   2.356   4.669   3.479 -0.2985 -0.2370 -0.1066
 9096SOL    HW132135   2.339   4.580   3.509  1.2026  0.1533  2.1874
 9096SOL    HW232136   2.302   4.724   3.536  0.9818  0.4437  0.4813
 9097SOL     OW32137   5.262   6.466   9.774  0.8162 -0.1359  0.3563
 9097SOL    HW132138   5.246   6.404   9.702  2.5933  1.7300 -1.8400
 9097SOL    HW232139   5.197   6.535   9.761  1.2857  0.3172  0.3684
 9098SOL     OW32140   1.781   6.885   7.234  0.0342 -0.6504 -0.6073
 9098SOL    HW132141   1.785   6.955   7.299  0.3903 -0.7608 -0.5077
 9098SOL    HW232142   1.852   6.826   7.257 -0.5715 -1.3115 -0.3951
 9099SOL     OW32143   4.014   6.179   0.750  0.3334 -0.0307  0.5405
 9099SOL    HW132144   3.994   6.128   0.671 -0.2175  2.8548 -1.3283
 9099SOL    HW232145   4.084   6.130   0.793 -0.6496 -2.7056 -0.6754
 9100SOL     OW32146   2.852   5.005   0.484 -0.1923  0.7716  0.2607
 9100SOL    HW132147   2.826   4.963   0.402  1.3957  0.2898 -0.0332
 9100SOL    HW232148   2.855   5.099   0.463  0.1939  0.6516 -0.2403
 9101SOL     OW32149   3.795   7.436   7.363  0.3155  0.5793  0.0176
 9101SOL    HW132150   3.777   7.376   7.290  0.6440  0.9728 -0.3852
 9101SOL    HW232151   3.724   7.500   7.359 -0.8255 -0.5266  1.2735
 9102SOL     OW32152   3.769   8.376   0.425  0.1766  0.1939  0.4363
 9102SOL    HW132153   3.857   8.409   0.409  0.8416 -2.2559 -1.3589
 9102SOL    HW232154   3.782   8.289   0.462 -1.5001 -0.3316 -0.1417
 9103SOL     OW32155   0.551   5.411   3.010 -0.5957  0.4272 -0.2499
 9103SOL    HW132156   0.483   5.455   2.961 -0.8983  0.9338  0.6091
 9103SOL    HW232157   0.505   5.361   3.077 -0.1895 -0.2193 -0.4396
 9104SOL     OW32158   3.828   6.799   9.314  0.8742  0.6341 -0.1821
 9104SOL    HW132159   3.910   6.751   9.327 -0.8493 -2.1829  1.1254
 9104SOL    HW232160   3.803   6.829   9.401 -0.2927 -0.0397 -0.2599
 9105SOL     OW32161   3.984   9.308   1.960 -0.1827  0.8779  0.2879
 9105SOL    HW132162   4.019   9.304   1.871  0.9160  0.3330  0.7327
 9105SOL    HW232163   3.973   9.401   1.978  2.1595  1.1544  0.5391
 9106SOL     OW32164   9.509   5.442   3.422 -0.0869  0.5726 -0.2881
 9106SOL    HW132165   9.582   5.436   3.359 -0.7367  1.2210 -1.1243
 9106SOL    HW232166   9.451   5.370   3.398  0.6935 -0.5070  0.9562
 9107SOL     OW32167   1.833   6.072   2.562 -0.2463 -0.2447  0.9828
 9107SOL    HW132168   1.763   6.135   2.547  1.1657  1.7213  2.1886
 9107SOL    HW232169   1.914   6.123   2.551  0.9581 -1.6433  2.7255
 9108SOL     OW32170   3.159   6.135   1.813  0.2179 -0.2095 -0.1147
 9108SOL    HW132171   3.140   6.218   1.856  0.6527 -1.1786  2.0969
 9108SOL    HW232172   3.139   6.068   1.879  2.3608 -1.7254 -0.8775
 9109SOL     OW32173   3.941   5.910   2.621  0.1582 -0.2032  0.2613
 9109SOL    HW132174   3.914   5.839   2.678 -0.8249  1.1087  1.4892
 9109SOL    HW232175   4.016   5.950   2.666  0.4357 -0.1805 -0.2088
 9110SOL     OW32176   4.635   6.343   1.205  0.3927 -0.5868 -0.4094
 9110SOL    HW132177   4.717   6.320   1.161  0.6896 -1.0004  0.3476
 9110SOL    HW232178   4.586   6.393   1.139  1.1152 -0.6036 -0.9741
 9111SOL     OW32179   3.443   4.580   1.377  0.0121  0.1185  0.6193
 9111SOL    HW132180   3.356   4.552   1.350  0.6039 -0.9339 -0.3120
 9111SOL    HW232181   3.455   4.540   1.463 -0.1214 -0.4159  0.3949
 9112SOL     OW32182   3.394   4.371   2.249  0.8037 -0.7354 -0.6771
 9112SOL    HW132183   3.449   4.395   2.324  2.6337 -1.4167 -1.7324
 9112SOL    HW232184   3.313   4.421   2.261  1.3693 -0.2233  1.3080
 9113SOL     OW32185   1.898   4.193   9.472  0.6662 -1.1255 -0.0007
 9113SOL    HW132186   1.845   4.245   9.411  1.2634 -0.6424 -0.1217
 9113SOL    HW232187   1.861   4.212   9.558  0.8081 -0.5634 -0.0537
 9114SOL     OW32188   2.233   4.989   8.822  0.3067 -0.8511  0.0990
 9114SOL    HW132189   2.266   4.975   8.911  1.2113 -1.6005 -0.3395
 9114SOL    HW232190   2.257   4.910   8.774  2.3509  0.6324 -1.5396
 9115SOL     OW32191   2.886   7.312   0.625 -0.1138  0.1321  0.7777
 9115SOL    HW132192   2.950   7.364   0.577 -1.2284  0.0404 -0.8895
 9115SOL    HW232193   2.815   7.374   0.644  0.9863  0.6318  3.9156
 9116SOL     OW32194   8.724   6.117   9.149 -0.6037 -0.1495 -0.1791
 9116SOL    HW132195   8.677   6.088   9.227  0.5433 -0.8943  0.2422
 9116SOL    HW232196   8.779   6.043   9.124  1.5302  1.2081  0.2658
 9117SOL     OW32197   0.734   4.686   1.219  0.3726  0.1164  0.2785
 9117SOL    HW132198   0.768   4.679   1.130 -1.2547 -1.3210 -0.2803
 9117SOL    HW232199   0.715   4.596   1.245  1.3611  0.4484  2.3339
 9118SOL     OW32200   4.011   5.728   2.103 -0.4241  0.0732 -0.1174
 9118SOL    HW132201   4.093   5.738   2.055  0.9105 -0.6285  1.8747
 9118SOL    HW232202   4.031   5.663   2.170 -2.3300  0.6235  1.0499
 9119SOL     OW32203   4.083   4.587   8.835 -0.0950  0.8916  0.8341
 9119SOL    HW132204   3.999   4.624   8.863 -0.8970 -0.4898  0.3197
 9119SOL    HW232205   4.062   4.501   8.800  1.5792  0.3959  0.9267
 9120SOL     OW32206   1.016   4.995   1.208  0.5492 -0.1883 -0.5973
 9120SOL    HW132207   1.013   4.901   1.227  1.3186  0.1094  1.1251
 9120SOL    HW232208   1.105   5.021   1.229 -0.2007  1.3163  0.9312
 9121SOL     OW32209   1.755   5.168   3.770 -0.1983 -0.1360  0.1397
 9121SOL    HW132210   1.660   5.158   3.767 -0.0977 -1.0612 -2.4456
 9121SOL    HW232211   1.771   5.259   3.746 -0.4029  0.0324  0.6204
 9122SOL     OW32212   0.188   7.488   2.710 -0.4863  0.0600 -0.0818
 9122SOL    HW132213   0.197   7.446   2.624 -0.8252 -0.8868  0.3307
 9122SOL    HW232214   0.264   7.546   2.717 -0.5719  0.3052 -1.1055
 9123SOL     OW32215   0.536   7.193   3.964 -0.2215  0.3021  0.5942
 9123SOL    HW132216   0.611   7.233   4.007 -0.1969 -1.4431  2.3181
 9123SOL    HW232217   0.553   7.204   3.871  0.4797  2.8939  0.9532
 9124SOL     OW32218   3.137   7.936   9.575 -0.2506  0.2599  0.4789
 9124SOL    HW132219   3.153   7.995   9.649 -0.8890  0.9476  0.0802
 9124SOL    HW232220   3.224   7.905   9.549  0.0881  0.9895  0.7318
 9125SOL     OW32221   2.560   3.354   1.650 -0.1309  0.3125  0.7900
 9125SOL    HW132222   2.527   3.290   1.713  0.6947 -1.0895 -0.1385
 9125SOL    HW232223   2.654   3.338   1.647 -0.1392  0.3718 -0.7406
 9126SOL     OW32224   4.518   2.676   0.979  0.2087  0.4365  0.5920
 9126SOL    HW132225   4.442   2.679   1.037  0.0290 -0.2638  0.4057
 9126SOL    HW232226   4.481   2.679   0.891  0.4391  0.7409  0.5040
 9127SOL     OW32227   2.542   5.623   4.554 -0.0451 -0.2618 -0.0636
 9127SOL    HW132228   2.522   5.541   4.509  0.2227 -1.8692  2.5293
 9127SOL    HW232229   2.507   5.691   4.496 -0.8180 -2.2001 -2.0374
 9128SOL     OW32230   2.426   6.828   4.286 -0.2361 -0.1006  0.5659
 9128SOL    HW132231   2.351   6.776   4.316  1.6297 -3.1186  0.3854
 9128SOL    HW232232   2.482   6.835   4.364  1.6959 -2.5357 -0.4869
 9129SOL     OW32233   1.235   9.091   3.327  0.5816  0.1624  0.6770
 9129SOL    HW132234   1.257   9.100   3.420  0.1358 -0.6136  0.8682
 9129SOL    HW232235   1.217   8.997   3.316  2.6112 -0.1414 -0.6376
 9130SOL     OW32236   9.334   6.285   3.353  0.6074 -0.1117 -0.5258
 9130SOL    HW132237   9.295   6.357   3.303  0.7071 -0.9205 -1.8225
 9130SOL    HW232238   9.414   6.264   3.306  2.0455  0.7367  1.4262
 9131SOL     OW32239   1.005   8.832   3.384  0.3844 -0.0417 -0.4552
 9131SOL    HW132240   1.087   8.811   3.339 -0.3613  1.1383 -2.4727
 9131SOL    HW232241   0.936   8.801   3.325 -0.6348  1.7460 -0.2676
 9132SOL     OW32242   4.942   7.207   1.621  0.3650 -0.2449  0.3055
 9132SOL    HW132243   4.957   7.232   1.530  2.4729 -0.7335  0.4619
 9132SOL    HW232244   5.014   7.248   1.669 -0.9288  0.3233  1.8327
 9133SOL     OW32245   2.040   5.478   4.572 -0.0284 -0.3084 -0.1470
 9133SOL    HW132246   2.115   5.419   4.563 -0.2133 -0.4474 -0.8821
 9133SOL    HW232247   1.970   5.423   4.606 -0.5468 -0.8357 -1.9478
 9134SOL     OW32248   2.945   3.022   2.426  0.2755 -0.3011 -0.1341
 9134SOL    HW132249   2.998   2.950   2.461 -0.5655 -1.7520 -1.6584
 9134SOL    HW232250   2.893   2.981   2.357 -1.6561  1.3775  0.2152
 9135SOL     OW32251   1.622   6.867   2.360 -0.4194  0.1258 -0.3089
 9135SOL    HW132252   1.545   6.811   2.349  0.4090 -1.1022 -0.0017
 9135SOL    HW232253   1.633   6.909   2.274 -1.1572 -0.0155 -0.4834
 9136SOL     OW32254   4.186   7.263   6.051  1.3531  0.3637 -0.3776
 9136SOL    HW132255   4.215   7.353   6.061  1.8895  0.2684 -0.9972
 9136SOL    HW232256   4.100   7.270   6.008  1.1268  0.5948  0.1110
 9137SOL     OW32257   2.005   6.106   3.079  0.1316  0.5015 -0.8157
 9137SOL    HW132258   2.013   6.021   3.036  0.2078  0.7745 -1.3475
 9137SOL    HW232259   2.009   6.170   3.008  1.2186  1.0091 -0.3347
 9138SOL     OW32260   2.487   6.545   1.636 -0.3794 -1.2609  0.1802
 9138SOL    HW132261   2.496   6.456   1.669  0.7890 -1.6639 -1.1755
 9138SOL    HW232262   2.447   6.535   1.550 -2.5795 -0.2701  0.9918
 9139SOL     OW32263   2.239   5.299   3.376 -0.1339 -0.5264  0.4353
 9139SOL    HW132264   2.261   5.230   3.314 -0.1672  0.3994 -0.6462
 9139SOL    HW232265   2.258   5.261   3.462  1.6843 -1.2314 -0.2123
 9140SOL     OW32266   2.939   7.906   0.810 -0.0488 -0.0163  0.3766
 9140SOL    HW132267   2.876   7.977   0.804  1.3130  1.1889 -0.3848
 9140SOL    HW232268   2.974   7.912   0.899  0.6117  0.7659  0.0677
 9141SOL     OW32269   2.706   5.401   3.588 -0.0878 -0.9497  0.4303
 9141SOL    HW132270   2.656   5.482   3.575  1.0958 -0.0824  1.0734
 9141SOL    HW232271   2.647   5.346   3.639 -0.2351  0.2404  1.6089
 9142SOL     OW32272   1.209   6.432   1.198 -0.4725  0.0860 -0.8433
 9142SOL    HW132273   1.209   6.351   1.146  0.2367 -1.4676  1.4269
 9142SOL    HW232274   1.129   6.428   1.249 -0.5257  0.9365 -0.8442
 9143SOL     OW32275   1.512   5.952   1.554 -0.0607  0.0379 -0.4958
 9143SOL    HW132276   1.429   6.000   1.546 -0.0599  0.1918  0.3331
 9143SOL    HW232277   1.554   5.989   1.631  1.5355  1.0490 -1.8084
 9144SOL     OW32278   1.747   6.551   2.417  0.2346  0.0064 -0.2697
 9144SOL    HW132279   1.809   6.513   2.355  2.0682  1.3031  0.6630
 9144SOL    HW232280   1.795   6.622   2.458 -1.0961 -0.4201  2.2229
 9145SOL     OW32281   2.538   5.615   3.575  0.1046  0.2695 -0.7190
 9145SOL    HW132282   2.477   5.660   3.517 -0.9854 -1.5020 -1.0328
 9145SOL    HW232283   2.492   5.609   3.659  0.3843  0.0653 -0.5761
 9146SOL     OW32284   3.241   4.699   4.358 -0.3493  0.4948 -0.3308
 9146SOL    HW132285   3.256   4.665   4.446 -0.7707  2.2062  0.4424
 9146SOL    HW232286   3.267   4.628   4.300  1.6373 -0.0398  1.1195
 9147SOL     OW32287   3.468   6.427   3.833  0.2563 -0.3386  0.1230
 9147SOL    HW132288   3.530   6.433   3.906 -1.0174  0.3825  1.2000
 9147SOL    HW232289   3.454   6.518   3.806  0.7115 -0.6024 -1.0369
 9148SOL     OW32290   1.251   9.093   5.610 -0.4353 -0.0062  0.1907
 9148SOL    HW132291   1.194   9.144   5.552 -1.3138 -2.0438 -0.8348
 9148SOL    HW232292   1.330   9.146   5.619 -1.6880  1.9896  0.0384
 9149SOL     OW32293   4.275   7.657   4.535 -0.1738  0.2313 -0.0400
 9149SOL    HW132294   4.257   7.742   4.496 -0.7402  0.0277 -0.2420
 9149SOL    HW232295   4.281   7.674   4.629  1.2586  0.7317 -0.2058
 9150SOL     OW32296   3.554   7.224   4.020  0.2939 -0.1775 -0.7698
 9150SOL    HW132297   3.460   7.245   4.012 -0.0941 -1.2253  0.7012
 9150SOL    HW232298   3.563   7.187   4.107  2.7134  3.0414  0.5604
 9151SOL     OW32299   2.999   5.817   5.294  0.3093  0.1868  0.2754
 9151SOL    HW132300   2.964   5.733   5.264  3.1238 -1.0031 -0.0203
 9151SOL    HW232301   2.966   5.827   5.383 -0.6898 -0.8518  0.0367
 9152SOL     OW32302   3.977   7.235   3.645  0.1603  0.0266  0.0139
 9152SOL    HW132303   3.914   7.204   3.709 -0.6680  2.2251  0.3255
 9152SOL    HW232304   3.985   7.163   3.582 -0.3844 -1.4422  1.5550
 9153SOL     OW32305   2.115   6.353   2.841 -0.5522  0.4942  0.1080
 9153SOL    HW132306   2.062   6.412   2.894  0.0919  0.4585  0.8162
 9153SOL    HW232307   2.195   6.403   2.822 -0.9871  0.7045 -1.2947
 9154SOL     OW32308   3.727   5.008   4.673  0.1744  0.0138 -0.0912
 9154SOL    HW132309   3.681   5.048   4.599  0.1431 -1.2375 -0.7789
 9154SOL    HW232310   3.819   5.029   4.659  0.0226  0.9439  0.2709
 9155SOL     OW32311   2.720   6.465   1.076  0.4026 -0.1335  0.6183
 9155SOL    HW132312   2.816   6.465   1.078  0.5743 -1.9825 -2.1764
 9155SOL    HW232313   2.696   6.547   1.033  0.7222  0.2067  1.0791
 9156SOL     OW32314   1.811   6.017   1.338  0.1702  0.0833  0.4033
 9156SOL    HW132315   1.880   6.076   1.308  0.9136 -2.1633 -2.8475
 9156SOL    HW232316   1.730   6.065   1.323  0.8218  0.9501 -0.5114
 9157SOL     OW32317   2.846   6.511   2.301 -0.9154 -0.2870  0.2316
 9157SOL    HW132318   2.897   6.543   2.376  0.0583 -1.4537  0.1008
 9157SOL    HW232319   2.762   6.484   2.339 -1.6057  1.8966  0.4161
 9158SOL     OW32320   5.280   6.823   2.372 -0.6281 -0.5160 -0.3364
 9158SOL    HW132321   5.292   6.735   2.408  2.4152 -0.5291 -1.1008
 9158SOL    HW232322   5.186   6.839   2.378 -1.0372 -3.0584  1.5402
 9159SOL     OW32323   3.140   6.441   4.131 -0.2795  0.1889  0.3442
 9159SOL    HW132324   3.064   6.384   4.136  0.8611 -1.5268 -0.7487
 9159SOL    HW232325   3.116   6.508   4.067 -1.0727  0.0321  0.4655
 9160SOL     OW32326   1.691   4.891   4.293  0.0438  0.1095  0.0946
 9160SOL    HW132327   1.664   4.839   4.368 -0.8357  0.9127  0.3582
 9160SOL    HW232328   1.759   4.949   4.328 -0.1139  0.2389  0.1872
 9161SOL     OW32329   0.507   5.376   4.067 -0.3019 -0.0251  0.3607
 9161SOL    HW132330   0.536   5.455   4.022  3.2348 -0.4355  1.6443
 9161SOL    HW232331   0.494   5.312   3.997 -2.0933  1.2509 -0.5792
 9162SOL     OW32332   2.360   8.076   2.394  0.2188  0.3736 -0.0658
 9162SOL    HW132333   2.449   8.087   2.361  0.4636 -1.7483 -0.2360
 9162SOL    HW232334   2.372   8.040   2.482 -0.4544 -0.8582 -0.4642
 9163SOL     OW32335   4.375   7.729   3.102 -0.0591 -0.2286  0.8480
 9163SOL    HW132336   4.361   7.735   3.008 -0.7620  0.7572  0.9991
 9163SOL    HW232337   4.404   7.817   3.128  0.0101 -0.4548  1.5703
 9164SOL     OW32338   1.171   4.414   3.588  0.1347  0.6420 -0.0428
 9164SOL    HW132339   1.107   4.343   3.576  0.1926  0.2032  1.8551
 9164SOL    HW232340   1.224   4.412   3.509 -1.4008  0.1979 -1.1275
 9165SOL     OW32341   3.013   9.168   3.058  0.1168 -0.1837 -0.2101
 9165SOL    HW132342   2.923   9.162   3.090  0.3531  2.1354  1.0937
 9165SOL    HW232343   3.006   9.215   2.976  0.2218  1.3195  0.6111
 9166SOL     OW32344   1.274   5.398   0.692 -0.2146  0.3688  0.0461
 9166SOL    HW132345   1.334   5.366   0.759 -0.3751 -0.3309 -0.1306
 9166SOL    HW232346   1.191   5.410   0.737 -0.2669  0.1055  0.0231
 9167SOL     OW32347   5.366   5.477   4.039  0.8292  0.2410  0.7144
 9167SOL    HW132348   5.379   5.525   3.958  0.4542  1.5800  1.4202
 9167SOL    HW232349   5.422   5.521   4.103 -1.1857  1.2019  1.9181
 9168SOL     OW32350   2.592   5.503   2.122  0.3113  0.1420 -0.0974
 9168SOL    HW132351   2.508   5.487   2.165  0.6969 -0.1135  0.5711
 9168SOL    HW232352   2.569   5.552   2.043 -0.5946 -1.1646 -0.6720
 9169SOL     OW32353   0.665   5.648   1.686 -0.6715 -0.0121  0.4679
 9169SOL    HW132354   0.663   5.594   1.765 -1.7718  1.1101  1.2547
 9169SOL    HW232355   0.613   5.599   1.622 -1.8032  0.1581  1.2263
 9170SOL     OW32356   5.021   7.640   3.225  0.0192  0.9246 -0.3630
 9170SOL    HW132357   5.054   7.565   3.276  0.0082  1.0570 -0.1581
 9170SOL    HW232358   5.024   7.611   3.134 -1.7287 -0.0059 -0.1667
 9171SOL     OW32359   0.224   6.840   4.578  0.0051  0.2026  0.9383
 9171SOL    HW132360   0.172   6.822   4.500  1.6875  1.5015 -0.5579
 9171SOL    HW232361   0.310   6.864   4.545  0.8224  0.6978  3.2168
 9172SOL     OW32362   3.932   7.648   1.777  0.5064  0.3458  0.2499
 9172SOL    HW132363   3.887   7.729   1.756 -0.0041 -0.2662 -1.1360
 9172SOL    HW232364   3.967   7.617   1.694 -0.4253 -1.4985  0.4710
 9173SOL     OW32365   0.550   7.427   3.503 -0.2871  0.1074  0.0888
 9173SOL    HW132366   0.588   7.464   3.423 -0.7058 -0.0941 -0.2066
 9173SOL    HW232367   0.457   7.446   3.496 -0.0067  2.4898  1.8296
 9174SOL     OW32368   3.165   5.040   1.694  0.0853  0.0913 -0.0103
 9174SOL    HW132369   3.152   4.945   1.693 -2.5597  0.3603 -0.6238
 9174SOL    HW232370   3.145   5.066   1.784  1.0365  0.0563  0.2161
 9175SOL     OW32371   3.752   6.421   2.782  0.4484 -0.1245  0.1404
 9175SOL    HW132372   3.773   6.467   2.864  1.0596 -0.2115  0.0378
 9175SOL    HW232373   3.725   6.334   2.810  0.3465 -0.0510  0.2706
 9176SOL     OW32374   1.584   7.671   4.577  0.8971  0.2180 -0.6527
 9176SOL    HW132375   1.576   7.716   4.493 -0.7487  1.2426  0.0077
 9176SOL    HW232376   1.652   7.719   4.624  0.4873  0.8480 -0.6884
 9177SOL     OW32377   3.358   5.430   3.530 -0.0503 -0.4726 -0.3034
 9177SOL    HW132378   3.453   5.427   3.533  0.0912  2.0625 -0.1928
 9177SOL    HW232379   3.337   5.507   3.477 -2.0107 -0.5301  0.2773
 9178SOL     OW32380   1.468   5.391   4.289  0.2480 -0.2582  0.1196
 9178SOL    HW132381   1.552   5.395   4.245 -0.2576 -2.7105 -1.2927
 9178SOL    HW232382   1.410   5.447   4.237 -0.1612 -2.5622 -2.1113
 9179SOL     OW32383   3.945   5.060   3.794  0.1327 -0.2169  0.1875
 9179SOL    HW132384   3.920   5.052   3.887  1.5065  1.1056  0.6931
 9179SOL    HW232385   3.868   5.100   3.753 -0.7341 -1.3799  0.6055
 9180SOL     OW32386   2.153   7.416   0.228  0.3680  0.2976 -0.0537
 9180SOL    HW132387   2.095   7.364   0.284  2.7493 -1.5537  0.8648
 9180SOL    HW232388   2.134   7.385   0.139  0.1818 -0.5152  0.2620
 9181SOL     OW32389   4.326   5.106   1.786  0.4582  0.7666  0.6863
 9181SOL    HW132390   4.361   5.148   1.708  0.8326 -0.1864  0.3255
 9181SOL    HW232391   4.296   5.020   1.755 -1.0858  1.0762  1.2249
 9182SOL     OW32392   1.759   6.473   3.778 -0.3264  0.0437  0.0890
 9182SOL    HW132393   1.850   6.504   3.776  0.1141 -1.1761  0.2849
 9182SOL    HW232394   1.764   6.381   3.752 -1.6949  0.3412 -1.3506
 9183SOL     OW32395   1.945   6.915   4.510  0.1440 -0.0404 -0.5681
 9183SOL    HW132396   1.936   7.000   4.467  0.8156  0.2693 -0.1224
 9183SOL    HW232397   1.905   6.853   4.450  3.7977 -0.1097 -3.3228
 9184SOL     OW32398   1.623   7.716   3.043 -0.0943  0.0611  0.6197
 9184SOL    HW132399   1.597   7.655   2.974 -1.2662 -0.4383  1.4557
 9184SOL    HW232400   1.589   7.800   3.015  1.3974  0.3367 -0.4688
 9185SOL     OW32401   3.443   5.261   2.340 -0.0937 -0.2868  0.3208
 9185SOL    HW132402   3.428   5.317   2.264  0.2417 -0.0905  0.3984
 9185SOL    HW232403   3.357   5.252   2.380 -0.3184 -0.5797 -0.2087
 9186SOL     OW32404   1.915   4.404   3.587  0.4270 -0.3898  0.2155
 9186SOL    HW132405   1.823   4.430   3.587 -0.3944 -2.9732 -0.7271
 9186SOL    HW232406   1.961   4.477   3.628 -1.9391  1.2758  0.0796
 9187SOL     OW32407   3.913   5.084   1.534 -0.2970  0.2703 -0.2155
 9187SOL    HW132408   3.947   5.137   1.606  1.0325 -0.4516 -0.2841
 9187SOL    HW232409   3.900   4.997   1.572 -0.0103 -0.0028 -0.7375
 9188SOL     OW32410   1.705   6.338   4.466  0.0359 -0.3383  0.0367
 9188SOL    HW132411   1.725   6.392   4.390 -0.8129 -1.7246 -1.2098
 9188SOL    HW232412   1.659   6.397   4.526 -1.8707  0.1085 -1.7619
 9189SOL     OW32413   3.919   7.415   2.916 -0.0675  0.0566 -0.6168
 9189SOL    HW132414   3.922   7.496   2.968  0.2818 -0.2693 -0.1141
 9189SOL    HW232415   4.007   7.409   2.878  0.6001 -1.1484  1.0223
 9190SOL     OW32416   1.264   4.336   9.488  0.4398 -0.0406  0.2193
 9190SOL    HW132417   1.306   4.389   9.556  0.2744  0.8127 -0.3263
 9190SOL    HW232418   1.298   4.248   9.502  1.5787  0.4171  0.4529
 9191SOL     OW32419   2.706   4.901   2.352  0.3526 -0.1828  0.2097
 9191SOL    HW132420   2.652   4.862   2.284  0.7324 -1.9521  0.8632
 9191SOL    HW232421   2.643   4.939   2.414 -0.0065  0.7819 -0.7231
 9192SOL     OW32422   2.385   6.233   1.963  0.1054  0.2328 -0.6525
 9192SOL    HW132423   2.332   6.181   2.023 -1.7472  2.3365 -0.3277
 9192SOL    HW232424   2.335   6.235   1.882  0.2699  1.2458 -0.7423
 9193SOL     OW32425   3.220   6.547   0.363  0.6299 -0.9590 -0.1374
 9193SOL    HW132426   3.173   6.589   0.291  2.5532 -0.3643 -1.1281
 9193SOL    HW232427   3.180   6.583   0.442 -1.5062 -1.5870 -0.8504
 9194SOL     OW32428   2.121   5.165   2.149 -0.3366  0.0573  0.5264
 9194SOL    HW132429   2.198   5.164   2.206  0.3362 -2.3141 -0.2914
 9194SOL    HW232430   2.047   5.154   2.208  0.1360  0.1948  1.1548
 9195SOL     OW32431   3.065   5.648   2.576 -0.2921  0.0309  1.0492
 9195SOL    HW132432   3.019   5.586   2.633  0.3933 -0.7143  0.8109
 9195SOL    HW232433   3.120   5.593   2.520 -3.2284  0.4412 -2.6023
 9196SOL     OW32434   3.597   7.812   2.676  0.3371  0.6162  0.2655
 9196SOL    HW132435   3.517   7.838   2.630 -0.1102 -1.5878 -0.3333
 9196SOL    HW232436   3.648   7.764   2.611 -0.0495 -2.0881  1.7857
 9197SOL     OW32437   2.030   6.731   3.996 -0.6650 -0.4735 -0.0457
 9197SOL    HW132438   1.956   6.775   4.039 -0.3621  0.0501 -0.0498
 9197SOL    HW232439   2.057   6.665   4.059 -0.1417  0.3782  0.6543
 9198SOL     OW32440   1.350   6.412   2.389 -0.0544  0.3288  0.0080
 9198SOL    HW132441   1.383   6.486   2.337 -0.8009  1.8292  1.5888
 9198SOL    HW232442   1.255   6.416   2.379 -0.1542  0.1334  0.8187
 9199SOL     OW32443   2.113   6.835   1.417  0.2634  0.1050 -0.2743
 9199SOL    HW132444   2.201   6.808   1.391 -0.2346 -1.4013 -0.4991
 9199SOL    HW232445   2.085   6.894   1.347  0.7381 -0.1537 -0.6914
 9200SOL     OW32446   9.364   5.815   8.694  0.2385  0.0244 -0.7082
 9200SOL    HW132447   9.301   5.882   8.668  2.4103  1.8740 -1.5304
 9200SOL    HW232448   9.365   5.753   8.621 -0.7770 -0.1737 -0.5671
 9201SOL     OW32449   0.890   7.810   4.591  0.4995 -0.2103  0.2304
 9201SOL    HW132450   0.832   7.748   4.546 -2.6452  3.0028 -0.6315
 9201SOL    HW232451   0.856   7.812   4.681  0.5517  0.2436  0.2419
 9202SOL     OW32452   1.194   7.129   4.818 -0.2331 -0.0662  0.2330
 9202SOL    HW132453   1.245   7.047   4.816 -1.7921 -1.0651 -0.7754
 9202SOL    HW232454   1.251   7.193   4.776  0.6334 -0.8758  0.1310
 9203SOL     OW32455   2.103   5.069   0.968 -0.0645 -0.6522  0.3202
 9203SOL    HW132456   2.194   5.045   0.950 -0.4287 -2.1503  0.3612
 9203SOL    HW232457   2.056   5.044   0.889 -0.3400  0.8569 -0.0167
 9204SOL     OW32458   4.532   6.107   2.389  0.2278  0.0326 -0.3098
 9204SOL    HW132459   4.565   6.148   2.309  0.6628 -0.0498 -0.1770
 9204SOL    HW232460   4.473   6.038   2.358 -2.6354  2.4011 -0.5204
 9205SOL     OW32461   2.592   7.663   4.019 -0.1358 -0.3161  0.1313
 9205SOL    HW132462   2.562   7.697   4.103  0.4792 -1.1739  0.7185
 9205SOL    HW232463   2.566   7.571   4.020  0.5519 -0.5201 -0.2820
 9206SOL     OW32464   5.752   4.713   4.368  0.5426  0.0384 -0.0187
 9206SOL    HW132465   5.815   4.665   4.314  0.0022 -0.2968 -0.3622
 9206SOL    HW232466   5.802   4.786   4.404  0.7238  0.8002 -1.6902
 9207SOL     OW32467   3.483   6.589   2.341 -0.1488 -0.1323 -0.1534
 9207SOL    HW132468   3.568   6.559   2.311  0.6070  0.8905  0.9068
 9207SOL    HW232469   3.500   6.672   2.384 -1.7965  0.4754 -0.6012
 9208SOL     OW32470   4.806   7.824   3.597  0.2089  0.0076 -0.1131
 9208SOL    HW132471   4.732   7.781   3.640 -0.7039 -0.4479 -2.0270
 9208SOL    HW232472   4.883   7.779   3.632 -0.6108 -1.7048 -0.4135
 9209SOL     OW32473   2.663   4.277   1.716  0.4862 -0.1315  0.5076
 9209SOL    HW132474   2.706   4.193   1.733  1.9462  0.0386 -1.9035
 9209SOL    HW232475   2.573   4.264   1.746  0.1635 -3.2123 -1.4071
 9210SOL     OW32476   4.496   3.887   9.776 -0.2195  0.0135  0.5798
 9210SOL    HW132477   4.446   3.837   9.841 -2.7870 -0.1273 -1.3289
 9210SOL    HW232478   4.501   3.975   9.812 -2.5099  0.1982  0.5613
 9211SOL     OW32479   1.376   4.725   1.409 -0.1953 -0.0929 -0.1381
 9211SOL    HW132480   1.300   4.738   1.354 -0.5238 -2.9856 -0.5079
 9211SOL    HW232481   1.374   4.799   1.470 -2.0640  1.0271 -1.4531
 9212SOL     OW32482   2.081   6.322   5.500 -0.4924 -0.5018 -0.1166
 9212SOL    HW132483   1.991   6.353   5.497  0.3987  2.3491 -1.0353
 9212SOL    HW232484   2.110   6.327   5.409  1.4750  1.7532  0.5447
 9213SOL     OW32485   3.029   4.559   3.110 -0.6056  0.3436 -0.5321
 9213SOL    HW132486   2.978   4.611   3.048  0.6771  0.2543 -1.7016
 9213SOL    HW232487   2.965   4.499   3.148 -1.5179  0.7134 -1.4257
 9214SOL     OW32488   4.263   6.231   3.951 -0.0612  0.1045 -0.1097
 9214SOL    HW132489   4.339   6.172   3.945 -0.1709 -0.3968  2.2855
 9214SOL    HW232490   4.241   6.251   3.860  1.1248 -2.0814 -0.9573
 9215SOL     OW32491   3.231   5.693   3.391  0.2817  0.4640 -0.1926
 9215SOL    HW132492   3.219   5.782   3.357 -2.8626 -0.5081 -2.1027
 9215SOL    HW232493   3.153   5.677   3.444  1.1963 -0.8897  0.7879
 9216SOL     OW32494   2.779   6.664   4.542 -0.3280 -0.9959 -0.2778
 9216SOL    HW132495   2.706   6.709   4.585 -0.4132 -1.1480 -0.2620
 9216SOL    HW232496   2.834   6.634   4.614 -1.2262 -2.5372 -0.1929
 9217SOL     OW32497   0.760   7.136   3.279  0.5328  0.1733  0.5875
 9217SOL    HW132498   0.735   7.223   3.249 -0.7623  0.3144  1.9639
 9217SOL    HW232499   0.697   7.115   3.349  1.7874 -1.2080  1.3658
 9218SOL     OW32500   1.349   7.037   4.003  0.4284  0.3711  0.3882
 9218SOL    HW132501   1.263   7.029   4.045  0.5469  1.7561  0.9377
 9218SOL    HW232502   1.364   7.131   3.997  2.6242  0.1760  1.8010
 9219SOL     OW32503   1.830   7.299   2.686  0.2188  0.3842 -0.3911
 9219SOL    HW132504   1.908   7.243   2.694  0.7528  1.1263 -0.3203
 9219SOL    HW232505   1.846   7.352   2.608 -0.5641  0.0251 -0.8143
 9220SOL     OW32506   3.764   7.479   3.686 -0.0856  0.1893 -0.0557
 9220SOL    HW132507   3.845   7.427   3.678 -0.5456 -0.6495  0.5097
 9220SOL    HW232508   3.703   7.436   3.626 -0.3969  0.2288  0.2338
 9221SOL     OW32509   3.304   5.806   3.047  0.0424  0.5093 -0.0092
 9221SOL    HW132510   3.271   5.782   2.961 -1.2412  0.2038  0.5362
 9221SOL    HW232511   3.272   5.895   3.062  0.6582  0.7398 -0.0361
 9222SOL     OW32512   3.543   8.677   4.618 -0.1586  0.0469 -0.1581
 9222SOL    HW132513   3.527   8.612   4.687  0.4833 -0.9872 -0.9472
 9222SOL    HW232514   3.456   8.698   4.584 -0.2913 -1.7165 -1.0310
 9223SOL     OW32515   2.052   6.490   5.212  0.0124  0.3819 -0.0075
 9223SOL    HW132516   2.051   6.423   5.145  1.4896 -0.3164  0.6318
 9223SOL    HW232517   2.051   6.573   5.164 -0.2402 -0.0948 -0.8323
 9224SOL     OW32518   1.771   3.661   3.288  0.2566  0.1044 -0.2657
 9224SOL    HW132519   1.797   3.695   3.373 -2.9525 -0.3557  1.0245
 9224SOL    HW232520   1.829   3.586   3.273  2.1148  1.3057  0.5464
 9225SOL     OW32521   2.632   7.713   1.079  0.1327 -0.0938  0.8518
 9225SOL    HW132522   2.707   7.759   1.117  0.7270  0.0636 -0.4615
 9225SOL    HW232523   2.565   7.780   1.068  0.3532  0.0878  0.6062
 9226SOL     OW32524   1.994   7.503   0.572  0.2082 -0.0668 -0.1665
 9226SOL    HW132525   2.064   7.558   0.605 -0.2355  0.7342 -0.5365
 9226SOL    HW232526   1.942   7.561   0.516 -0.1289 -0.9198 -0.7584
 9227SOL     OW32527   3.089   3.123   3.962  0.1687  0.3793 -0.1641
 9227SOL    HW132528   3.109   3.084   3.877  1.4001  0.8620 -0.1207
 9227SOL    HW232529   3.105   3.053   4.025  2.0497  0.7876 -0.1151
 9228SOL     OW32530   9.458   5.685   3.569 -0.0286 -0.1732  0.6561
 9228SOL    HW132531   9.493   5.751   3.509  1.8228 -2.1025 -0.5340
 9228SOL    HW232532   9.487   5.602   3.533  0.3213 -1.5080  3.6920
 9229SOL     OW32533   5.040   4.870   4.098  0.2541 -0.0838 -0.2741
 9229SOL    HW132534   5.028   4.960   4.128  1.4616  0.1394 -0.4077
 9229SOL    HW232535   5.103   4.876   4.026  2.7178 -1.2695  1.5907
 9230SOL     OW32536   4.813   6.973   4.566  0.1613 -0.1350  0.3427
 9230SOL    HW132537   4.869   7.014   4.499  0.6321 -0.5685  0.4645
 9230SOL    HW232538   4.874   6.921   4.618  0.2466  2.0220  2.5910
 9231SOL     OW32539   2.167   6.067   1.979 -0.1548 -0.6575  0.1016
 9231SOL    HW132540   2.226   5.996   1.954 -0.8241 -2.9647  4.1950
 9231SOL    HW232541   2.088   6.053   1.928  0.5108 -1.4872 -0.7223
 9232SOL     OW32542   4.685   7.443   5.311  0.0235 -0.3570  0.0119
 9232SOL    HW132543   4.614   7.442   5.248  0.4411  0.6660 -0.4946
 9232SOL    HW232544   4.650   7.397   5.387 -2.0561  2.1117  0.7051
 9233SOL     OW32545   3.198   7.124   0.658  0.4917  0.0104 -0.0853
 9233SOL    HW132546   3.258   7.188   0.620 -1.4976  1.4877 -0.8907
 9233SOL    HW232547   3.138   7.101   0.587  0.6333 -2.1520  0.4270
 9234SOL     OW32548   3.686   6.210   3.232  0.2310  0.6522 -0.3546
 9234SOL    HW132549   3.609   6.216   3.289 -0.0231 -0.3010 -0.5729
 9234SOL    HW232550   3.758   6.242   3.286  0.0592 -0.5591  0.6598
 9235SOL     OW32551   2.866   6.609   2.592  0.4504  0.1906  0.1533
 9235SOL    HW132552   2.815   6.635   2.669  1.3549 -0.3638  0.9599
 9235SOL    HW232553   2.931   6.679   2.582 -0.0247  0.5571 -0.4727
 9236SOL     OW32554   3.360   5.010   4.703 -0.0828 -0.2788 -0.0744
 9236SOL    HW132555   3.295   4.944   4.727  0.8242 -0.7948  1.0903
 9236SOL    HW232556   3.398   4.978   4.621 -1.6409  0.3077 -1.0631
 9237SOL     OW32557   1.302   6.574   3.304 -0.0852  0.3821  0.2571
 9237SOL    HW132558   1.376   6.529   3.263 -0.0102  1.5765 -1.0297
 9237SOL    HW232559   1.229   6.512   3.298  0.2225  0.0936 -0.6803
 9238SOL     OW32560   2.504   3.742   1.852  0.3610  0.8191  0.3508
 9238SOL    HW132561   2.432   3.694   1.810  0.0293  0.7560  0.9894
 9238SOL    HW232562   2.461   3.797   1.917  0.8767  0.9068  0.6168
 9239SOL     OW32563   3.912   5.177   2.474  0.1321 -0.0478 -0.2296
 9239SOL    HW132564   3.835   5.120   2.471  1.2028 -1.5157 -0.4283
 9239SOL    HW232565   3.911   5.222   2.389  1.0343 -2.2033 -1.4728
 9240SOL     OW32566   2.874   4.140   2.019 -0.2255  0.8046 -0.2863
 9240SOL    HW132567   2.794   4.088   2.008  0.8186 -1.8127  2.8984
 9240SOL    HW232568   2.845   4.217   2.068 -0.8532 -0.1454  0.8912
 9241SOL     OW32569   6.114   5.559   1.297 -0.2117  0.0988 -0.5561
 9241SOL    HW132570   6.187   5.555   1.235 -0.5736 -1.4457 -0.9232
 9241SOL    HW232571   6.035   5.558   1.242 -0.5412 -1.5076 -0.1059
 9242SOL     OW32572   3.024   5.200   4.246 -0.0386 -0.1004  0.1205
 9242SOL    HW132573   2.931   5.178   4.234 -0.2416  1.1058 -0.6701
 9242SOL    HW232574   3.034   5.210   4.340 -1.0094  0.9440  0.1348
 9243SOL     OW32575   3.490   6.726   6.568 -0.3682  0.1476  0.4226
 9243SOL    HW132576   3.542   6.784   6.624  0.8261 -0.8208  0.3517
 9243SOL    HW232577   3.549   6.700   6.498 -0.5887 -1.8006  0.9083
 9244SOL     OW32578   3.120   7.280   6.232 -0.0670  0.2678  0.3469
 9244SOL    HW132579   3.115   7.187   6.253  0.1586  0.0897 -0.3548
 9244SOL    HW232580   3.130   7.282   6.137  2.1925  0.9228  0.5477
 9245SOL     OW32581   2.500   4.676   3.241  0.0370  0.7774 -0.5858
 9245SOL    HW132582   2.423   4.671   3.184 -0.3634 -2.1026  0.0608
 9245SOL    HW232583   2.464   4.678   3.330  0.6366 -1.1935 -0.2495
 9246SOL     OW32584   1.970   3.016   0.545 -0.0980 -0.2992  0.2038
 9246SOL    HW132585   2.038   2.959   0.580  0.7791  1.1698  0.9985
 9246SOL    HW232586   1.988   3.102   0.583 -2.1406  0.2461  0.0821
 9247SOL     OW32587   2.431   5.789   4.783 -0.1975  0.3086  0.2610
 9247SOL    HW132588   2.443   5.742   4.700 -0.3762  2.8133 -1.2978
 9247SOL    HW232589   2.452   5.880   4.761 -2.0596  1.3714  2.5235
 9248SOL     OW32590   3.437   5.589   3.199  0.0010  0.4047 -0.0423
 9248SOL    HW132591   3.362   5.641   3.170 -0.9506  0.1702  1.8223
 9248SOL    HW232592   3.398   5.510   3.237  1.1640  0.3003  1.0027
 9249SOL     OW32593   2.340   6.259   2.362 -0.4951  0.1822 -0.1827
 9249SOL    HW132594   2.325   6.175   2.405  0.4066 -0.1520 -0.5065
 9249SOL    HW232595   2.285   6.256   2.284 -1.2911  0.3456  0.3527
 9250SOL     OW32596   3.513   5.287   4.252 -0.7889  0.1093  0.6246
 9250SOL    HW132597   3.422   5.316   4.259 -0.7191  0.2634  0.9064
 9250SOL    HW232598   3.562   5.350   4.305 -0.3495  0.7978 -0.5590
 9251SOL     OW32599   3.023   4.375   4.654  0.6183 -0.0362  0.2413
 9251SOL    HW132600   3.117   4.356   4.651  0.4096 -0.9378 -1.1407
 9251SOL    HW232601   2.995   4.343   4.740  1.7989  1.4756  1.2443
 9252SOL     OW32602   3.669   6.520   4.730  0.1269 -0.0394 -0.3531
 9252SOL    HW132603   3.625   6.601   4.703 -2.7073 -1.5382 -0.6216
 9252SOL    HW232604   3.701   6.481   4.648 -0.3135 -0.1571 -0.4708
 9253SOL     OW32605   1.524   7.295   2.021  0.3780 -0.8440  0.3357
 9253SOL    HW132606   1.591   7.349   1.978  0.3559  0.8170  2.2512
 9253SOL    HW232607   1.446   7.306   1.967  0.5312  0.6190  0.3864
 9254SOL     OW32608   1.830   8.205   4.059 -0.9946 -0.2740  0.1434
 9254SOL    HW132609   1.847   8.299   4.051 -0.7483 -0.2829  0.5506
 9254SOL    HW232610   1.909   8.163   4.025 -2.0219 -0.3795 -2.2850
 9255SOL     OW32611   2.653   4.974   3.376  0.1731  0.1798 -0.2802
 9255SOL    HW132612   2.670   4.881   3.362 -0.9703  0.0919 -1.1899
 9255SOL    HW232613   2.593   4.977   3.451 -1.0069  0.0628 -1.1903
 9256SOL     OW32614   2.759   6.045   3.073  0.2551 -0.6248 -0.3920
 9256SOL    HW132615   2.722   6.131   3.052  0.8195 -0.2369  0.1650
 9256SOL    HW232616   2.782   6.008   2.988 -0.5077 -0.4657 -0.6767
 9257SOL     OW32617   1.844   8.348   3.744 -0.0408 -0.1278  0.3995
 9257SOL    HW132618   1.764   8.395   3.767 -0.0883  0.2023 -0.4015
 9257SOL    HW232619   1.904   8.365   3.816 -0.9484 -1.0203  1.4007
 9258SOL     OW32620   2.455   5.320   1.916  0.0951  0.0297 -0.3194
 9258SOL    HW132621   2.384   5.372   1.878  1.7263  1.7484 -1.1887
 9258SOL    HW232622   2.492   5.376   1.984  1.9079  0.0802 -1.2832
 9259SOL     OW32623   2.784   4.232   0.316  0.2724  0.6725 -0.1424
 9259SOL    HW132624   2.770   4.313   0.367 -2.4391  0.8302 -0.9856
 9259SOL    HW232625   2.811   4.168   0.381  1.9509  2.0926  0.6430
 9260SOL     OW32626   3.928   4.394   2.706  0.3032  0.5008 -0.4056
 9260SOL    HW132627   3.932   4.490   2.699  0.4273  0.5776  0.6420
 9260SOL    HW232628   3.836   4.376   2.724  0.3009  0.4313 -0.4889
 9261SOL     OW32629   2.132   8.352   3.757  0.1755  0.7757  0.1845
 9261SOL    HW132630   2.190   8.408   3.705  0.1320 -0.6063 -1.4491
 9261SOL    HW232631   2.059   8.333   3.698 -0.8779  0.7448  1.4690
 9262SOL     OW32632   0.885   6.491   2.480 -0.3492  0.1898 -0.2159
 9262SOL    HW132633   0.895   6.547   2.404 -2.6801  0.0369 -0.7304
 9262SOL    HW232634   0.812   6.530   2.529 -0.6427 -1.1838  0.4989
 9263SOL     OW32635   2.413   6.377   4.006  0.3357  0.1178 -0.0341
 9263SOL    HW132636   2.388   6.375   4.099  2.0801  1.9100  0.5318
 9263SOL    HW232637   2.472   6.303   3.995  4.0900  2.5268  1.6593
 9264SOL     OW32638   3.777   4.553   3.420 -0.1598 -0.4821 -0.1865
 9264SOL    HW132639   3.693   4.526   3.457 -0.2286  1.3804  1.1789
 9264SOL    HW232640   3.839   4.546   3.492  0.1693  1.1360 -0.2709
 9265SOL     OW32641   4.000   7.093   5.844  0.2644 -0.2010  0.6077
 9265SOL    HW132642   4.084   7.063   5.808  1.0606  2.4550 -0.0451
 9265SOL    HW232643   3.985   7.178   5.801 -2.3784 -0.2144  1.3171
 9266SOL     OW32644   3.586   7.368   4.329 -0.3044 -0.9700  0.5184
 9266SOL    HW132645   3.666   7.389   4.379 -0.1680  0.3182 -0.2041
 9266SOL    HW232646   3.606   7.396   4.240 -1.7204 -0.1910  0.4170
 9267SOL     OW32647   4.271   6.139   3.404  0.2544  0.3540  0.1246
 9267SOL    HW132648   4.267   6.227   3.367 -0.1353  0.3706  0.2027
 9267SOL    HW232649   4.360   6.109   3.385  0.0190  0.2938 -0.9852
 9268SOL     OW32650   2.418   7.371   1.749  0.3228 -0.2994 -0.2802
 9268SOL    HW132651   2.487   7.390   1.686  0.5067  0.5459  0.1630
 9268SOL    HW232652   2.449   7.295   1.798  1.5352  0.8394  0.7725
 9269SOL     OW32653   2.334   6.770   2.509 -0.1983  0.3249 -0.1773
 9269SOL    HW132654   2.300   6.687   2.476  3.3401 -1.4977  0.3471
 9269SOL    HW232655   2.425   6.773   2.478  0.8150  2.4107  2.6008
 9270SOL     OW32656   8.595   7.149   2.836 -0.1104  0.1899 -0.1941
 9270SOL    HW132657   8.619   7.089   2.907 -0.4403 -1.0526 -1.0984
 9270SOL    HW232658   8.647   7.227   2.852 -0.6068  0.1944  1.7639
 9271SOL     OW32659   2.852   7.455   4.496  0.1717  0.2210  0.2843
 9271SOL    HW132660   2.893   7.397   4.432  0.4840  0.2551  0.4502
 9271SOL    HW232661   2.906   7.535   4.494  0.4022  0.0809  0.8516
 9272SOL     OW32662   9.091   6.400   4.108 -0.2705  0.2722 -0.4418
 9272SOL    HW132663   9.084   6.375   4.200 -0.1911 -0.0630 -0.5252
 9272SOL    HW232664   9.102   6.495   4.110 -0.9991  0.3575 -0.1361
 9273SOL     OW32665   3.103   0.545   2.703  1.0138  0.1099 -0.4554
 9273SOL    HW132666   3.120   0.624   2.651  0.9544 -0.6240 -1.6075
 9273SOL    HW232667   3.153   0.476   2.660 -0.6318 -0.9424 -0.7577
 9274SOL     OW32668   3.094   0.160   2.457 -0.1301  0.1669 -0.6592
 9274SOL    HW132669   3.181   0.196   2.475  0.4684 -1.1246 -0.8752
 9274SOL    HW232670   3.052   0.226   2.403  0.8280  0.6806 -0.8005
 9275SOL     OW32671   4.618   6.353   3.493  0.5443 -0.6730 -0.0428
 9275SOL    HW132672   4.680   6.426   3.501 -0.0503 -0.1977  0.3161
 9275SOL    HW232673   4.533   6.395   3.480  0.4011 -1.3351 -1.4206
 9276SOL     OW32674   2.565   8.968   1.889 -0.0312 -0.2558 -0.5132
 9276SOL    HW132675   2.627   9.025   1.845  2.3580 -0.3879  2.4024
 9276SOL    HW232676   2.529   9.021   1.961  0.4895 -1.6471  0.8370
 9277SOL     OW32677   4.047   7.097   5.200  0.2709 -0.1632  0.3001
 9277SOL    HW132678   4.030   7.069   5.290 -0.1903  0.6608  0.4834
 9277SOL    HW232679   4.114   7.165   5.208  0.2859 -0.1439  0.0175
 9278SOL     OW32680   3.003   5.603   2.176 -0.4045 -0.8896 -0.7367
 9278SOL    HW132681   2.921   5.597   2.225 -1.1509 -2.3712 -2.0953
 9278SOL    HW232682   3.070   5.576   2.238 -1.2615 -2.1776 -0.3359
 9279SOL     OW32683   1.974   4.474   4.600  0.0135 -0.0509  0.0494
 9279SOL    HW132684   1.949   4.497   4.690 -0.3563 -0.2282 -0.0055
 9279SOL    HW232685   1.977   4.379   4.600  0.8778 -0.0260  0.0994
 9280SOL     OW32686   1.268   6.458   1.831  0.5123 -0.0863 -0.2684
 9280SOL    HW132687   1.289   6.374   1.792 -2.2282 -0.4789 -1.1635
 9280SOL    HW232688   1.210   6.436   1.904 -0.7995  0.9823 -0.9319
 9281SOL     OW32689   1.408   6.394   4.457  0.1564 -0.4687  0.5327
 9281SOL    HW132690   1.392   6.417   4.366  1.9432 -1.0677  0.0240
 9281SOL    HW232691   1.461   6.466   4.492  1.9596 -1.5625  0.2108
 9282SOL     OW32692   5.466   6.160   3.600 -0.2862 -0.1110  0.1449
 9282SOL    HW132693   5.556   6.167   3.632 -0.1973 -2.2133  0.4824
 9282SOL    HW232694   5.475   6.156   3.504 -0.2191  1.7342  0.0386
 9283SOL     OW32695   5.607   7.038   4.210 -0.1475  0.7691 -0.3359
 9283SOL    HW132696   5.694   7.053   4.248  0.2610  1.0096 -1.3299
 9283SOL    HW232697   5.556   7.115   4.235  0.4424  1.4443 -1.1765
 9284SOL     OW32698   2.404   6.349   9.472  0.4621 -0.2714 -0.3355
 9284SOL    HW132699   2.395   6.257   9.446  0.4884 -1.1795  2.5629
 9284SOL    HW232700   2.316   6.385   9.463  0.5943 -0.2886 -2.2218
 9285SOL     OW32701   2.223   7.680   0.583  0.2707 -0.8918  0.0120
 9285SOL    HW132702   2.198   7.763   0.543  0.1840 -1.2711 -0.7303
 9285SOL    HW232703   2.199   7.690   0.676 -2.3060 -1.0883 -0.5656
 9286SOL     OW32704   3.238   7.345   2.493  0.5505 -0.0892  0.2254
 9286SOL    HW132705   3.261   7.428   2.535  1.8887 -1.0051  1.4253
 9286SOL    HW232706   3.265   7.357   2.401  0.2400  0.9606  0.2531
 9287SOL     OW32707   2.430   4.459   5.044 -0.1234  0.2437  0.0756
 9287SOL    HW132708   2.346   4.502   5.057 -0.3396 -0.0440 -0.3480
 9287SOL    HW232709   2.439   4.399   5.118 -0.9690 -0.7955 -0.6372
 9288SOL     OW32710   2.552   6.390   0.240  0.2956 -0.4160  0.6578
 9288SOL    HW132711   2.481   6.327   0.228 -2.2576  2.1121  1.4570
 9288SOL    HW232712   2.606   6.351   0.309 -1.0112 -1.8874  0.9090
 9289SOL     OW32713   1.547   7.091   3.420  0.3907  0.2596 -0.1689
 9289SOL    HW132714   1.608   7.048   3.481 -0.3917 -1.3818 -0.4652
 9289SOL    HW232715   1.490   7.143   3.477  0.9546  0.3754  0.2974
 9290SOL     OW32716   2.287   2.912   5.688 -0.2236 -0.0661 -0.5291
 9290SOL    HW132717   2.242   2.972   5.748 -0.0033 -1.1691  0.7977
 9290SOL    HW232718   2.254   2.936   5.601 -0.2575  1.8435 -0.0390
 9291SOL     OW32719   9.605   5.931   4.767 -0.3389  0.0469  0.3346
 9291SOL    HW132720   9.631   5.947   4.676 -0.4885 -2.1994 -0.1674
 9291SOL    HW232721   9.626   6.012   4.813 -1.2882  1.6646 -1.8950
 9292SOL     OW32722   1.131   5.292   4.015  0.1885  0.1393 -0.2038
 9292SOL    HW132723   1.039   5.275   4.033 -0.0802  0.0281 -1.6098
 9292SOL    HW232724   1.131   5.358   3.946  1.2048  2.8725  2.2017
 9293SOL     OW32725   7.606   2.674   1.618 -0.0199  0.0313 -0.0646
 9293SOL    HW132726   7.644   2.700   1.701 -1.2557 -1.2923  0.9729
 9293SOL    HW232727   7.511   2.685   1.630 -0.4604 -2.6674 -0.2986
 9294SOL     OW32728   1.130   5.487   1.119  0.4167  0.2730  0.4603
 9294SOL    HW132729   1.149   5.575   1.152  1.8446 -0.1542  0.8575
 9294SOL    HW232730   1.114   5.435   1.197 -1.3534  0.3590  0.1813
 9295SOL     OW32731   1.576   5.122   2.355  0.5267  0.0742  0.2699
 9295SOL    HW132732   1.644   5.055   2.357 -0.8105 -1.3255  0.7076
 9295SOL    HW232733   1.494   5.073   2.346 -0.4116  1.7197 -0.5935
 9296SOL     OW32734   2.726   5.232   2.220  0.1275 -0.2061  0.2973
 9296SOL    HW132735   2.688   5.318   2.203 -0.1291 -0.4372 -0.3390
 9296SOL    HW232736   2.696   5.209   2.308 -0.6434 -0.0927  0.0651
 9297SOL     OW32737   5.045   7.098   5.964  0.1229 -0.0327 -0.1598
 9297SOL    HW132738   4.980   7.031   5.943 -1.4236  1.1427  0.6919
 9297SOL    HW232739   5.066   7.082   6.056  0.6631 -0.0679 -0.2828
 9298SOL     OW32740   3.058   4.683   2.034 -0.3672 -0.1236  0.1135
 9298SOL    HW132741   3.053   4.608   1.975 -1.2024 -1.1086  1.3631
 9298SOL    HW232742   2.968   4.696   2.064 -0.2871  1.5908 -0.2996
 9299SOL     OW32743   3.799   5.853   4.045 -0.1288 -0.5705  0.0698
 9299SOL    HW132744   3.837   5.768   4.023 -0.2522 -0.5951 -0.0525
 9299SOL    HW232745   3.837   5.914   3.982  0.9354 -0.2951  0.9563
 9300SOL     OW32746   0.944   0.727   2.821 -0.3478 -0.0695  0.0496
 9300SOL    HW132747   0.945   0.796   2.755 -1.2609  0.7998  0.9049
 9300SOL    HW232748   0.854   0.696   2.822 -0.3895  0.0346  0.9691
 9301SOL     OW32749   3.285   6.447   2.467 -0.0108 -0.9054 -0.9716
 9301SOL    HW132750   3.363   6.489   2.431  0.7832 -1.4815  0.0518
 9301SOL    HW232751   3.315   6.403   2.546 -1.4197 -0.9413 -0.4262
 9302SOL     OW32752   3.419   6.692   1.919  0.1669 -0.6221 -0.3723
 9302SOL    HW132753   3.325   6.709   1.930  0.2903 -0.8820  1.2804
 9302SOL    HW232754   3.428   6.599   1.936  0.7818 -0.5369 -0.2348
 9303SOL     OW32755   1.846   6.209   3.785 -0.0232 -0.0858 -0.1427
 9303SOL    HW132756   1.929   6.255   3.797 -0.0643  0.0559 -0.3896
 9303SOL    HW232757   1.841   6.193   3.691  0.2055 -1.0071 -0.0154
 9304SOL     OW32758   3.721   2.279   2.797 -0.3123  0.6105  0.1514
 9304SOL    HW132759   3.741   2.253   2.887 -0.4392  2.1917  0.6621
 9304SOL    HW232760   3.747   2.371   2.792  1.4968  0.0773 -1.9994
 9305SOL     OW32761   3.703   6.639   3.462  0.2930  0.3613  0.3733
 9305SOL    HW132762   3.779   6.620   3.518  1.0535  0.2645 -0.6647
 9305SOL    HW232763   3.673   6.725   3.490  0.6367  0.2976  0.9488
 9306SOL     OW32764   2.535   5.594   1.220 -0.2867 -0.4734 -0.0571
 9306SOL    HW132765   2.611   5.636   1.260 -2.1487  2.0823  1.0438
 9306SOL    HW232766   2.493   5.547   1.291 -3.1073  3.3537  1.1400
 9307SOL     OW32767   1.126   6.183   4.495  0.0120 -0.7381 -0.2961
 9307SOL    HW132768   1.176   6.213   4.571  1.2660  0.4413 -1.5141
 9307SOL    HW232769   1.090   6.098   4.521 -1.1492  0.4148  2.2516
 9308SOL     OW32770   1.399   6.050   5.042  0.1486  0.4137 -0.1117
 9308SOL    HW132771   1.313   6.066   5.003  0.5580  0.3354 -1.0732
 9308SOL    HW232772   1.383   5.984   5.110 -0.3807 -0.4534 -1.0433
 9309SOL     OW32773   2.831   7.592   5.244  0.3897 -0.0398  0.0380
 9309SOL    HW132774   2.827   7.672   5.297 -2.5354 -0.1371  0.1334
 9309SOL    HW232775   2.873   7.620   5.163  2.9037  0.6301  1.4471
 9310SOL     OW32776   2.683   7.345   5.269  0.0035  0.1283 -0.0055
 9310SOL    HW132777   2.769   7.378   5.245  0.6815 -1.6490 -0.1920
 9310SOL    HW232778   2.628   7.423   5.275  1.5002  1.2581 -0.3441
 9311SOL     OW32779   0.288   6.484   2.963  0.7900 -0.3843 -0.0171
 9311SOL    HW132780   0.202   6.450   2.939  0.3385  0.1424  0.7940
 9311SOL    HW232781   0.337   6.486   2.881 -0.6269  1.1379 -0.8794
 9312SOL     OW32782   1.085   9.664   4.347  0.3509 -0.0358  0.5318
 9312SOL    HW132783   1.153   9.723   4.377  2.8816 -1.1509 -2.4580
 9312SOL    HW232784   1.025   9.719   4.297  0.8440  0.4645  0.4927
 9313SOL     OW32785   0.312   4.321   3.756 -0.1939  0.0328 -0.1083
 9313SOL    HW132786   0.362   4.256   3.707  0.5586  0.6770 -0.2073
 9313SOL    HW232787   0.372   4.352   3.824 -0.8160  0.0486  0.4459
 9314SOL     OW32788   2.863   5.907   2.125  0.4242 -0.0219 -0.1474
 9314SOL    HW132789   2.838   5.818   2.149 -1.6042  0.8104  1.0527
 9314SOL    HW232790   2.893   5.947   2.206  0.6471  0.6101 -0.5326
 9315SOL     OW32791   2.287   6.158   2.796 -0.4200  0.0279 -0.2712
 9315SOL    HW132792   2.359   6.220   2.804  0.6809 -1.3864  1.8665
 9315SOL    HW232793   2.210   6.206   2.827  0.2200  0.6367  0.4286
 9316SOL     OW32794   2.851   4.928   3.095 -0.5384 -0.3074  0.2225
 9316SOL    HW132795   2.861   5.019   3.069 -0.1749 -0.3326  0.2774
 9316SOL    HW232796   2.881   4.878   3.019 -0.0239 -0.3809  0.4721
 9317SOL     OW32797   3.842   6.714   4.028  0.0259 -0.2323  0.1581
 9317SOL    HW132798   3.872   6.793   3.983  0.4189 -1.6300 -2.1885
 9317SOL    HW232799   3.923   6.665   4.046 -0.2041 -0.0997  1.6800
 9318SOL     OW32800   3.253   6.895   1.423  0.2267 -0.2260 -0.1840
 9318SOL    HW132801   3.347   6.912   1.419  0.3567 -1.0514 -0.9062
 9318SOL    HW232802   3.240   6.817   1.369 -0.8866 -0.0827 -0.1506
 9319SOL     OW32803   3.485   2.174   1.964  0.1373  0.1954  0.3651
 9319SOL    HW132804   3.394   2.173   1.995  0.4732 -0.2580  1.3646
 9319SOL    HW232805   3.497   2.089   1.922  0.6246 -0.5196  1.8700
 9320SOL     OW32806   4.146   4.887   3.768 -0.3132  0.1758 -0.2849
 9320SOL    HW132807   4.078   4.953   3.780 -0.1958  0.7491 -2.4071
 9320SOL    HW232808   4.147   4.870   3.674  1.2573 -1.1456 -0.0761
 9321SOL     OW32809   1.879   7.494   3.030  0.1837  0.1315  0.1479
 9321SOL    HW132810   1.933   7.533   2.960  1.6237 -1.3506  0.3685
 9321SOL    HW232811   1.792   7.531   3.016  0.5019  0.1908 -2.2017
 9322SOL     OW32812   0.911   7.719   2.619  0.2492 -0.0162 -0.2763
 9322SOL    HW132813   1.002   7.707   2.590 -0.8674 -1.5274 -3.7959
 9322SOL    HW232814   0.880   7.630   2.636 -1.3716  0.0827 -2.3077
 9323SOL     OW32815   6.333   5.268   2.744  0.0371  0.0192 -0.4516
 9323SOL    HW132816   6.307   5.192   2.691 -2.2659 -0.9698  1.8702
 9323SOL    HW232817   6.420   5.246   2.776 -0.1637 -1.1668 -0.6645
 9324SOL     OW32818   1.945   4.651   4.791 -0.3302  0.0440  0.3264
 9324SOL    HW132819   1.864   4.643   4.841  0.2684  0.3181  1.3826
 9324SOL    HW232820   2.010   4.604   4.845  0.0284 -0.9955 -0.9542
 9325SOL     OW32821   4.679   7.199   3.493 -0.6669  0.4339  0.6566
 9325SOL    HW132822   4.586   7.180   3.506 -0.4750 -1.0983 -0.0234
 9325SOL    HW232823   4.679   7.270   3.428 -1.3615 -1.5505 -1.6422
 9326SOL     OW32824   3.589   7.144   2.379 -0.0314  0.3746 -0.5617
 9326SOL    HW132825   3.541   7.085   2.437  1.0619 -1.3821 -1.3625
 9326SOL    HW232826   3.601   7.224   2.431 -1.2770 -0.2007  0.6818
 9327SOL     OW32827   2.480   6.868   5.184 -0.1709  0.2188 -0.2353
 9327SOL    HW132828   2.562   6.914   5.207 -0.8936  0.8802  1.1257
 9327SOL    HW232829   2.473   6.799   5.249 -1.4423  1.1104  0.6131
 9328SOL     OW32830   1.730   5.783   5.150  0.4510 -0.2068  0.1311
 9328SOL    HW132831   1.809   5.803   5.200 -0.1447  1.5394  0.4263
 9328SOL    HW232832   1.673   5.739   5.214  1.4193 -2.1999 -0.2862
 9329SOL     OW32833   3.091   6.818   2.623  0.2564  0.5706  0.4157
 9329SOL    HW132834   3.115   6.865   2.544  1.2969  2.9827  2.0429
 9329SOL    HW232835   3.028   6.876   2.667 -0.4027 -0.7769  1.3089
 9330SOL     OW32836   3.829   7.266   3.125 -0.2185  0.1539 -0.1746
 9330SOL    HW132837   3.902   7.288   3.183 -1.1625 -0.5804  1.3378
 9330SOL    HW232838   3.843   7.322   3.049  2.7397 -0.9896 -0.6286
 9331SOL     OW32839   4.293   5.056   3.979  0.2648  0.0581  0.3563
 9331SOL    HW132840   4.232   5.007   3.924  0.5948 -0.1973  0.2182
 9331SOL    HW232841   4.277   5.023   4.068 -0.2032  0.4053  0.4042
 9332SOL     OW32842   2.072   4.486   4.241  0.4739 -0.4234  0.7733
 9332SOL    HW132843   1.988   4.441   4.233  1.5194 -2.4605  0.4092
 9332SOL    HW232844   2.132   4.433   4.189  1.5676  2.2006 -0.8255
 9333SOL     OW32845   1.523   6.045   5.436  0.2738  0.5652  0.2364
 9333SOL    HW132846   1.455   6.014   5.377  1.0745  0.8008 -0.8391
 9333SOL    HW232847   1.544   6.133   5.406  1.0038  0.5248  0.5882
 9334SOL     OW32848   2.103   7.090   3.665  0.1468  0.4632 -0.3168
 9334SOL    HW132849   2.089   7.128   3.578  0.0672  0.5213 -0.2795
 9334SOL    HW232850   2.121   7.165   3.721 -0.3964  0.4914 -0.1661
 9335SOL     OW32851   1.907   6.085   5.372 -0.4669  0.3091  0.0098
 9335SOL    HW132852   1.940   6.149   5.309 -0.2222 -1.1777 -1.4565
 9335SOL    HW232853   1.978   6.021   5.381 -1.4916 -0.9079 -0.2751
 9336SOL     OW32854   1.220   7.540   4.203  0.0200 -0.4203  0.6645
 9336SOL    HW132855   1.253   7.594   4.274 -0.7281 -0.6210  1.1810
 9336SOL    HW232856   1.157   7.481   4.245  0.7644 -1.6423  0.1008
 9337SOL     OW32857   5.075   8.156   5.905  0.0122 -0.3701  0.9931
 9337SOL    HW132858   5.145   8.119   5.960 -0.1735 -2.4161 -0.0493
 9337SOL    HW232859   5.034   8.080   5.865 -1.8686  0.8932  0.4111
 9338SOL     OW32860   1.961   9.061   3.839 -0.2545  0.1326  0.8346
 9338SOL    HW132861   2.034   9.113   3.873 -0.4704  1.5876 -0.8051
 9338SOL    HW232862   1.928   9.111   3.765 -2.1128 -1.1404  0.7364
 9339SOL     OW32863   2.435   5.182   4.097  0.0723  0.2489 -0.0144
 9339SOL    HW132864   2.339   5.184   4.099  0.0773  2.2670  1.7760
 9339SOL    HW232865   2.459   5.118   4.163 -0.0647  0.6605  0.4427
 9340SOL     OW32866   0.155   9.422   4.247 -0.2424  0.2772  0.4540
 9340SOL    HW132867   0.196   9.500   4.282 -0.8678  0.3941  0.9252
 9340SOL    HW232868   0.169   9.355   4.313 -1.3853  0.4875  0.9281
 9341SOL     OW32869   2.816   5.324   5.860 -0.5984 -0.5498  0.2122
 9341SOL    HW132870   2.827   5.411   5.821 -1.2669 -0.6590 -0.2267
 9341SOL    HW232871   2.787   5.341   5.950 -0.3031 -0.3155  0.2640
 9342SOL     OW32872   1.530   8.309   4.413  0.1746  0.1915  0.1821
 9342SOL    HW132873   1.546   8.266   4.497 -0.6809 -0.2177  0.1429
 9342SOL    HW232874   1.456   8.367   4.430  0.9323  1.2146  0.0783
 9343SOL     OW32875   4.604   6.408   2.182 -0.4702 -0.1483 -0.7882
 9343SOL    HW132876   4.546   6.480   2.206  0.0606  1.5401 -3.9095
 9343SOL    HW232877   4.569   6.375   2.099  1.5645 -0.7068 -1.5062
 9344SOL     OW32878   1.154   6.345   3.396  0.2748  0.1029 -0.0003
 9344SOL    HW132879   1.184   6.423   3.442 -0.1631  1.3945 -1.8097
 9344SOL    HW232880   1.098   6.300   3.459  0.3601  1.3511  0.9987
 9345SOL     OW32881   2.696   6.334   3.091  0.0287  0.0408 -0.0725
 9345SOL    HW132882   2.731   6.399   3.029  2.8282 -2.8082 -1.8246
 9345SOL    HW232883   2.616   6.301   3.049 -0.6156  1.3145  0.1288
 9346SOL     OW32884   4.339   1.193   5.371  0.0584  0.2465 -0.0635
 9346SOL    HW132885   4.426   1.213   5.336  1.2226  0.6467  2.8110
 9346SOL    HW232886   4.353   1.181   5.465 -3.3361  2.6101  0.9075
 9347SOL     OW32887   2.630   6.528   3.911 -0.3680  0.2804  0.2957
 9347SOL    HW132888   2.559   6.464   3.924  0.8082 -1.6892 -2.0127
 9347SOL    HW232889   2.686   6.518   3.988 -0.3308 -1.4111  0.0990
 9348SOL     OW32890   4.352   8.441   0.611 -0.0087 -0.1797 -0.0382
 9348SOL    HW132891   4.329   8.349   0.626 -1.3220  0.0089 -0.7112
 9348SOL    HW232892   4.294   8.489   0.670  0.7654  0.2309  0.4061
 9349SOL     OW32893   2.111   7.707   2.402  0.7049  0.2489  0.5507
 9349SOL    HW132894   2.076   7.621   2.425  2.9628 -1.3473 -1.4510
 9349SOL    HW232895   2.159   7.735   2.481 -1.0522  0.3036  1.6470
 9350SOL     OW32896   3.264   8.380   1.443 -0.0630 -0.1681  0.3288
 9350SOL    HW132897   3.209   8.341   1.511 -1.6842  0.8912 -0.3027
 9350SOL    HW232898   3.205   8.441   1.397  1.4092  0.3210 -0.9930
 9351SOL     OW32899   2.133   7.649   3.389 -0.0469 -0.1967  0.4065
 9351SOL    HW132900   2.212   7.599   3.368 -0.5237 -0.5653 -0.5781
 9351SOL    HW232901   2.157   7.740   3.372  0.6159 -0.1334  1.5548
 9352SOL     OW32902   2.839   8.435   5.608 -0.0930 -0.9941  0.3452
 9352SOL    HW132903   2.749   8.403   5.609 -0.4250 -0.1746 -0.8038
 9352SOL    HW232904   2.831   8.528   5.583  1.0845 -1.0226 -0.1985
 9353SOL     OW32905   0.184   5.906   5.282 -0.1301 -0.1356  0.2225
 9353SOL    HW132906   0.246   5.858   5.228  0.3609 -0.1969  0.8335
 9353SOL    HW232907   0.227   5.914   5.367 -0.6817  0.3975  0.4585
 9354SOL     OW32908   2.059   9.503   5.307  0.0534  0.2303  0.4156
 9354SOL    HW132909   1.971   9.491   5.343 -0.0371 -0.5642 -0.0385
 9354SOL    HW232910   2.096   9.415   5.303 -0.2536  0.1348 -2.1313
 9355SOL     OW32911   1.694   6.327   6.878 -0.4928 -0.2537  0.3744
 9355SOL    HW132912   1.682   6.419   6.853 -0.5946 -0.5823 -0.8336
 9355SOL    HW232913   1.730   6.286   6.800 -0.6263 -1.2869  0.8483
 9356SOL     OW32914   4.178   4.783   3.460  0.1919  0.2179  0.2500
 9356SOL    HW132915   4.185   4.694   3.426  0.5748  0.5823 -0.6565
 9356SOL    HW232916   4.107   4.823   3.409 -0.0773  0.3853  0.7534
 9357SOL     OW32917   5.672   5.205   0.579 -0.3884  0.4056 -0.4702
 9357SOL    HW132918   5.665   5.119   0.621 -0.6033  2.0849  3.3231
 9357SOL    HW232919   5.594   5.252   0.608 -0.7039  1.7499 -3.1352
 9358SOL     OW32920   1.500   8.314   5.590  0.0665 -0.2706  0.2433
 9358SOL    HW132921   1.567   8.257   5.626  0.4424  0.2191  0.3204
 9358SOL    HW232922   1.499   8.294   5.496  2.6294  2.0071 -0.3931
 9359SOL     OW32923   1.913   7.372   4.984 -0.0746  0.1240  0.6238
 9359SOL    HW132924   1.817   7.372   4.991 -0.1357  1.6046  0.1829
 9359SOL    HW232925   1.941   7.443   5.041  0.7292  0.0190  0.3688
 9360SOL     OW32926   2.944   2.047   5.375 -0.9327 -0.2968 -0.2211
 9360SOL    HW132927   2.852   2.054   5.402 -0.6308  1.3814  0.4819
 9360SOL    HW232928   2.967   1.956   5.393 -2.5285 -0.8342 -0.6828
 9361SOL     OW32929   1.272   8.661   4.196  0.1804 -0.2028  0.0040
 9361SOL    HW132930   1.194   8.693   4.242  0.3587  0.2823 -0.0199
 9361SOL    HW232931   1.247   8.661   4.104 -0.4509 -1.9592  0.1495
 9362SOL     OW32932   0.640   6.635   3.907  0.4138  0.5091  0.1467
 9362SOL    HW132933   0.568   6.695   3.889  1.2360  1.1879 -0.9363
 9362SOL    HW232934   0.649   6.582   3.828 -0.1819 -0.9544  1.0155
 9363SOL     OW32935   1.407   4.687   3.545 -0.6294  0.3030 -0.7471
 9363SOL    HW132936   1.413   4.605   3.496 -0.1061  0.7180 -1.4042
 9363SOL    HW232937   1.463   4.748   3.496 -0.0601  0.7317  0.3934
 9364SOL     OW32938   2.455   5.454   3.240 -0.2164  0.2947  0.1239
 9364SOL    HW132939   2.389   5.410   3.294  0.6245 -1.7107 -0.3662
 9364SOL    HW232940   2.408   5.477   3.159 -0.4287 -0.7993 -0.0814
 9365SOL     OW32941   1.578   6.579   4.659 -0.1172  0.7207 -0.1077
 9365SOL    HW132942   1.586   6.638   4.584 -0.6736  1.8359  0.6806
 9365SOL    HW232943   1.657   6.596   4.711 -0.1911  0.6434  0.0297
 9366SOL     OW32944   4.395   4.344   4.063  0.0069 -0.3718  0.1117
 9366SOL    HW132945   4.433   4.380   3.982 -1.4205  1.2945  0.1230
 9366SOL    HW232946   4.460   4.281   4.094  1.1983 -0.0720 -1.6250
 9367SOL     OW32947   3.410   6.686   3.756  0.0508 -0.1956 -0.5531
 9367SOL    HW132948   3.476   6.754   3.739 -0.3374  0.0328 -1.1740
 9367SOL    HW232949   3.327   6.725   3.728 -0.2782 -0.6697 -0.2540
 9368SOL     OW32950   2.510   6.162   5.313  0.0094  0.3077 -0.5207
 9368SOL    HW132951   2.435   6.212   5.346 -0.1132 -0.5677  0.6165
 9368SOL    HW232952   2.485   6.137   5.224 -1.3538 -0.5044  0.0435
 9369SOL     OW32953   3.696   5.676   3.600 -0.4804  0.3898  0.0096
 9369SOL    HW132954   3.660   5.618   3.533 -2.5319  2.1976 -0.5682
 9369SOL    HW232955   3.664   5.640   3.682 -0.1296 -0.3659 -0.1740
 9370SOL     OW32956   2.920   7.748   5.448 -0.5441 -0.0469 -0.5847
 9370SOL    HW132957   3.003   7.739   5.403 -1.0431 -2.0384 -1.2123
 9370SOL    HW232958   2.917   7.674   5.508 -2.0766 -0.3364 -0.9662
 9371SOL     OW32959   5.149   5.471   3.033  0.2208 -0.6182  0.1512
 9371SOL    HW132960   5.197   5.496   2.953  3.3122 -2.2573  1.3051
 9371SOL    HW232961   5.123   5.554   3.072 -0.5114  0.2558 -2.0174
 9372SOL     OW32962   2.708   7.254   6.136 -0.2628 -0.0503 -0.2939
 9372SOL    HW132963   2.615   7.240   6.153 -0.7632  1.8696 -1.2645
 9372SOL    HW232964   2.750   7.242   6.222 -1.0720 -2.9297 -0.1889
 9373SOL     OW32965   2.603   8.350   2.366 -0.4692 -0.3705  0.0498
 9373SOL    HW132966   2.606   8.366   2.460  0.1520 -0.2544  0.0111
 9373SOL    HW232967   2.579   8.435   2.328  0.3984 -0.1369  0.0223
 9374SOL     OW32968   3.013   4.113   3.193 -0.8141 -0.3418 -0.0917
 9374SOL    HW132969   2.963   4.193   3.205  0.7173  0.4643  1.2832
 9374SOL    HW232970   3.027   4.108   3.099 -2.0407  0.2811 -0.3325
 9375SOL     OW32971   3.959   7.094   2.687 -1.0113 -0.0973  0.3877
 9375SOL    HW132972   3.953   7.008   2.644  0.7720 -0.2857  0.4357
 9375SOL    HW232973   3.964   7.074   2.780  0.3317 -0.0315  0.3507
 9376SOL     OW32974   2.573   8.387   4.308  0.3975 -0.1885 -0.3515
 9376SOL    HW132975   2.560   8.361   4.216  1.0004  0.8573 -0.7414
 9376SOL    HW232976   2.486   8.379   4.347  0.1227 -0.5898 -1.0278
 9377SOL     OW32977   4.680   6.833   6.587  0.0308 -0.7347 -0.3126
 9377SOL    HW132978   4.765   6.873   6.571 -0.6993  0.0053 -2.6557
 9377SOL    HW232979   4.622   6.871   6.521 -1.5012 -3.2219 -0.5192
 9378SOL     OW32980   4.159   7.243   3.884 -0.5887 -0.4722  0.2075
 9378SOL    HW132981   4.125   7.268   3.970 -0.3537 -0.6531  0.3533
 9378SOL    HW232982   4.087   7.260   3.824 -1.2922 -1.8119  0.6491
 9379SOL     OW32983   2.550   7.512   4.663  0.3537 -0.3309  0.0994
 9379SOL    HW132984   2.504   7.581   4.615 -1.0152  0.1705  1.9940
 9379SOL    HW232985   2.503   7.506   4.746  0.6050 -3.3662  0.1278
 9380SOL     OW32986   4.275   9.383   4.742  0.2697  0.4151  0.6783
 9380SOL    HW132987   4.297   9.476   4.738  0.2254  0.5056  2.0751
 9380SOL    HW232988   4.323   9.350   4.818 -1.9632 -0.0382  2.0071
 9381SOL     OW32989   2.510   8.073   4.300 -0.6332  0.7799  0.4673
 9381SOL    HW132990   2.492   8.077   4.206  0.1867  0.0080  0.2609
 9381SOL    HW232991   2.589   8.127   4.311  0.2986 -0.5208  0.4120
 9382SOL     OW32992   0.883   5.908   3.816 -0.4281 -0.3428  0.1462
 9382SOL    HW132993   0.792   5.926   3.793  0.0661  2.5784  0.0257
 9382SOL    HW232994   0.913   5.843   3.752 -1.3982  1.4977 -2.3376
 9383SOL     OW32995   1.888   6.547   2.717  0.0396 -0.5252  0.1612
 9383SOL    HW132996   1.958   6.606   2.689 -1.3898  0.3833 -1.7200
 9383SOL    HW232997   1.886   6.557   2.813  1.7996  0.1507  0.1716
 9384SOL     OW32998   3.247   6.030   2.813  0.2152 -0.1828  0.3595
 9384SOL    HW132999   3.252   5.934   2.814  1.2672 -0.1375  1.8148
 9384SOL    HW233000   3.183   6.052   2.880 -1.1668  0.1217 -1.0024
 9385SOL     OW33001   0.641   9.514   3.280  0.1305  0.4400  0.4216
 9385SOL    HW133002   0.575   9.454   3.313 -0.3850  0.4615 -0.5305
 9385SOL    HW233003   0.695   9.536   3.357  0.0932 -0.9187  0.8582
 9386SOL     OW33004   4.844   7.035   4.093 -0.0574  0.6371  0.5486
 9386SOL    HW133005   4.814   6.946   4.106  0.3377  0.6100  1.3950
 9386SOL    HW233006   4.831   7.052   4.000 -0.1375 -0.2995  0.3783
 9387SOL     OW33007   5.918   6.367   4.459 -0.4253  0.2862  0.3887
 9387SOL    HW133008   5.845   6.350   4.400  0.4874  0.1492 -0.7554
 9387SOL    HW233009   5.896   6.449   4.503 -0.4610  1.2271 -1.3000
 9388SOL     OW33010   1.814   6.111   3.556  0.0596  0.7825  0.1391
 9388SOL    HW133011   1.819   6.016   3.567 -1.2959  0.7976  1.0195
 9388SOL    HW233012   1.834   6.125   3.463 -1.1579 -0.4978 -0.3572
 9389SOL     OW33013   9.789   7.742   5.857  0.0843 -0.2803 -0.3476
 9389SOL    HW133014   9.726   7.812   5.867  0.2254 -0.3546  1.2095
 9389SOL    HW233015   9.769   7.703   5.771 -1.1623  0.4769 -0.4076
 9390SOL     OW33016   2.761   4.231   4.650  0.1748 -0.0599  0.4016
 9390SOL    HW133017   2.789   4.321   4.631 -1.0200  0.1582 -0.4619
 9390SOL    HW233018   2.683   4.218   4.596  1.2470 -2.1908 -0.7733
 9391SOL     OW33019   3.182   3.780   3.162  0.3675  0.5183  0.1633
 9391SOL    HW133020   3.169   3.694   3.202  0.7935  0.6182  0.5179
 9391SOL    HW233021   3.268   3.775   3.121 -0.0852  0.3940 -0.8203
 9392SOL     OW33022   2.321   5.912   3.991 -0.1043 -0.2287 -0.2899
 9392SOL    HW133023   2.249   5.873   3.942  0.5241 -0.9426 -0.6525
 9392SOL    HW233024   2.280   5.982   4.042 -1.9139 -3.2610  2.8672
 9393SOL     OW33025   2.730   7.084   5.240 -0.6144 -0.1944  0.3991
 9393SOL    HW133026   2.713   7.178   5.227 -0.0843 -0.1175  0.2395
 9393SOL    HW233027   2.804   7.065   5.182 -0.7930 -0.7386  0.3456
 9394SOL     OW33028   4.382   8.633   4.857  0.1046 -0.3478 -0.1480
 9394SOL    HW133029   4.319   8.573   4.817  0.0141 -2.4011  2.7612
 9394SOL    HW233030   4.466   8.588   4.852  1.1227  1.5521 -2.2926
 9395SOL     OW33031   3.110   6.932   4.600 -0.5908  0.0515  0.0242
 9395SOL    HW133032   3.037   6.924   4.661  0.2865  0.2626  1.1363
 9395SOL    HW233033   3.101   6.856   4.542 -1.7998  0.1936  0.0019
 9396SOL     OW33034   3.043   6.796   4.205 -0.3673  0.8547  0.2300
 9396SOL    HW133035   3.074   6.793   4.114 -3.3125 -0.8192 -0.8500
 9396SOL    HW233036   3.000   6.881   4.212 -1.1320  0.5193 -0.3252
 9397SOL     OW33037   2.496   5.897   3.769 -0.0825 -0.0560  0.7126
 9397SOL    HW133038   2.475   5.805   3.757 -0.8726  0.3604 -1.5664
 9397SOL    HW233039   2.449   5.922   3.849 -0.5129 -1.4067  0.9135
 9398SOL     OW33040   2.580   5.037   4.427 -0.8771  0.4217 -0.2167
 9398SOL    HW133041   2.492   5.031   4.391  0.2342 -1.2684 -2.9494
 9398SOL    HW233042   2.576   4.985   4.507 -2.7343  1.8839  0.7188
 9399SOL     OW33043   1.488   7.434   5.377  0.4031  0.4130  0.0259
 9399SOL    HW133044   1.427   7.364   5.356  0.0377  1.0019 -0.9680
 9399SOL    HW233045   1.434   7.513   5.379  0.4844  0.5240  2.7843
 9400SOL     OW33046   2.324   6.709   5.572 -0.1762  0.6381  0.4797
 9400SOL    HW133047   2.244   6.676   5.532  1.9026 -0.7020 -3.0007
 9400SOL    HW233048   2.354   6.637   5.628 -0.7758  0.6941  0.8837
 9401SOL     OW33049   1.815   5.909   4.639 -0.3032 -0.7140 -0.1142
 9401SOL    HW133050   1.864   5.843   4.590  2.8378 -1.2215  3.3453
 9401SOL    HW233051   1.744   5.860   4.681  0.4650 -1.4190  0.3863
 9402SOL     OW33052   2.986   8.569   3.189 -0.0764 -0.0907 -0.5781
 9402SOL    HW133053   3.060   8.569   3.129 -1.2313 -2.4881 -2.1661
 9402SOL    HW233054   3.022   8.542   3.273  1.2152  1.2642 -0.6451
 9403SOL     OW33055   2.521   5.631   1.880 -0.8273 -0.8235  0.3352
 9403SOL    HW133056   2.535   5.632   1.785 -1.0603 -0.6402  0.3032
 9403SOL    HW233057   2.454   5.697   1.895  0.1816  0.1227  0.7880
 9404SOL     OW33058   3.504   4.581   3.787  0.3038 -0.1035 -0.2838
 9404SOL    HW133059   3.479   4.550   3.874 -1.1636 -0.7856 -0.9091
 9404SOL    HW233060   3.525   4.673   3.799  2.1156 -0.6503  1.1373
 9405SOL     OW33061   2.913   3.753   6.232 -0.6335  0.6635 -0.9758
 9405SOL    HW133062   2.945   3.803   6.157 -0.7681  0.7119 -1.0012
 9405SOL    HW233063   2.829   3.717   6.203 -1.5218  2.0709 -0.2779
 9406SOL     OW33064   3.272   5.653   4.819  0.0386 -0.2970  0.1447
 9406SOL    HW133065   3.264   5.621   4.909  1.6160  0.5671  0.6249
 9406SOL    HW233066   3.186   5.690   4.800 -0.4643 -0.9012  1.1240
 9407SOL     OW33067   1.495   4.143   2.084 -0.1708 -0.0326  0.1458
 9407SOL    HW133068   1.484   4.119   2.176 -1.5443  2.7466  0.8285
 9407SOL    HW233069   1.479   4.238   2.082  2.6053  0.5444 -2.5508
 9408SOL     OW33070   3.607   8.134   4.507 -0.0444 -0.1751  0.1345
 9408SOL    HW133071   3.614   8.099   4.419  0.0199  2.3080 -0.9123
 9408SOL    HW233072   3.529   8.190   4.505  1.1757  1.6434  0.9894
 9409SOL     OW33073   4.644   4.137   4.103  0.0345  0.1450 -0.4982
 9409SOL    HW133074   4.658   4.135   4.009  1.5906  2.0800 -0.3745
 9409SOL    HW233075   4.700   4.067   4.137  1.1665  0.8477 -0.8683
 9410SOL     OW33076   4.689   6.198   2.886 -0.2030  0.0781 -0.2241
 9410SOL    HW133077   4.672   6.105   2.875 -2.1068  0.3103  0.4920
 9410SOL    HW233078   4.756   6.203   2.954 -1.1840 -0.7372  0.8268
 9411SOL     OW33079   5.062   6.169   4.484  0.4330  0.2931 -0.0694
 9411SOL    HW133080   5.040   6.081   4.517  1.3309  0.4861  1.1122
 9411SOL    HW233081   5.096   6.215   4.560 -0.8553  1.9891 -0.4676
 9412SOL     OW33082   5.644   4.560   3.338 -0.2578 -0.0155  0.3157
 9412SOL    HW133083   5.573   4.552   3.275 -0.7424  0.3065  0.8125
 9412SOL    HW233084   5.696   4.481   3.326  0.7310  0.8554 -1.7793
 9413SOL     OW33085   2.623   5.200   2.468 -0.7895  0.0706 -0.1406
 9413SOL    HW133086   2.585   5.112   2.465 -0.4296 -0.1114  0.4347
 9413SOL    HW233087   2.659   5.207   2.556  1.1784 -0.0237 -0.9048
 9414SOL     OW33088   2.336   5.808   1.063  0.3909  0.7206 -0.4400
 9414SOL    HW133089   2.372   5.862   1.133 -0.7289 -0.6650  1.2901
 9414SOL    HW233090   2.278   5.867   1.015 -2.4496  0.7489  2.6649
 9415SOL     OW33091   3.457   6.029   4.430  0.4160 -0.2095 -0.3363
 9415SOL    HW133092   3.466   6.066   4.517  0.7202  0.8884 -0.8156
 9415SOL    HW233093   3.547   6.015   4.400  0.4238  1.7761 -1.4156
 9416SOL     OW33094   1.102   8.662   5.137  0.2902 -0.6696  0.0223
 9416SOL    HW133095   1.186   8.647   5.092  0.3173 -0.5215  0.0223
 9416SOL    HW233096   1.110   8.616   5.220  0.4544 -0.4803  0.1132
 9417SOL     OW33097   2.571   7.624   6.439 -0.9334 -0.8096  0.4300
 9417SOL    HW133098   2.571   7.658   6.349 -1.5277 -1.0802  0.3157
 9417SOL    HW233099   2.663   7.604   6.458 -0.6070  0.6088  0.4182
 9418SOL     OW33100   3.907   8.915   6.183 -0.3688  0.5225 -0.0654
 9418SOL    HW133101   3.915   8.988   6.244 -0.4723  0.0116  0.5818
 9418SOL    HW233102   3.821   8.877   6.203 -0.2008  0.0647 -0.1951
 9419SOL     OW33103   4.010   5.075   4.622 -0.2048 -0.0428 -0.1990
 9419SOL    HW133104   3.983   5.151   4.570  0.8198  0.3291 -0.2251
 9419SOL    HW233105   4.102   5.093   4.644 -0.2807 -0.7479  0.7541
 9420SOL     OW33106   3.052   5.779   4.763  0.3312 -0.1027 -0.7575
 9420SOL    HW133107   3.047   5.862   4.810  2.6056 -0.1529 -0.3500
 9420SOL    HW233108   2.997   5.720   4.814  0.6779  0.5087  0.3593
 9421SOL     OW33109   9.852   4.758   5.655 -0.9053  0.0229  0.7484
 9421SOL    HW133110   9.829   4.731   5.566  0.9481 -0.7524  0.4638
 9421SOL    HW233111   9.813   4.845   5.665 -2.7734 -0.6619 -0.1090
 9422SOL     OW33112   3.162   6.799   6.767 -0.1307  0.1147  0.4203
 9422SOL    HW133113   3.222   6.868   6.796  0.2742 -0.2618  0.4777
 9422SOL    HW233114   3.180   6.789   6.673 -0.3496  0.2422  0.3631
 9423SOL     OW33115   0.952   6.983   5.932  0.2836  0.4988  0.3000
 9423SOL    HW133116   0.888   6.923   5.970 -1.8496  1.0600 -2.1059
 9423SOL    HW233117   0.993   6.933   5.861 -1.5901  1.7485 -1.7988
 9424SOL     OW33118   2.279   3.990   3.447 -0.0899 -0.3434 -0.0094
 9424SOL    HW133119   2.218   4.049   3.492  0.0001  0.1683 -0.5334
 9424SOL    HW233120   2.294   3.919   3.508 -0.5683 -0.0501  0.4570
 9425SOL     OW33121   3.239   7.005   5.358  0.1850 -0.1035 -0.2852
 9425SOL    HW133122   3.166   7.065   5.344 -0.3460 -0.5863  0.4036
 9425SOL    HW233123   3.242   6.991   5.452  1.7320  0.6025 -0.1836
 9426SOL     OW33124   3.659   5.966   2.878  0.0548 -0.3967 -0.4190
 9426SOL    HW133125   3.691   5.876   2.876  0.4137 -0.2688 -1.9902
 9426SOL    HW233126   3.627   5.982   2.789 -1.9565  0.3646  0.3728
 9427SOL     OW33127   2.010   6.535   3.216  0.2502  0.1188  0.2249
 9427SOL    HW133128   2.098   6.499   3.229 -0.4910 -1.3235  1.5952
 9427SOL    HW233129   1.968   6.527   3.302 -0.8450  1.9199 -0.0778
 9428SOL     OW33130   2.823   7.672   3.488 -0.1759  0.5157  0.4275
 9428SOL    HW133131   2.840   7.623   3.407 -1.0185 -0.5403  0.8662
 9428SOL    HW233132   2.728   7.667   3.499 -0.0799  0.7437  1.4289
 9429SOL     OW33133   3.161   6.716   3.946  0.0433 -0.0183  0.0178
 9429SOL    HW133134   3.237   6.661   3.931 -0.5041 -0.7409 -0.1605
 9429SOL    HW233135   3.118   6.722   3.861 -1.5632 -1.8581  0.6174
 9430SOL     OW33136   4.334   7.567   5.206  0.3730  0.2042 -0.9561
 9430SOL    HW133137   4.406   7.627   5.191 -0.1487  1.3106  0.7477
 9430SOL    HW233138   4.361   7.485   5.163  2.1886  0.8790 -1.1549
 9431SOL     OW33139   0.662   7.406   5.121  0.5126  0.2581 -0.2427
 9431SOL    HW133140   0.748   7.449   5.128  0.9359 -0.3425 -1.3858
 9431SOL    HW233141   0.639   7.385   5.211  0.3576  2.6870  0.3728
 9432SOL     OW33142   2.142   6.084   4.122 -0.1666 -0.2626 -0.4198
 9432SOL    HW133143   2.047   6.075   4.135 -0.3248  0.1041 -1.2820
 9432SOL    HW233144   2.179   6.074   4.210 -1.0398  0.0484 -0.0069
 9433SOL     OW33145   1.902   3.771   5.483  0.1949 -0.2007  0.2879
 9433SOL    HW133146   1.840   3.715   5.529 -0.8436  0.4509 -0.2692
 9433SOL    HW233147   1.867   3.779   5.395  1.2414 -0.0528 -0.1322
 9434SOL     OW33148   1.147   6.754   3.065  0.0108 -0.6488  0.3093
 9434SOL    HW133149   1.155   6.691   2.994 -3.2813  0.9104 -1.6945
 9434SOL    HW233150   1.099   6.707   3.134 -0.5257 -0.9590 -0.2690
 9435SOL     OW33151   2.194   7.900   3.312 -0.0549 -0.2778  0.7476
 9435SOL    HW133152   2.117   7.943   3.348 -0.3815  1.0237 -1.3115
 9435SOL    HW233153   2.264   7.965   3.322 -0.1600  0.1223 -0.8696
 9436SOL     OW33154   3.060   5.354   7.247 -0.2885 -0.2180 -0.2432
 9436SOL    HW133155   2.992   5.307   7.199 -0.0455 -3.5309  2.2950
 9436SOL    HW233156   3.036   5.446   7.238 -4.0132 -1.0951 -1.0292
 9437SOL     OW33157   0.656   7.951   4.397 -0.2134 -0.1475 -0.7295
 9437SOL    HW133158   0.607   7.975   4.475  0.1253  0.6077 -0.7379
 9437SOL    HW233159   0.606   7.988   4.325 -1.5972 -2.5046 -1.0885
 9438SOL     OW33160   3.098   5.240   4.500 -0.1036  0.6510  0.5302
 9438SOL    HW133161   3.057   5.168   4.548 -0.1851  0.5914  0.3736
 9438SOL    HW233162   3.112   5.308   4.565  0.9771  0.0780  0.9238
 9439SOL     OW33163   3.370   7.126   5.851  0.2029 -0.5645 -0.0941
 9439SOL    HW133164   3.333   7.064   5.787  0.9382 -0.3461 -0.7365
 9439SOL    HW233165   3.329   7.101   5.934 -0.6325 -0.9661 -0.6118
 9440SOL     OW33166   2.516   5.741   4.037  0.4546  0.5378  0.6139
 9440SOL    HW133167   2.508   5.681   3.963  2.4284 -0.8813  1.4753
 9440SOL    HW233168   2.445   5.804   4.024  0.4775  0.1168 -2.2497
 9441SOL     OW33169   3.491   7.439   6.138  0.7416  0.9906  0.4864
 9441SOL    HW133170   3.567   7.381   6.147  0.2694  0.4977  1.4891
 9441SOL    HW233171   3.487   7.458   6.044  2.1287  1.0770  0.4213
 9442SOL     OW33172   3.278   5.881   1.711 -0.3593  0.0380  0.3527
 9442SOL    HW133173   3.349   5.890   1.648 -1.2238 -1.0546 -0.8116
 9442SOL    HW233174   3.233   5.966   1.709 -0.6487 -0.1236 -0.8584
 9443SOL     OW33175   3.138   7.261   4.327 -0.4546  0.5587 -0.2359
 9443SOL    HW133176   3.143   7.272   4.422 -1.0700  1.7788 -0.3343
 9443SOL    HW233177   3.065   7.317   4.300 -0.6422 -0.2039 -1.3664
 9444SOL     OW33178   1.603   6.486   2.155  0.0769  0.7652  0.2800
 9444SOL    HW133179   1.610   6.451   2.244 -2.4448 -1.2495 -0.2029
 9444SOL    HW233180   1.545   6.562   2.164  1.7420  2.0537  0.6317
 9445SOL     OW33181   3.113   7.893   3.869 -0.0336 -0.1905  0.1771
 9445SOL    HW133182   3.021   7.887   3.842 -0.0821 -0.7678  0.4546
 9445SOL    HW233183   3.160   7.839   3.806 -0.2950 -2.5790  1.8947
 9446SOL     OW33184   1.748   5.002   3.520 -0.0632  0.3347 -0.4708
 9446SOL    HW133185   1.802   5.060   3.466  0.1063  2.3418  1.7222
 9446SOL    HW233186   1.738   5.048   3.603 -0.9982 -2.2364  0.9689
 9447SOL     OW33187   3.009   6.009   4.861  0.7232 -0.1327  0.2615
 9447SOL    HW133188   2.985   6.019   4.953 -1.3837 -0.3674 -0.2233
 9447SOL    HW233189   3.050   6.092   4.838 -1.0123  0.9143  0.7803
 9448SOL     OW33190   5.875   7.229   4.141  0.0176  0.5704  0.1325
 9448SOL    HW133191   5.969   7.245   4.152  0.4075 -1.3593 -0.0146
 9448SOL    HW233192   5.835   7.267   4.219  1.1507 -0.2612  1.1525
 9449SOL     OW33193   1.781   7.511   3.504  0.3685  0.2467 -0.2317
 9449SOL    HW133194   1.723   7.569   3.454 -1.5862 -1.0738  0.3963
 9449SOL    HW233195   1.817   7.451   3.439 -3.0806 -2.2362 -0.1389
 9450SOL     OW33196   1.373   7.193   2.700 -0.5596  0.4054  0.5435
 9450SOL    HW133197   1.289   7.223   2.732  0.4360  2.3774  1.4630
 9450SOL    HW233198   1.377   7.225   2.609 -1.1246 -0.4317  0.2131
 9451SOL     OW33199   3.751   4.138   6.307  0.4012  0.4150 -0.1593
 9451SOL    HW133200   3.741   4.061   6.250  1.3478  0.9555 -1.0862
 9451SOL    HW233201   3.843   4.137   6.331  0.0306  0.2533  1.3223
 9452SOL     OW33202   2.109   4.225   4.487  0.5749 -0.1007 -0.0327
 9452SOL    HW133203   2.116   4.278   4.407  0.7245 -0.5966 -0.3534
 9452SOL    HW233204   2.051   4.153   4.462  0.5801 -0.2290  0.3287
 9453SOL     OW33205   4.432   6.590   3.416  0.3611 -0.1210 -0.1276
 9453SOL    HW133206   4.492   6.665   3.424 -0.4299  0.4145  1.1030
 9453SOL    HW233207   4.379   6.611   3.339 -1.6848  2.0203  1.7061
 9454SOL     OW33208   0.005   5.687   4.800 -0.5303 -0.5282 -0.0896
 9454SOL    HW133209   0.047   5.638   4.870 -0.1190 -0.2579 -0.1438
 9454SOL    HW233210  -0.084   5.652   4.797 -0.4907 -0.6855  0.4253
 9455SOL     OW33211   1.546   4.816   4.869  0.0088 -0.4174 -0.2875
 9455SOL    HW133212   1.615   4.790   4.929  0.4266  0.4174 -0.3895
 9455SOL    HW233213   1.471   4.837   4.925 -0.2370 -1.4797 -0.1855
 9456SOL     OW33214   1.056   8.141   5.027 -0.4507  0.4846  0.0033
 9456SOL    HW133215   1.145   8.158   5.059 -0.0018  1.1415 -1.5100
 9456SOL    HW233216   0.999   8.178   5.095  0.3341 -1.6989  1.9891
 9457SOL     OW33217   1.250   5.848   3.957 -0.1662  0.7731  0.1463
 9457SOL    HW133218   1.334   5.826   3.997 -0.3816  1.0051  0.7498
 9457SOL    HW233219   1.241   5.787   3.884 -0.3522 -0.5796  1.2405
 9458SOL     OW33220   0.642   4.735   4.106 -0.2857  0.9698  0.3196
 9458SOL    HW133221   0.659   4.825   4.137  0.3070  0.1585  2.5641
 9458SOL    HW233222   0.603   4.691   4.182  0.0665 -0.8525 -0.5086
 9459SOL     OW33223   2.225   8.338   4.043  0.3498  0.3852 -0.1747
 9459SOL    HW133224   2.321   8.346   4.044  0.2272  2.2974 -0.6048
 9459SOL    HW233225   2.199   8.372   3.958 -0.7609  0.2217  0.0830
 9460SOL     OW33226   3.473   8.522   7.935  0.1826 -0.2079  0.0966
 9460SOL    HW133227   3.491   8.587   7.868 -1.0038  1.5290  1.3761
 9460SOL    HW233228   3.392   8.480   7.907 -1.8240  2.3588  1.6064
 9461SOL     OW33229   1.810   6.258   2.233 -0.5767 -0.2432 -0.1253
 9461SOL    HW133230   1.833   6.166   2.221 -0.5701 -0.2547 -0.0291
 9461SOL    HW233231   1.891   6.299   2.263 -0.7128 -0.3104  0.3449
 9462SOL     OW33232   2.836   7.182   2.912  0.0785 -0.3923 -0.2866
 9462SOL    HW133233   2.741   7.185   2.919 -0.0729  0.5047 -2.2209
 9462SOL    HW233234   2.866   7.168   3.002 -1.8221  0.6134  0.5668
 9463SOL     OW33235   4.586   7.443   6.214  0.4257 -0.2204  0.5411
 9463SOL    HW133236   4.669   7.475   6.178 -1.3813  1.5755 -2.4919
 9463SOL    HW233237   4.562   7.370   6.157  0.2139 -1.2155  1.8600
 9464SOL     OW33238   3.080   6.159   4.303 -0.2734 -0.2092  0.4196
 9464SOL    HW133239   2.985   6.151   4.300 -0.3710 -0.0795  2.2241
 9464SOL    HW233240   3.096   6.240   4.352  0.7692 -0.1373 -0.0108
 9465SOL     OW33241   3.592   7.869   1.532  0.2621 -0.3210  0.5231
 9465SOL    HW133242   3.578   7.900   1.622  0.3185  1.2939  0.0107
 9465SOL    HW233243   3.517   7.902   1.483  0.5812 -0.5908 -0.1632
 9466SOL     OW33244   4.056   4.373   4.270 -0.0443  0.4755  0.1465
 9466SOL    HW133245   4.117   4.325   4.325 -1.0216  0.9907  1.7342
 9466SOL    HW233246   3.986   4.311   4.252 -0.3891  0.7223  0.6276
 9467SOL     OW33247   1.636   6.234   3.092 -0.2986  0.3638 -0.3703
 9467SOL    HW133248   1.629   6.175   3.168 -1.6369  0.8752 -0.0653
 9467SOL    HW233249   1.582   6.191   3.025 -1.1641  1.1423 -0.1925
 9468SOL     OW33250   2.013   6.367   4.364 -0.0114  0.0676 -0.6096
 9468SOL    HW133251   1.978   6.394   4.450  4.2733 -0.7678  1.6367
 9468SOL    HW233252   2.059   6.285   4.381  0.8454 -0.2399 -3.8036
 9469SOL     OW33253   3.927   8.755   4.315 -0.3874  0.6135 -0.1329
 9469SOL    HW133254   3.921   8.801   4.231  2.5775  0.1393 -0.7107
 9469SOL    HW233255   3.955   8.666   4.292  0.2975  0.4161  1.3404
 9470SOL     OW33256   2.750   7.031   4.493  0.1442  0.4210  0.0291
 9470SOL    HW133257   2.718   6.977   4.566  0.9693  0.4758  0.4513
 9470SOL    HW233258   2.839   7.054   4.519  0.8508 -0.4569 -1.4850
 9471SOL     OW33259   3.405   4.719   3.346  0.0535 -0.2280  0.9096
 9471SOL    HW133260   3.483   4.760   3.384 -0.0570  0.5500  0.3130
 9471SOL    HW233261   3.439   4.659   3.280  0.1291  0.7301  0.0586
 9472SOL     OW33262   1.004   5.307   6.963  0.3460  0.4450 -0.1697
 9472SOL    HW133263   1.087   5.263   6.950  0.4818  0.5776  0.2557
 9472SOL    HW233264   0.941   5.236   6.976  0.5746  0.3743  0.5806
 9473SOL     OW33265   1.182   7.729   2.525  0.1413  0.3307 -0.7081
 9473SOL    HW133266   1.153   7.799   2.467 -0.5029  1.7430  1.2087
 9473SOL    HW233267   1.244   7.771   2.584 -0.9500 -0.4656  1.0717
 9474SOL     OW33268   3.636   7.536   1.924 -0.0807 -0.0782  0.1873
 9474SOL    HW133269   3.652   7.545   1.830  1.3042 -0.8353  0.3167
 9474SOL    HW233270   3.723   7.523   1.962 -0.5904  0.4174  1.6075
 9475SOL     OW33271   2.478   8.634   2.913 -0.4074 -0.9061 -0.8138
 9475SOL    HW133272   2.557   8.666   2.871 -0.8744 -2.1173 -2.7034
 9475SOL    HW233273   2.408   8.648   2.849 -1.5367 -0.9325  0.3495
 9476SOL     OW33274   0.740   7.767   4.931  0.2392  0.1125 -0.3689
 9476SOL    HW133275   0.741   7.676   4.962 -0.2365  0.9268  2.2722
 9476SOL    HW233276   0.833   7.790   4.921  0.3783 -0.4466 -0.3797
 9477SOL     OW33277   3.539   6.685   2.785  0.5443 -0.1670  0.1219
 9477SOL    HW133278   3.456   6.726   2.808  1.3978  1.8755 -0.2420
 9477SOL    HW233279   3.602   6.724   2.846  1.4411 -0.8424 -0.3497
 9478SOL     OW33280   1.757   7.694   3.832 -0.0828  0.1742 -0.2209
 9478SOL    HW133281   1.714   7.778   3.843 -2.0688 -0.7546 -0.4404
 9478SOL    HW233282   1.766   7.659   3.921 -1.7681 -0.5307 -0.2952
 9479SOL     OW33283   2.419   8.231   3.680 -0.4700 -0.2143 -0.6565
 9479SOL    HW133284   2.355   8.302   3.679 -0.4563 -0.2084 -1.2669
 9479SOL    HW233285   2.489   8.262   3.738 -0.8714 -0.0947 -0.2354
 9480SOL     OW33286   3.428   7.560   5.320 -0.2821  0.1669  0.1904
 9480SOL    HW133287   3.382   7.594   5.396  0.1185 -0.4736  0.7233
 9480SOL    HW233288   3.361   7.515   5.269 -0.7322  1.3483 -0.3010
 9481SOL     OW33289   3.472   5.109   3.265  0.4516  0.0298  0.0661
 9481SOL    HW133290   3.487   5.015   3.259 -0.3365 -0.1903  1.2341
 9481SOL    HW233291   3.532   5.147   3.201  1.2009 -1.2216 -0.0070
 9482SOL     OW33292   2.837   7.601   3.236 -0.1006 -0.1905  0.0928
 9482SOL    HW133293   2.775   7.528   3.234  2.2800 -2.3987  1.1206
 9482SOL    HW233294   2.912   7.570   3.185  0.8573  1.7339  0.2224
 9483SOL     OW33295   2.943   7.038   5.007  0.3381 -0.1516 -0.6400
 9483SOL    HW133296   2.879   7.031   4.936  0.0939 -1.4847 -0.3104
 9483SOL    HW233297   2.986   6.953   5.009  1.5752  0.4551 -0.3184
 9484SOL     OW33298   3.388   5.596   4.149 -0.2018  0.0042  0.9408
 9484SOL    HW133299   3.361   5.509   4.177  1.0574 -0.8885 -0.5039
 9484SOL    HW233300   3.448   5.625   4.218  1.2313 -1.2855  0.2829
 9485SOL     OW33301   3.267   8.341   5.627  0.1250 -0.5331 -0.1668
 9485SOL    HW133302   3.296   8.326   5.717 -1.7053  0.8159  0.7139
 9485SOL    HW233303   3.187   8.288   5.619 -0.7004  0.7170 -0.3817
 9486SOL     OW33304   3.732   7.925   5.427 -0.3652 -0.1702 -0.4608
 9486SOL    HW133305   3.666   7.937   5.359  0.2749 -0.3004 -1.1134
 9486SOL    HW233306   3.707   7.986   5.496 -1.5271 -0.6643 -0.4223
 9487SOL     OW33307   1.360   7.376   4.467 -0.6654 -0.5677  0.0791
 9487SOL    HW133308   1.384   7.424   4.546 -1.5818 -0.6306  0.4064
 9487SOL    HW233309   1.265   7.379   4.465 -0.7235 -2.0066 -0.1398
 9488SOL     OW33310   0.498   8.715   3.391 -0.1329  0.0246 -0.6122
 9488SOL    HW133311   0.404   8.731   3.385  0.1202  1.3068 -1.7384
 9488SOL    HW233312   0.509   8.626   3.357 -0.9233 -0.1101 -0.5507
 9489SOL     OW33313   3.095   5.013   3.722 -0.3775 -0.3689  0.1016
 9489SOL    HW133314   3.118   5.105   3.709 -0.0821  0.1080  3.1605
 9489SOL    HW233315   3.019   4.999   3.666  0.4022  1.3089 -1.4825
 9490SOL     OW33316   4.539   7.785   5.161 -0.0623  0.2312  0.7185
 9490SOL    HW133317   4.523   7.810   5.252  1.7557  0.0027  1.1491
 9490SOL    HW233318   4.537   7.868   5.113  0.0830  0.4962  1.1568
 9491SOL     OW33319   1.547   6.598   5.047 -0.0392  0.1066  0.3856
 9491SOL    HW133320   1.608   6.550   4.990 -0.7116 -0.5062  0.1636
 9491SOL    HW233321   1.550   6.551   5.130  1.7896  1.6577  1.2775
 9492SOL     OW33322   9.237   7.589   5.142  0.1822  0.1029  0.4355
 9492SOL    HW133323   9.160   7.618   5.190  0.5734  0.7255  0.7005
 9492SOL    HW233324   9.299   7.561   5.210 -0.6680 -2.7482  0.1851
 9493SOL     OW33325   2.030   6.241   5.111 -0.4374  0.0893  0.6159
 9493SOL    HW133326   2.069   6.155   5.126 -0.0334  0.5025  2.2107
 9493SOL    HW233327   1.946   6.224   5.070 -0.6388 -1.1015  1.5013
 9494SOL     OW33328   1.929   7.196   4.458  0.4216 -0.4073 -0.0623
 9494SOL    HW133329   1.936   7.247   4.539  0.5386  0.9902 -0.9045
 9494SOL    HW233330   2.015   7.202   4.418 -0.2207  0.8739 -1.3643
 9495SOL     OW33331   9.015   4.171   2.935 -0.0748  1.0925  0.1412
 9495SOL    HW133332   9.006   4.216   3.019 -1.6701 -0.0394  0.6409
 9495SOL    HW233333   8.966   4.225   2.873 -1.3320  0.5160  0.5809
 9496SOL     OW33334   2.473   5.311   5.257 -1.1366  0.1966 -0.7995
 9496SOL    HW133335   2.567   5.329   5.264 -0.8381 -1.0067 -1.4501
 9496SOL    HW233336   2.438   5.330   5.345  0.1574 -1.7505  0.1998
 9497SOL     OW33337   1.982   6.653   4.611 -0.3265 -0.3430  0.3629
 9497SOL    HW133338   1.924   6.664   4.686 -0.3990 -1.0323  0.4198
 9497SOL    HW233339   1.978   6.736   4.565 -2.0877 -0.6575 -0.1494
 9498SOL     OW33340   1.564   4.960   5.853  0.2667  0.0587 -0.2900
 9498SOL    HW133341   1.494   4.917   5.803  0.4212 -0.1898 -0.2973
 9498SOL    HW233342   1.551   4.930   5.943  1.0717 -0.9435 -0.4865
 9499SOL     OW33343   3.269   8.355   5.919 -0.1731  0.1715  0.0043
 9499SOL    HW133344   3.205   8.409   5.873 -0.9315  1.0147  1.9862
 9499SOL    HW233345   3.296   8.407   5.994  2.0923 -0.6024 -0.1862
 9500SOL     OW33346   0.891   4.658   5.079 -0.5817 -0.2360  0.0991
 9500SOL    HW133347   0.938   4.682   5.159  1.9168  0.1197 -1.3999
 9500SOL    HW233348   0.803   4.635   5.110  0.4265 -0.6074  3.0029
 9501SOL     OW33349   4.924   9.076   6.947 -0.3543 -0.0232  0.3254
 9501SOL    HW133350   4.862   9.149   6.947 -0.6281 -0.2492  0.7758
 9501SOL    HW233351   4.886   9.012   6.886 -0.4129 -0.0309  0.3692
 9502SOL     OW33352   1.271   6.914   4.295 -0.1578  0.7962 -0.3610
 9502SOL    HW133353   1.361   6.892   4.272 -0.3965  0.0065 -0.5769
 9502SOL    HW233354   1.217   6.857   4.239 -0.7795  0.8144  0.2046
 9503SOL     OW33355   1.866   8.430   4.601  0.5265 -0.3906  0.0340
 9503SOL    HW133356   1.811   8.442   4.679  1.4441  0.3448  0.5845
 9503SOL    HW233357   1.876   8.335   4.594 -0.2567 -0.5066  0.3126
 9504SOL     OW33358   4.006   8.442   3.210  0.3916 -0.0959  0.0716
 9504SOL    HW133359   4.035   8.360   3.250 -0.4093 -0.6810 -0.5104
 9504SOL    HW233360   3.921   8.421   3.171  0.1427  1.0323 -0.0329
 9505SOL     OW33361   2.393   4.678   2.706  0.0337 -0.1045 -0.2513
 9505SOL    HW133362   2.479   4.649   2.736 -0.0943  0.8627  1.1918
 9505SOL    HW233363   2.381   4.636   2.621  2.2694  0.3879 -0.8782
 9506SOL     OW33364   3.262   4.375   4.931  0.0626 -0.0350  0.1787
 9506SOL    HW133365   3.245   4.324   5.010  0.9061 -0.0790  0.3473
 9506SOL    HW233366   3.332   4.436   4.956  0.0046  0.2782 -0.3966
 9507SOL     OW33367   4.672   7.277   5.572  0.9872 -0.0383 -0.1097
 9507SOL    HW133368   4.766   7.291   5.582  1.5353 -2.3129 -1.3711
 9507SOL    HW233369   4.656   7.191   5.610 -0.6164  0.3340  0.1195
 9508SOL     OW33370   3.569   5.967   2.609  0.5641 -0.2163 -0.3216
 9508SOL    HW133371   3.508   6.038   2.587  0.3582  0.3402  1.7894
 9508SOL    HW233372   3.649   5.989   2.561 -0.5394 -0.4530 -2.3864
 9509SOL     OW33373   3.329   6.728   4.291 -0.6082 -0.6669  0.1377
 9509SOL    HW133374   3.246   6.682   4.303 -1.7110  1.6251  2.1686
 9509SOL    HW233375   3.304   6.819   4.276  1.5078  0.1842  1.3220
 9510SOL     OW33376   9.150   7.303   5.023 -0.3109  0.0089  0.3838
 9510SOL    HW133377   9.141   7.216   4.984 -1.9436  0.9067 -1.4467
 9510SOL    HW233378   9.228   7.340   4.983 -0.6904  0.0656 -0.3254
 9511SOL     OW33379   4.525   6.048   3.373 -0.1074 -0.3110  0.1669
 9511SOL    HW133380   4.586   6.084   3.437 -1.8692 -1.1887  2.4757
 9511SOL    HW233381   4.572   5.974   3.334  1.1712  0.5238  0.0650
 9512SOL     OW33382   4.942   8.483   4.986 -0.1534  0.0647  0.1848
 9512SOL    HW133383   5.016   8.482   5.047 -0.5260 -0.6251  0.6371
 9512SOL    HW233384   4.904   8.570   4.997  0.5111  0.3836  0.0345
 9513SOL     OW33385   1.955   6.348   4.822  0.0513  0.0357  0.2366
 9513SOL    HW133386   2.046   6.361   4.848  0.3473 -1.3875  0.0181
 9513SOL    HW233387   1.960   6.292   4.744 -0.9280  1.9371 -1.2759
 9514SOL     OW33388   0.800   6.991   4.985  0.1546  0.1780  0.5130
 9514SOL    HW133389   0.713   7.016   5.018 -0.9412 -2.5061 -0.0882
 9514SOL    HW233390   0.790   6.993   4.890 -0.2308 -2.8511  0.3960
 9515SOL     OW33391   4.451   3.994   2.154  0.1265  0.6406  0.7831
 9515SOL    HW133392   4.396   3.922   2.121  1.0500  0.0870  0.4126
 9515SOL    HW233393   4.491   3.958   2.234  0.6617  0.7051  0.5466
 9516SOL     OW33394   1.195   7.328   3.765  0.2296 -0.2443 -0.1250
 9516SOL    HW133395   1.175   7.420   3.747 -0.0643 -0.5065 -1.2287
 9516SOL    HW233396   1.110   7.284   3.766  0.5011 -0.8839 -1.9653
 9517SOL     OW33397   2.588   7.290   4.442  0.2511 -0.2252  0.1181
 9517SOL    HW133398   2.626   7.299   4.354  0.7188  0.7908  0.4057
 9517SOL    HW233399   2.575   7.196   4.453  0.1788 -0.3645 -1.0407
 9518SOL     OW33400   0.208   7.150   4.584 -1.1113 -0.4065  0.1251
 9518SOL    HW133401   0.268   7.209   4.538 -1.7325 -1.1501 -1.7659
 9518SOL    HW233402   0.239   7.150   4.674  1.4743 -0.4228 -0.6580
 9519SOL     OW33403   1.260   8.099   3.691 -0.5305  0.2143 -0.6464
 9519SOL    HW133404   1.170   8.131   3.684 -0.0794  1.2313 -2.3517
 9519SOL    HW233405   1.264   8.024   3.632 -0.4895 -0.4214  0.1496
 9520SOL     OW33406   3.365   6.137   2.487 -0.1514  0.0408 -0.0996
 9520SOL    HW133407   3.454   6.172   2.493 -0.5356  1.2704 -1.0274
 9520SOL    HW233408   3.320   6.174   2.563 -0.4829  1.4183 -0.9288
 9521SOL     OW33409   2.513   7.639   2.356  0.4258  0.5417 -0.6600
 9521SOL    HW133410   2.556   7.649   2.441  0.4158 -0.4973 -0.5200
 9521SOL    HW233411   2.438   7.582   2.374 -1.1066  2.3977 -0.8795
 9522SOL     OW33412   3.310   7.171   3.429 -0.0850 -0.4565 -0.1138
 9522SOL    HW133413   3.239   7.126   3.383 -0.5072  1.0816 -1.0435
 9522SOL    HW233414   3.293   7.264   3.414  1.8173 -0.0350  0.1282
 9523SOL     OW33415   3.812   7.735   3.520 -0.0605  0.0480  0.0006
 9523SOL    HW133416   3.798   7.667   3.585  0.8811  1.1750  1.4528
 9523SOL    HW233417   3.735   7.732   3.464 -1.1338 -0.6487  1.4704
 9524SOL     OW33418   1.914   5.095   3.077  0.2420  0.2015  0.1190
 9524SOL    HW133419   1.964   5.061   3.151 -0.8561 -0.6359  0.5079
 9524SOL    HW233420   1.881   5.017   3.032 -0.4566  0.7214 -0.3023
 9525SOL     OW33421   1.418   3.956   3.858 -0.0250 -0.4624 -0.3060
 9525SOL    HW133422   1.412   3.919   3.770 -2.3566 -1.0106  0.0094
 9525SOL    HW233423   1.346   3.915   3.906 -1.0593  2.4433  0.8445
 9526SOL     OW33424   3.841   3.831   2.255  0.2640  0.3080 -0.2498
 9526SOL    HW133425   3.774   3.885   2.213  0.2163 -0.0614 -0.6594
 9526SOL    HW233426   3.809   3.741   2.245 -1.5405  0.3132  3.6397
 9527SOL     OW33427   1.090   7.872   3.870  0.4695  0.5444  0.6796
 9527SOL    HW133428   1.113   7.942   3.810  0.1944 -0.4085 -0.5824
 9527SOL    HW233429   1.006   7.839   3.838 -0.6836  1.2851  2.7810
 9528SOL     OW33430   2.909   4.998   3.495 -0.1605 -0.0883 -0.2009
 9528SOL    HW133431   2.823   5.013   3.456  0.3246 -0.9748 -1.6773
 9528SOL    HW233432   2.945   4.923   3.448 -0.3012 -2.5468  3.2311
 9529SOL     OW33433   3.190   6.986   8.992 -0.1321 -0.0032  0.1843
 9529SOL    HW133434   3.139   7.010   8.915  1.2687 -0.1817 -0.8266
 9529SOL    HW233435   3.130   6.934   9.045 -0.4526 -1.9214 -1.9035
 9530SOL     OW33436   1.533   7.079   8.735  0.5178  0.4725 -0.2800
 9530SOL    HW133437   1.481   7.071   8.655  0.0152 -2.5101  0.2006
 9530SOL    HW233438   1.472   7.113   8.801 -1.1417 -3.1190  0.3160
 9531SOL     OW33439   1.892   6.595   6.173 -0.1421 -0.2405  0.4211
 9531SOL    HW133440   1.852   6.638   6.097  1.4781 -0.7800 -0.7883
 9531SOL    HW233441   1.861   6.646   6.248 -2.1833  0.0227 -0.5128
 9532SOL     OW33442   1.699   6.358   5.754  0.0606  0.3960  0.6369
 9532SOL    HW133443   1.739   6.372   5.840 -1.4829 -0.2466  1.5029
 9532SOL    HW233444   1.642   6.282   5.765  0.3860 -0.1673 -1.1694
 9533SOL     OW33445   5.916   4.593   4.197 -0.6285 -0.0683  0.2964
 9533SOL    HW133446   5.840   4.598   4.139 -2.2661 -0.0809  2.3481
 9533SOL    HW233447   5.929   4.500   4.212 -0.1241 -0.0705 -0.1265
 9534SOL     OW33448   3.464   4.147   7.519 -0.1515 -0.5170  0.4285
 9534SOL    HW133449   3.469   4.240   7.540 -3.4394 -0.5358  1.9391
 9534SOL    HW233450   3.497   4.103   7.597  3.0362 -0.7959 -0.8963
 9535SOL     OW33451   9.526   6.940   5.927 -0.0019 -0.4973 -0.0988
 9535SOL    HW133452   9.556   6.908   6.013  0.9739 -2.5530 -1.1178
 9535SOL    HW233453   9.434   6.963   5.940  0.5043  0.6621  1.8268
 9536SOL     OW33454   1.721   7.019   8.068 -0.2133  0.0794 -1.1201
 9536SOL    HW133455   1.714   6.929   8.100 -2.7558  0.5581 -0.0199
 9536SOL    HW233456   1.746   7.010   7.976  0.0426 -1.7321 -0.9108
 9537SOL     OW33457   1.804   8.692   6.569 -0.8960  0.3145  0.5949
 9537SOL    HW133458   1.729   8.679   6.511 -0.3998 -1.1417  0.2313
 9537SOL    HW233459   1.774   8.755   6.634 -1.4376  2.1115 -1.2878
 9538SOL     OW33460   3.214   7.510   9.045 -0.6922  0.0155 -0.1000
 9538SOL    HW133461   3.136   7.523   9.099 -0.8865  1.8434 -0.7574
 9538SOL    HW233462   3.244   7.421   9.066 -2.0743 -0.1517  1.2740
 9539SOL     OW33463   2.570   6.227   4.827  0.0239 -0.3590  0.3592
 9539SOL    HW133464   2.544   6.316   4.852  2.7594  0.4853  0.4374
 9539SOL    HW233465   2.587   6.182   4.910 -3.6063 -1.8462  0.4856
 9540SOL     OW33466   3.013   6.563   8.148 -0.0093  0.0494 -0.0798
 9540SOL    HW133467   2.941   6.592   8.091 -0.8921 -1.3232  0.2671
 9540SOL    HW233468   3.091   6.568   8.093 -0.7412 -0.6367 -1.2308
 9541SOL     OW33469   1.922   5.338   0.230 -0.2967  0.1444 -0.3524
 9541SOL    HW133470   1.934   5.309   0.321 -2.1930  1.8596  0.5139
 9541SOL    HW233471   1.877   5.266   0.187 -0.5603 -0.1701  0.4348
 9542SOL     OW33472   1.968   9.386   5.058  1.1050  0.9078  0.6456
 9542SOL    HW133473   1.944   9.387   5.150  2.0975 -0.3758  0.9549
 9542SOL    HW233474   1.885   9.370   5.012  0.7987  0.1579  1.4223
 9543SOL     OW33475   1.346   9.616   7.987  0.3022  0.0211  0.2142
 9543SOL    HW133476   1.344   9.673   8.064 -2.9063 -0.5029  0.6749
 9543SOL    HW233477   1.298   9.665   7.921 -0.6646 -1.2290 -0.0479
 9544SOL     OW33478   1.581   5.881   7.395  0.4377  0.4668  0.2933
 9544SOL    HW133479   1.562   5.919   7.481  0.1249  1.2650 -0.1189
 9544SOL    HW233480   1.547   5.791   7.400 -1.9846  1.3025  0.1503
 9545SOL     OW33481   1.982   6.735   5.094  0.1977 -0.2923  0.5668
 9545SOL    HW133482   2.063   6.774   5.128 -0.3908 -0.0443  1.7435
 9545SOL    HW233483   1.912   6.787   5.133 -0.5750 -1.5611  0.9386
 9546SOL     OW33484   3.968   3.883   6.519  0.2276  0.2543 -0.3719
 9546SOL    HW133485   4.008   3.806   6.480 -0.7299 -0.2098 -0.4746
 9546SOL    HW233486   3.874   3.863   6.519 -0.1485  1.8345 -1.3455
 9547SOL     OW33487   0.125   7.858   6.242 -0.1999 -0.4870  0.5828
 9547SOL    HW133488   0.142   7.765   6.229  0.4460 -0.2935 -0.0066
 9547SOL    HW233489   0.053   7.878   6.183  0.6038 -0.3124 -0.3615
 9548SOL     OW33490   2.081   5.572   7.429  0.4461  0.1511  0.5057
 9548SOL    HW133491   2.152   5.601   7.486 -1.1502  2.5756  1.3767
 9548SOL    HW233492   2.001   5.603   7.472 -1.2312 -2.6992 -0.2935
 9549SOL     OW33493   1.543   8.752   5.605  0.1078 -0.0378  0.1186
 9549SOL    HW133494   1.547   8.844   5.580 -0.2519 -0.0215  0.1208
 9549SOL    HW233495   1.588   8.706   5.534  0.8029  0.1890  0.3971
 9550SOL     OW33496   1.499   5.142   4.748  0.0306 -0.2646  0.1153
 9550SOL    HW133497   1.486   5.088   4.826  2.0178 -0.5304  0.3106
 9550SOL    HW233498   1.416   5.188   4.736 -0.4251 -0.4522  2.2137
 9551SOL     OW33499   5.357   8.119   8.460  0.1094  0.2672  0.2107
 9551SOL    HW133500   5.287   8.117   8.525 -0.7650  0.9452 -0.6777
 9551SOL    HW233501   5.425   8.173   8.500  0.3386 -0.7872  1.2751
 9552SOL     OW33502   2.181   7.662   6.973  0.4952 -0.1083  0.3620
 9552SOL    HW133503   2.218   7.699   7.054  1.2790 -0.7439  0.3067
 9552SOL    HW233504   2.243   7.594   6.948 -1.0876 -1.7384  0.6742
 9553SOL     OW33505   0.836   4.133   4.464 -0.5054  0.0294  0.7167
 9553SOL    HW133506   0.819   4.049   4.422 -1.4027 -0.5985  2.2249
 9553SOL    HW233507   0.815   4.118   4.556  0.8318  1.4880  1.3047
 9554SOL     OW33508   0.504   6.487   4.710 -0.2663  1.0096  0.9771
 9554SOL    HW133509   0.553   6.493   4.627  0.7349  0.2420  1.4832
 9554SOL    HW233510   0.469   6.574   4.723  0.5755  1.4669  0.3351
 9555SOL     OW33511   0.830   4.397   6.028 -0.1698  0.7037 -0.0917
 9555SOL    HW133512   0.868   4.469   6.077 -0.0998 -0.1670  1.1824
 9555SOL    HW233513   0.905   4.344   6.000 -0.2507  0.8383 -0.5753
 9556SOL     OW33514   1.176   7.711   7.005 -0.2338 -0.1746  0.1096
 9556SOL    HW133515   1.099   7.659   6.981  0.2652 -1.6245  1.5124
 9556SOL    HW233516   1.163   7.732   7.098  0.7946  0.0290  0.2221
 9557SOL     OW33517   2.207   8.355   5.708  0.7163 -0.2345  0.5140
 9557SOL    HW133518   2.167   8.322   5.788  0.8793 -0.6181  0.4424
 9557SOL    HW233519   2.260   8.281   5.676  0.8583  0.0028  0.1956
 9558SOL     OW33520   2.175   7.573   8.124 -0.1415 -0.6930 -0.2141
 9558SOL    HW133521   2.260   7.534   8.147  0.9251  1.7787  0.3370
 9558SOL    HW233522   2.112   7.528   8.180  1.4434  0.4149  2.6521
 9559SOL     OW33523   8.653   4.996   7.265  0.2975 -0.0533  0.5785
 9559SOL    HW133524   8.576   4.986   7.320  0.2355  1.6905  0.8446
 9559SOL    HW233525   8.646   5.083   7.227  0.1440 -1.2857 -2.5616
 9560SOL     OW33526   3.607   5.354   7.973 -0.6921  0.2087 -0.6483
 9560SOL    HW133527   3.539   5.319   8.031 -0.1943 -0.6235 -0.5571
 9560SOL    HW233528   3.620   5.285   7.908 -0.2502  0.5518 -0.9243
 9561SOL     OW33529   3.491   7.404   6.606  0.3710 -0.2604  0.1698
 9561SOL    HW133530   3.427   7.435   6.542 -1.4178  0.2270  2.0708
 9561SOL    HW233531   3.550   7.478   6.619 -1.0778  0.7456  1.2565
 9562SOL     OW33532   2.995   8.767   5.981  0.0106 -0.2408 -0.3799
 9562SOL    HW133533   3.083   8.770   6.017 -0.0690 -1.2158 -0.0870
 9562SOL    HW233534   2.965   8.858   5.982  1.3916  0.2535 -1.4628
 9563SOL     OW33535   3.223   6.405   7.740  0.0654  0.2174  0.2412
 9563SOL    HW133536   3.218   6.353   7.660  0.7925 -0.3825  0.5731
 9563SOL    HW233537   3.254   6.344   7.806  1.6067  1.2221  0.4983
 9564SOL     OW33538   5.928   3.757   8.066  0.1369 -1.0577  0.3227
 9564SOL    HW133539   5.844   3.795   8.040 -1.0732 -2.7976  1.4998
 9564SOL    HW233540   5.989   3.830   8.062 -1.8781  0.8304  1.6715
 9565SOL     OW33541   1.991   7.217   8.735  0.0185 -0.2391  0.3981
 9565SOL    HW133542   2.059   7.282   8.719  0.0688 -0.2505  0.5609
 9565SOL    HW233543   1.953   7.201   8.649 -0.7202  0.7966  0.5128
 9566SOL     OW33544   2.980   5.859   7.258  0.6926 -0.5514 -0.2272
 9566SOL    HW133545   2.892   5.883   7.286 -0.2316 -2.6859 -1.0808
 9566SOL    HW233546   3.036   5.880   7.332 -0.2453  2.2177 -0.1840
 9567SOL     OW33547   3.303   6.316   6.235  0.1056  0.5670  0.2600
 9567SOL    HW133548   3.220   6.313   6.187  0.3421  0.5470 -0.1585
 9567SOL    HW233549   3.338   6.403   6.215  1.6199 -0.4609 -2.0709
 9568SOL     OW33550   2.802   5.473   6.685  0.0503 -0.2191  0.4166
 9568SOL    HW133551   2.838   5.523   6.612  0.3698 -1.9259 -0.6492
 9568SOL    HW233552   2.714   5.510   6.697  0.4800  0.9818  0.0844
 9569SOL     OW33553   2.003   8.718   5.623 -0.2827  0.0626 -0.2273
 9569SOL    HW133554   2.051   8.736   5.543  0.5031 -0.0202  0.2180
 9569SOL    HW233555   1.938   8.789   5.628 -2.1835 -1.3857 -2.3170
 9570SOL     OW33556   2.886   5.785   6.261  0.2500 -0.7857 -0.0456
 9570SOL    HW133557   2.946   5.813   6.193 -1.0236  0.8239 -0.5663
 9570SOL    HW233558   2.942   5.761   6.335  1.5454 -0.3856 -0.8752
 9571SOL     OW33559   1.691   8.553   5.770  0.0052  0.4021  0.0107
 9571SOL    HW133560   1.697   8.482   5.706  0.4930 -0.3835  0.9098
 9571SOL    HW233561   1.645   8.623   5.723  1.4513  0.3433 -1.6263
 9572SOL     OW33562   3.629   4.194   4.467 -0.0044  0.0958  0.4180
 9572SOL    HW133563   3.554   4.199   4.408  1.0628 -0.8243 -1.0744
 9572SOL    HW233564   3.592   4.166   4.551 -1.3953  0.3012 -0.1039
 9573SOL     OW33565   2.366   0.250   7.998  0.2667  0.5189 -0.6481
 9573SOL    HW133566   2.344   0.317   8.062  0.2378  0.4766 -0.6136
 9573SOL    HW233567   2.344   0.288   7.913  0.6591  0.7190 -0.6610
 9574SOL     OW33568   2.059   8.547   6.637  0.2178  0.6877 -0.0333
 9574SOL    HW133569   2.080   8.591   6.720 -1.8934 -0.1604  1.0414
 9574SOL    HW233570   1.977   8.588   6.609 -2.3965 -2.8984  1.5112
 9575SOL     OW33571   4.630   5.707   7.716 -0.0553 -0.3575 -0.4318
 9575SOL    HW133572   4.702   5.646   7.732 -1.2262 -1.7160 -0.1757
 9575SOL    HW233573   4.617   5.704   7.621 -0.4761 -0.9353 -0.3567
 9576SOL     OW33574   9.584   7.225   9.247 -0.1717  0.5215  0.2288
 9576SOL    HW133575   9.533   7.175   9.311  0.2950  0.0785  0.2631
 9576SOL    HW233576   9.576   7.176   9.166  1.4325 -0.4223  0.5847
 9577SOL     OW33577   3.858   9.121   4.757 -0.4730  0.5215 -0.5719
 9577SOL    HW133578   3.873   9.194   4.816 -2.7248 -0.2977  1.1541
 9577SOL    HW233579   3.926   9.058   4.780 -1.3882  0.1537  1.3566
 9578SOL     OW33580   5.574   4.810   8.063  0.2597  0.4100 -0.0772
 9578SOL    HW133581   5.603   4.858   8.141  1.5109 -0.2362 -0.1209
 9578SOL    HW233582   5.479   4.823   8.061  0.3495  1.3655  0.9210
 9579SOL     OW33583   3.348   0.004   7.915  0.1506 -0.0571  0.5274
 9579SOL    HW133584   3.396  -0.076   7.893  1.7586  1.4565 -2.0385
 9579SOL    HW233585   3.409   0.054   7.969 -0.1277  0.1686  0.6323
 9580SOL     OW33586   2.045   4.166   6.259  0.1143  0.3950 -0.4016
 9580SOL    HW133587   1.997   4.095   6.215  2.4334 -1.3958 -0.2648
 9580SOL    HW233588   1.989   4.191   6.332 -0.2520 -2.2963  0.3549
 9581SOL     OW33589   3.975   4.250   9.000  0.0353  0.0342  0.1550
 9581SOL    HW133590   4.051   4.279   8.950 -0.6948  0.8053 -0.5463
 9581SOL    HW233591   3.990   4.283   9.089  0.1285  0.9245 -0.1794
 9582SOL     OW33592   2.499   7.333   8.385  0.2185  0.2009 -0.4597
 9582SOL    HW133593   2.474   7.330   8.477  2.2612 -1.9962  0.1280
 9582SOL    HW233594   2.516   7.426   8.368 -1.4250  0.8204  0.9722
 9583SOL     OW33595   1.331   3.772   8.729 -1.0593  0.1947 -0.3981
 9583SOL    HW133596   1.285   3.856   8.722 -2.1532  0.0754  3.4049
 9583SOL    HW233597   1.267   3.713   8.770  1.1624 -1.1191  1.4177
 9584SOL     OW33598   1.202   5.087   6.403 -0.2048  0.0510  0.2760
 9584SOL    HW133599   1.230   5.057   6.489 -0.7495 -0.4499  0.2925
 9584SOL    HW233600   1.130   5.147   6.420  0.2192  0.5818  0.2001
 9585SOL     OW33601   4.104   9.739   4.845 -0.3378  0.1446 -0.7026
 9585SOL    HW133602   4.107   9.652   4.884 -0.2357 -0.3729 -1.8284
 9585SOL    HW233603   4.183   9.744   4.792  1.1403  1.9874  1.4748
 9586SOL     OW33604   7.824   5.705   8.692  0.1803  0.1620  0.0079
 9586SOL    HW133605   7.817   5.796   8.663  2.4275  1.0816  2.0385
 9586SOL    HW233606   7.737   5.685   8.726  0.1721  2.3193  1.4571
 9587SOL     OW33607   0.535   6.393   8.565 -0.4475 -0.1199  0.0240
 9587SOL    HW133608   0.494   6.397   8.651 -0.2468 -1.7884  0.2278
 9587SOL    HW233609   0.623   6.430   8.578 -0.1705 -0.9793  0.7099
 9588SOL     OW33610   2.374   7.597   7.388 -0.2761 -0.1860  0.1111
 9588SOL    HW133611   2.322   7.618   7.465 -0.7539  2.8608 -0.9012
 9588SOL    HW233612   2.451   7.654   7.395  1.5627 -2.4987  0.1026
 9589SOL     OW33613   3.135   5.228   4.798 -0.5227 -0.0411 -0.3580
 9589SOL    HW133614   3.081   5.154   4.771 -1.6645  0.8569 -0.6072
 9589SOL    HW233615   3.219   5.214   4.753 -1.0109 -0.7130 -1.0922
 9590SOL     OW33616   3.692   4.913   8.566  0.0885 -0.1677  0.4795
 9590SOL    HW133617   3.764   4.870   8.520  2.9481  2.3581  2.2490
 9590SOL    HW233618   3.697   4.880   8.656 -0.8849  0.1740  0.6768
 9591SOL     OW33619   3.378   4.704   4.022  0.2298  0.0681 -0.5995
 9591SOL    HW133620   3.390   4.626   4.076  0.4289  1.0345  0.8092
 9591SOL    HW233621   3.456   4.757   4.039 -0.8799  1.5356  0.1597
 9592SOL     OW33622   2.739   5.941   8.144 -0.1808  0.0295 -0.3641
 9592SOL    HW133623   2.702   5.988   8.218 -0.9964 -0.5541 -0.3932
 9592SOL    HW233624   2.664   5.908   8.096  0.3690 -1.6632 -0.1220
 9593SOL     OW33625   1.036   6.548   6.937  0.1676  0.2713  0.1085
 9593SOL    HW133626   1.074   6.489   7.003  1.0491 -0.1791 -0.7820
 9593SOL    HW233627   1.098   6.622   6.933 -0.2400  0.6263  0.2614
 9594SOL     OW33628   1.940   4.080   8.026 -0.0000  0.3700  0.5050
 9594SOL    HW133629   1.960   4.001   7.976  0.4498  1.5144 -1.2076
 9594SOL    HW233630   1.912   4.144   7.960 -0.0104  1.7552  1.7954
 9595SOL     OW33631   3.420   6.837   8.191  0.3603 -0.0896 -0.0179
 9595SOL    HW133632   3.424   6.811   8.098 -0.5108  0.0216 -0.0976
 9595SOL    HW233633   3.358   6.910   8.192  1.2156  0.6427  0.5073
 9596SOL     OW33634   2.935   5.418   4.096  0.0363 -0.4046 -1.0399
 9596SOL    HW133635   2.856   5.427   4.149  1.3523  1.2269  0.8302
 9596SOL    HW233636   2.989   5.355   4.144  1.2700  1.1334 -0.2790
 9597SOL     OW33637   2.114   3.442   6.567  0.2344  0.3317  0.5505
 9597SOL    HW133638   2.028   3.481   6.554 -0.0014  0.0264  1.1337
 9597SOL    HW233639   2.133   3.397   6.485 -0.1662  0.3994  0.4177
 9598SOL     OW33640   2.134   7.042   7.477 -0.5082 -0.3492 -0.0629
 9598SOL    HW133641   2.140   7.122   7.528 -1.8548 -0.8586  0.9445
 9598SOL    HW233642   2.204   6.985   7.512 -1.9820 -1.0419  1.9194
 9599SOL     OW33643   2.040   5.719   4.722 -0.2206  1.2113 -0.0531
 9599SOL    HW133644   2.012   5.641   4.674  2.2085  0.9084 -1.1458
 9599SOL    HW233645   2.094   5.686   4.793 -0.1247  1.8716  0.1891
 9600SOL     OW33646   5.043   3.712   4.221 -0.5275 -0.2627 -0.2376
 9600SOL    HW133647   5.046   3.654   4.145 -1.8621 -0.5736 -0.0593
 9600SOL    HW233648   5.099   3.786   4.196 -1.8851  0.2336 -2.0390
 9601SOL     OW33649   1.539   8.074   0.147  0.1662  0.2979 -0.0455
 9601SOL    HW133650   1.519   8.002   0.087  0.3557  1.6419 -1.8210
 9601SOL    HW233651   1.454   8.100   0.182  0.1535 -1.1079  1.0508
 9602SOL     OW33652   3.581   7.726   7.123 -0.7256 -0.2393  0.3315
 9602SOL    HW133653   3.627   7.643   7.112  0.2775  0.2753  0.5324
 9602SOL    HW233654   3.650   7.792   7.118 -1.7259  0.7108 -1.5857
 9603SOL     OW33655   4.315   8.945   6.040 -0.0667 -0.2297  0.3759
 9603SOL    HW133656   4.408   8.956   6.025  0.0110  0.3604  1.2355
 9603SOL    HW233657   4.273   8.999   5.973  0.2142 -0.1854  0.2346
 9604SOL     OW33658   1.889   7.620   7.827  0.1165  0.4566  0.6621
 9604SOL    HW133659   1.975   7.592   7.797 -0.5014  0.2909 -1.0432
 9604SOL    HW233660   1.907   7.693   7.887  1.4960 -0.5451  1.5166
 9605SOL     OW33661   2.404   5.158   5.034  0.3266 -0.3520  0.1989
 9605SOL    HW133662   2.319   5.125   5.062  0.4114  0.2303  1.1773
 9605SOL    HW233663   2.447   5.186   5.115  1.7064 -1.2190 -0.1964
 9606SOL     OW33664   2.527   3.571   6.787  0.3685  0.3220  0.0678
 9606SOL    HW133665   2.590   3.528   6.730 -1.4888  1.1475 -2.8511
 9606SOL    HW233666   2.562   3.659   6.799  0.0682  0.6106 -1.0915
 9607SOL     OW33667   2.756   5.537   6.275 -0.1647  0.5627 -0.1232
 9607SOL    HW133668   2.785   5.623   6.246 -2.1201  0.6791 -1.9996
 9607SOL    HW233669   2.765   5.540   6.370  0.7042  2.4769 -0.2105
 9608SOL     OW33670   3.211   6.575   6.878  0.0985  0.6428 -0.3134
 9608SOL    HW133671   3.233   6.618   6.960  1.7187 -0.0657 -0.3344
 9608SOL    HW233672   3.186   6.647   6.819 -3.8028  0.9770  1.4758
 9609SOL     OW33673   1.943   5.763   5.334  0.1416 -0.4848 -0.8697
 9609SOL    HW133674   1.906   5.733   5.417 -0.2207 -1.4159 -1.3514
 9609SOL    HW233675   2.000   5.691   5.306 -0.9654 -0.8919 -2.2029
 9610SOL     OW33676   2.585   6.725   7.814 -0.1192 -0.0149 -0.9648
 9610SOL    HW133677   2.539   6.806   7.834 -0.8662 -0.7713  0.5354
 9610SOL    HW233678   2.656   6.752   7.755  0.8195  2.0688  0.9455
 9611SOL     OW33679   2.506   5.629   8.376 -0.1266  0.9211  0.1918
 9611SOL    HW133680   2.449   5.634   8.453 -1.8107 -1.7988 -0.7395
 9611SOL    HW233681   2.447   5.643   8.302  0.7318 -0.1000 -0.7200
 9612SOL     OW33682   2.560   5.601   6.653 -0.4212  0.0910  0.0889
 9612SOL    HW133683   2.567   5.683   6.605  1.9171  0.6902  1.3034
 9612SOL    HW233684   2.517   5.624   6.735 -1.7755 -0.3719 -0.4612
 9613SOL     OW33685   2.681   8.628   6.909  0.2977 -0.9401  0.0578
 9613SOL    HW133686   2.743   8.700   6.918 -0.4878 -0.2063 -0.2349
 9613SOL    HW233687   2.735   8.549   6.916  1.1353 -0.3377  0.6736
 9614SOL     OW33688   2.802   5.217   4.592 -0.2618  0.1769  0.0961
 9614SOL    HW133689   2.874   5.155   4.583 -0.8337 -0.4464 -0.2380
 9614SOL    HW233690   2.840   5.302   4.569  0.7318  0.1017  1.3634
 9615SOL     OW33691   3.508   9.821   5.396 -0.3560  0.1158  0.0700
 9615SOL    HW133692   3.464   9.825   5.481  1.2464  2.6984  0.8718
 9615SOL    HW233693   3.500   9.909   5.360  2.0346  0.0486 -0.8224
 9616SOL     OW33694   1.849   6.027   7.688 -0.5284 -0.4112  0.7690
 9616SOL    HW133695   1.842   6.020   7.592 -1.2663  0.5119  0.7472
 9616SOL    HW233696   1.811   5.945   7.720 -0.2797 -0.7261  0.2824
 9617SOL     OW33697   2.188   4.382   7.648  0.1756 -0.4926  0.5139
 9617SOL    HW133698   2.181   4.459   7.705  2.0136 -0.5889  0.9207
 9617SOL    HW233699   2.156   4.413   7.563 -0.3138  0.3496  0.9824
 9618SOL     OW33700   3.041   5.974   6.110  0.2907 -1.0852  0.6310
 9618SOL    HW133701   3.020   6.037   6.178 -1.1894 -1.6755  0.7522
 9618SOL    HW233702   3.031   6.022   6.028  1.4394 -0.5528  0.7836
 9619SOL     OW33703   4.790   7.251   7.636 -0.1137  0.0074  0.0722
 9619SOL    HW133704   4.866   7.308   7.646  0.6516 -1.1113  0.8395
 9619SOL    HW233705   4.722   7.308   7.601  0.0691  1.8403  2.4503
 9620SOL     OW33706   2.548   6.658   6.519 -0.2082  0.0851 -0.2580
 9620SOL    HW133707   2.643   6.647   6.520 -0.2429 -0.2342  0.9604
 9620SOL    HW233708   2.517   6.587   6.463  0.3266  0.9455 -1.7160
 9621SOL     OW33709   3.652   7.469   5.865 -0.1428 -0.2074  0.0729
 9621SOL    HW133710   3.733   7.518   5.880 -0.5039  0.3357  0.2586
 9621SOL    HW233711   3.676   7.378   5.882  0.2523  0.0344  0.8249
 9622SOL     OW33712   3.366   6.689   9.184 -0.0848  0.4052 -0.0930
 9622SOL    HW133713   3.333   6.667   9.097 -0.1740 -1.4866  0.3728
 9622SOL    HW233714   3.460   6.702   9.171  0.3787 -2.3166 -0.1667
 9623SOL     OW33715   1.305   7.295   0.175 -1.1766 -0.0352 -0.1653
 9623SOL    HW133716   1.234   7.320   0.234 -0.0464  2.4942  0.2949
 9623SOL    HW233717   1.277   7.325   0.089 -0.5569  1.4099  0.0950
 9624SOL     OW33718   3.977   7.432   5.974  0.2902  0.0351 -0.0301
 9624SOL    HW133719   3.914   7.494   5.936  1.6835  1.6253  0.1463
 9624SOL    HW233720   3.962   7.438   6.068  0.0584 -0.3204 -0.0425
 9625SOL     OW33721   2.306   6.047   6.421  0.3130  0.4844 -0.2552
 9625SOL    HW133722   2.225   6.072   6.377  1.3002  0.3896 -2.2443
 9625SOL    HW233723   2.313   5.953   6.409  1.0044  0.5758 -0.6601
 9626SOL     OW33724   2.632   5.568   5.771  0.5791  0.0979  0.6859
 9626SOL    HW133725   2.588   5.528   5.847 -1.3763 -2.9558 -1.7684
 9626SOL    HW233726   2.562   5.615   5.725  0.7901 -1.2033 -1.0606
 9627SOL     OW33727   0.791   9.305   6.315 -0.1431 -0.0353  0.1213
 9627SOL    HW133728   0.741   9.296   6.395  0.5834  0.7473  0.6831
 9627SOL    HW233729   0.882   9.314   6.344  0.3603 -1.5455 -0.8722
 9628SOL     OW33730   1.876   7.731   4.276 -0.1532  0.2893  0.6226
 9628SOL    HW133731   1.890   7.722   4.181 -0.9083 -0.6492  0.5814
 9628SOL    HW233732   1.941   7.796   4.303  0.2668  0.3734 -0.4924
 9629SOL     OW33733   2.541   7.996   5.297  0.0574  0.3907  0.0109
 9629SOL    HW133734   2.492   7.976   5.217 -0.1909 -2.2660  0.7466
 9629SOL    HW233735   2.598   7.921   5.310  2.3667  2.1418  0.7145
 9630SOL     OW33736   1.222   6.908   7.896 -0.2256  0.6000 -0.6136
 9630SOL    HW133737   1.282   6.835   7.914 -1.0782 -0.2887 -1.2431
 9630SOL    HW233738   1.277   6.986   7.899  0.4946  0.0691  1.2638
 9631SOL     OW33739   1.317   7.729   6.787 -0.4332 -0.0951  0.4096
 9631SOL    HW133740   1.265   7.720   6.866 -1.5619  0.7863 -0.2072
 9631SOL    HW233741   1.407   7.713   6.815 -0.5698  1.8942  2.2238
 9632SOL     OW33742   3.748   3.688   7.936  0.2348 -0.4113  0.1423
 9632SOL    HW133743   3.793   3.649   7.861  0.6398 -0.4442  0.4002
 9632SOL    HW233744   3.685   3.620   7.963  1.4423 -1.2242  1.0468
 9633SOL     OW33745   1.716   7.704   8.763 -0.7956 -0.6185  0.0343
 9633SOL    HW133746   1.697   7.775   8.702  1.3252 -1.4868 -1.7540
 9633SOL    HW233747   1.646   7.640   8.747 -0.6014 -0.5722 -1.0702
 9634SOL     OW33748   1.897   5.775   4.386  0.6943  0.3571 -0.4904
 9634SOL    HW133749   1.919   5.759   4.295  2.1214 -1.3321  0.0764
 9634SOL    HW233750   1.813   5.730   4.399 -0.4276  2.1175 -1.3523
 9635SOL     OW33751   2.563   6.677   7.504 -0.3600  0.0124 -0.1156
 9635SOL    HW133752   2.512   6.758   7.511  0.0602  0.2960 -0.2442
 9635SOL    HW233753   2.592   6.676   7.413 -2.1288 -1.3823 -0.7137
 9636SOL     OW33754   2.899   3.974   8.812 -0.0082  0.6280 -0.3468
 9636SOL    HW133755   2.933   3.957   8.900  1.3648 -0.6195 -1.0691
 9636SOL    HW233756   2.959   4.038   8.775  0.7473 -0.4910 -1.1182
 9637SOL     OW33757   1.863   6.592   7.729  0.5232  0.1725 -0.4328
 9637SOL    HW133758   1.786   6.535   7.737  0.5771  0.2646  0.9135
 9637SOL    HW233759   1.833   6.677   7.762  1.0196  0.3876 -0.5325
 9638SOL     OW33760   1.544   6.128   8.153 -0.6635  0.3412 -0.1490
 9638SOL    HW133761   1.532   6.196   8.086  1.7035 -0.8635 -1.9704
 9638SOL    HW233762   1.515   6.048   8.110 -0.0599 -0.3074  0.6210
 9639SOL     OW33763   1.598   8.341   9.836  0.3319  0.4462  0.0295
 9639SOL    HW133764   1.551   8.267   9.875  3.3529 -0.4057  2.4597
 9639SOL    HW233765   1.624   8.309   9.750  1.2582 -1.2397  0.8907
 9640SOL     OW33766   3.496   7.276   4.755 -0.1305  0.0909 -0.0876
 9640SOL    HW133767   3.446   7.332   4.694  0.1439  0.4860  0.0456
 9640SOL    HW233768   3.546   7.338   4.809  0.8900 -0.3096 -0.5446
 9641SOL     OW33769   3.078   6.887   7.066  0.1743 -0.0473  0.0734
 9641SOL    HW133770   3.165   6.849   7.072  0.2795  0.1958  0.0964
 9641SOL    HW233771   3.072   6.919   6.976 -0.5535 -1.6502 -0.4774
 9642SOL     OW33772   0.405   8.365   6.376  1.0207  0.2957 -0.1952
 9642SOL    HW133773   0.462   8.289   6.366  0.0461 -0.7212  1.4295
 9642SOL    HW233774   0.464   8.437   6.397  1.9836  0.1009 -2.0066
 9643SOL     OW33775   3.128   5.147   9.694  0.4576  0.3638 -0.4306
 9643SOL    HW133776   3.117   5.240   9.714 -1.5565 -0.0161  0.5649
 9643SOL    HW233777   3.154   5.144   9.602  0.7711  1.9192 -0.4034
 9644SOL     OW33778   2.840   4.282   5.918  0.2770  0.1728 -0.1595
 9644SOL    HW133779   2.838   4.347   5.848 -0.2404  0.8996  0.5023
 9644SOL    HW233780   2.867   4.332   5.996 -1.1087 -0.1676  0.5750
 9645SOL     OW33781   1.920   5.345   7.264  0.1667 -0.0080 -0.4050
 9645SOL    HW133782   1.916   5.256   7.298 -0.0491 -0.4826 -1.6475
 9645SOL    HW233783   1.829   5.376   7.268  0.1901  0.0471 -0.2794
 9646SOL     OW33784   5.880   7.508   7.413  0.5617  0.1562  0.1717
 9646SOL    HW133785   5.944   7.473   7.350  0.9099 -1.9048  1.5510
 9646SOL    HW233786   5.863   7.597   7.383  0.1122 -0.9297 -3.2744
 9647SOL     OW33787   2.230   5.285   4.557  0.0965 -0.2275 -0.1588
 9647SOL    HW133788   2.173   5.222   4.513 -0.8184  1.5793 -1.6898
 9647SOL    HW233789   2.222   5.263   4.650 -0.5682 -2.0343 -0.5970
 9648SOL     OW33790   1.868   8.145   6.908  0.5724  0.1812 -0.4513
 9648SOL    HW133791   1.802   8.149   6.977  1.0692 -0.3622  0.0683
 9648SOL    HW233792   1.927   8.075   6.936  0.3449 -0.6045 -1.8186
 9649SOL     OW33793   1.981   7.640   5.795  0.2970 -0.1457  0.7469
 9649SOL    HW133794   1.900   7.691   5.804  0.6297  0.4184  0.5630
 9649SOL    HW233795   1.973   7.600   5.708 -0.5999 -1.5403  1.4414
 9650SOL     OW33796   3.970   3.426   4.175  0.6082  0.0639  0.3996
 9650SOL    HW133797   3.950   3.383   4.092 -0.1137  1.0597  0.0401
 9650SOL    HW233798   3.907   3.498   4.180  0.4015 -0.1921  1.9763
 9651SOL     OW33799   2.453   9.010   6.872 -0.0109 -0.1091 -0.9727
 9651SOL    HW133800   2.482   8.928   6.832 -0.6852 -0.7909 -0.1027
 9651SOL    HW233801   2.369   9.029   6.831 -0.7005 -0.8062  0.0850
 9652SOL     OW33802   2.561   5.748   7.472 -0.3452 -0.0173 -0.3619
 9652SOL    HW133803   2.635   5.718   7.525  0.7772 -0.8894 -2.2905
 9652SOL    HW233804   2.583   5.719   7.383 -1.3690  2.6881 -1.6153
 9653SOL     OW33805   1.486   3.906   7.522  0.1168  0.3261 -0.0341
 9653SOL    HW133806   1.440   3.979   7.564 -0.0924 -0.0731  0.4444
 9653SOL    HW233807   1.562   3.890   7.578  1.1038  1.2679 -1.0595
 9654SOL     OW33808   2.411   5.440   5.513  0.5120 -0.3606  0.6592
 9654SOL    HW133809   2.337   5.501   5.514  1.6888  1.2469 -1.3902
 9654SOL    HW233810   2.484   5.493   5.481  1.9290 -2.5452  0.1044
 9655SOL     OW33811   2.854   7.218   6.391  0.2941 -0.1248 -0.3135
 9655SOL    HW133812   2.918   7.288   6.405 -0.4820  0.2419  1.6831
 9655SOL    HW233813   2.906   7.143   6.363  1.2113  1.0405 -1.9137
 9656SOL     OW33814   3.742   3.359   8.092 -0.5527 -0.2028  0.2451
 9656SOL    HW133815   3.807   3.389   8.028  0.4668 -1.6626  0.5215
 9656SOL    HW233816   3.699   3.285   8.049 -1.3551  0.1388  0.4479
 9657SOL     OW33817   3.382   7.150   8.875  0.2176 -0.4608  0.3298
 9657SOL    HW133818   3.461   7.164   8.928 -0.2160 -0.7195  1.0747
 9657SOL    HW233819   3.341   7.074   8.915 -0.3842 -0.3536 -0.0787
 9658SOL     OW33820   1.549   7.503   8.751  0.0884  0.3664 -0.7709
 9658SOL    HW133821   1.454   7.498   8.743  0.0657  2.4010 -2.7655
 9658SOL    HW233822   1.581   7.424   8.705 -0.5842 -1.1901  1.2941
 9659SOL     OW33823   1.096   6.055   7.330  0.1545 -0.3512 -0.1223
 9659SOL    HW133824   1.192   6.050   7.335  0.2694  0.3689 -1.2187
 9659SOL    HW233825   1.068   6.068   7.420  1.2681  1.7052 -0.0151
 9660SOL     OW33826   1.691   4.666   5.539  0.6388 -0.1374  0.4505
 9660SOL    HW133827   1.719   4.698   5.625  1.3101 -0.9316  0.5411
 9660SOL    HW233828   1.665   4.745   5.491  0.3681  0.3256  1.3373
 9661SOL     OW33829   3.541   8.542   6.528 -0.1271 -0.0457 -0.1266
 9661SOL    HW133830   3.611   8.544   6.463 -1.2460 -0.1223 -1.3594
 9661SOL    HW233831   3.482   8.613   6.502 -1.8013 -1.5491 -0.6132
 9662SOL     OW33832   0.889   7.000   6.298 -0.2375  0.1307 -0.7371
 9662SOL    HW133833   0.862   7.076   6.246 -1.7822 -1.4302 -2.3079
 9662SOL    HW233834   0.985   7.000   6.292 -0.1346  2.3031 -0.1067
 9663SOL     OW33835   1.530   8.381   9.309 -0.3015  0.0903  0.5609
 9663SOL    HW133836   1.454   8.355   9.361 -0.9562  1.0547  0.1423
 9663SOL    HW233837   1.505   8.467   9.273  0.3711 -0.2565 -0.8113
 9664SOL     OW33838   3.836   7.969   6.509 -0.1631 -0.1385 -0.4178
 9664SOL    HW133839   3.790   8.029   6.451  0.0363  0.4775  0.0463
 9664SOL    HW233840   3.925   8.005   6.516 -0.0191 -0.5223 -0.1886
 9665SOL     OW33841   1.486   6.592   6.614 -0.3044 -0.1263 -0.2083
 9665SOL    HW133842   1.515   6.512   6.569  0.7344 -0.1143  0.4202
 9665SOL    HW233843   1.418   6.628   6.557  0.2870 -0.6397 -1.2686
 9666SOL     OW33844   2.278   8.843   5.955 -0.2458 -0.5806  0.6222
 9666SOL    HW133845   2.358   8.797   5.981  0.3980  0.2732  0.2341
 9666SOL    HW233846   2.243   8.791   5.882  0.7752 -0.1854 -0.1812
 9667SOL     OW33847   1.539   6.564   6.873 -0.2576 -0.4333 -0.1601
 9667SOL    HW133848   1.593   6.640   6.896 -0.0813 -0.6836  0.2547
 9667SOL    HW233849   1.511   6.581   6.783 -0.3287  0.1892 -0.0239
 9668SOL     OW33850   8.890   7.794   7.038 -0.5873 -0.6193  0.2201
 9668SOL    HW133851   8.921   7.716   6.993 -0.9437 -0.0362 -1.0713
 9668SOL    HW233852   8.868   7.856   6.968 -0.2755  0.6586  1.2123
 9669SOL     OW33853   1.499   6.679   7.911 -0.6694  0.1305  0.1023
 9669SOL    HW133854   1.562   6.706   7.978  0.7127  1.6184 -1.6953
 9669SOL    HW233855   1.528   6.724   7.832 -2.0081 -1.8807 -1.6108
 9670SOL     OW33856   0.694   6.651   5.714  0.3428  0.3172  0.2331
 9670SOL    HW133857   0.607   6.652   5.675 -0.4655  1.6641  1.9663
 9670SOL    HW233858   0.751   6.617   5.644 -1.1709  1.6211 -1.7348
 9671SOL     OW33859   2.227   8.002   6.473  0.2197 -0.0067  0.6519
 9671SOL    HW133860   2.209   7.949   6.396 -0.2444 -0.9427  1.3788
 9671SOL    HW233861   2.175   8.082   6.460 -0.5868 -0.5606  0.4261
 9672SOL     OW33862   1.890   9.120   6.390 -0.0331  0.1306  0.2389
 9672SOL    HW133863   1.827   9.064   6.435 -0.2182  0.3168  0.2174
 9672SOL    HW233864   1.867   9.209   6.418 -0.6528  0.3239 -0.8032
 9673SOL     OW33865   0.409   4.435   7.102  0.2459  0.0099  0.1772
 9673SOL    HW133866   0.452   4.446   7.017 -3.0464 -2.2758 -2.0309
 9673SOL    HW233867   0.393   4.525   7.132  1.3496  0.9039 -1.6878
 9674SOL     OW33868   2.321   7.321   4.623  0.0834  0.8653  0.3551
 9674SOL    HW133869   2.401   7.372   4.638 -0.5190  2.2791 -0.9851
 9674SOL    HW233870   2.345   7.231   4.648  1.7137  1.4665  1.1090
 9675SOL     OW33871   3.567   7.671   5.655 -0.2109 -0.5183 -0.5390
 9675SOL    HW133872   3.476   7.663   5.628 -0.3518 -1.3176  0.1305
 9675SOL    HW233873   3.580   7.599   5.717 -0.5135  2.4155  3.2458
 9676SOL     OW33874   1.056   6.758   6.483 -0.2377  0.0543  0.4663
 9676SOL    HW133875   1.057   6.693   6.553  0.0175  1.0223  1.3761
 9676SOL    HW233876   1.141   6.801   6.488 -1.2958  2.1532  1.5210
 9677SOL     OW33877   0.463   7.256   8.600 -0.0701 -0.4317 -0.4333
 9677SOL    HW133878   0.458   7.330   8.660  0.5226 -0.0586 -0.8349
 9677SOL    HW233879   0.556   7.239   8.589 -0.1712 -0.6224 -1.0869
 9678SOL     OW33880   1.962   7.899   6.506 -0.0154  0.1268  0.3514
 9678SOL    HW133881   2.044   7.849   6.509  0.6190  1.0491 -0.7447
 9678SOL    HW233882   1.969   7.960   6.579  1.2664  1.6008 -0.9129
 9679SOL     OW33883   1.322   6.341   8.957 -0.7530 -0.2424 -0.1155
 9679SOL    HW133884   1.242   6.380   8.922 -1.3550 -0.4791  0.9717
 9679SOL    HW233885   1.370   6.415   8.995  0.5498  0.2547 -2.5307
 9680SOL     OW33886   2.004   7.953   4.384  0.2035 -0.8891  0.0074
 9680SOL    HW133887   2.018   8.033   4.334 -0.2547  1.2921  3.0405
 9680SOL    HW233888   2.092   7.919   4.400  0.5928  0.3164  0.5556
 9681SOL     OW33889   1.278   6.779   8.333 -0.3458 -0.5506  0.1788
 9681SOL    HW133890   1.210   6.843   8.353 -1.9242 -2.0567 -0.0462
 9681SOL    HW233891   1.360   6.826   8.342 -1.4246  1.3619  0.4269
 9682SOL     OW33892   2.137   7.006   8.054  0.2728 -0.1695 -0.5288
 9682SOL    HW133893   2.104   7.095   8.037 -1.1508 -0.9308 -2.0680
 9682SOL    HW233894   2.225   7.006   8.018  1.1987  1.2257  1.5154
 9683SOL     OW33895   2.938   7.219   4.673  0.0848  0.5409  0.6431
 9683SOL    HW133896   2.900   7.154   4.732  1.3400 -0.6266  0.2218
 9683SOL    HW233897   3.006   7.261   4.724 -0.7797  1.6300  0.9414
 9684SOL     OW33898   8.687   8.268   5.725  0.3595 -0.5484  0.1218
 9684SOL    HW133899   8.596   8.246   5.709  0.2823 -0.4976  0.4707
 9684SOL    HW233900   8.687   8.308   5.812  0.8365 -1.3633  0.5174
 9685SOL     OW33901   1.328   5.664   4.296  0.8965  0.1396 -0.0619
 9685SOL    HW133902   1.300   5.745   4.339  1.2874  0.3605 -0.2149
 9685SOL    HW233903   1.263   5.599   4.322  1.9475 -0.1342  2.1744
 9686SOL     OW33904   1.647   5.539   8.286 -0.3896  0.1672  0.0453
 9686SOL    HW133905   1.660   5.629   8.315  1.5096  0.0911 -0.4406
 9686SOL    HW233906   1.657   5.542   8.191 -1.7743 -0.3449 -0.1417
 9687SOL     OW33907   2.643   4.584   6.983  0.0770 -0.2987  0.2643
 9687SOL    HW133908   2.729   4.546   7.001  0.7230  1.1915  0.4463
 9687SOL    HW233909   2.623   4.554   6.894  1.5090  0.5421 -0.3977
 9688SOL     OW33910   2.568   6.047   7.495  0.3615  0.2911 -0.9089
 9688SOL    HW133911   2.582   5.953   7.507  0.3271  0.2620 -1.0955
 9688SOL    HW233912   2.618   6.088   7.566 -1.7942  0.0307  0.8663
 9689SOL     OW33913   2.833   5.461   8.758 -0.3519 -0.0048 -0.0145
 9689SOL    HW133914   2.855   5.378   8.717 -0.9470  1.1827 -3.0034
 9689SOL    HW233915   2.886   5.526   8.712 -1.7207  1.5448  0.4765
 9690SOL     OW33916   3.451   6.602   5.699  0.1454  0.4664  0.2630
 9690SOL    HW133917   3.459   6.526   5.641  0.9559 -0.0311  0.9960
 9690SOL    HW233918   3.541   6.620   5.728 -0.0928  1.4433  0.4369
 9691SOL     OW33919   2.826   5.795   6.724  0.2555 -0.5006  0.3443
 9691SOL    HW133920   2.839   5.817   6.816  0.8179 -0.0513  0.1616
 9691SOL    HW233921   2.762   5.860   6.693  1.0085  0.1337  0.1068
 9692SOL     OW33922   2.042   6.949   6.143  0.1794  0.3976 -0.3316
 9692SOL    HW133923   2.079   6.861   6.138 -1.9114 -0.5710  0.2085
 9692SOL    HW233924   2.093   7.000   6.081  1.3909 -1.2035 -0.7170
 9693SOL     OW33925   0.510   7.299   6.616 -0.0847 -0.3767  0.5888
 9693SOL    HW133926   0.515   7.272   6.524 -0.2484  2.4914 -0.3845
 9693SOL    HW233927   0.599   7.327   6.638 -0.2462 -0.1855  1.0072
 9694SOL     OW33928   2.506   6.459   4.935 -0.5197 -0.0778  0.5985
 9694SOL    HW133929   2.517   6.460   5.030 -2.6827  1.3283  0.9150
 9694SOL    HW233930   2.524   6.549   4.908 -1.7429 -0.0086 -0.0369
 9695SOL     OW33931   2.254   4.962   4.630  0.3309 -0.2149  0.2426
 9695SOL    HW133932   2.201   5.028   4.587  0.4852 -0.2405  0.0130
 9695SOL    HW233933   2.263   4.892   4.566  1.0887  0.0213  0.0749
 9696SOL     OW33934   4.015   6.392   9.137  0.2649  0.2907  0.4704
 9696SOL    HW133935   4.035   6.465   9.079 -0.0118 -0.1356 -0.1736
 9696SOL    HW233936   4.100   6.350   9.153  0.2179 -0.1813 -0.4437
 9697SOL     OW33937   1.376   6.234   4.706 -0.2265  0.5241  0.2059
 9697SOL    HW133938   1.402   6.286   4.630  0.4083  1.6910  1.1838
 9697SOL    HW233939   1.386   6.143   4.677  0.7833  0.9370 -0.8439
 9698SOL     OW33940   3.206   8.347   3.917 -0.2837 -1.0960 -0.6751
 9698SOL    HW133941   3.285   8.347   3.970 -1.6646  1.4859  1.6429
 9698SOL    HW233942   3.228   8.400   3.841  0.2216 -0.3202 -0.0035
 9699SOL     OW33943   2.027   6.967   7.772  0.2266  0.0413 -0.2886
 9699SOL    HW133944   2.101   6.913   7.742 -0.3609 -1.2605  0.4931
 9699SOL    HW233945   2.023   6.951   7.866 -1.9921 -1.1781 -0.5377
 9700SOL     OW33946   1.843   6.489   7.241 -0.4306 -0.2990 -0.4077
 9700SOL    HW133947   1.753   6.466   7.219 -0.8598 -0.6765  1.5680
 9700SOL    HW233948   1.896   6.423   7.196 -1.1856 -0.5815 -0.9024
 9701SOL     OW33949   3.959   6.641   8.301 -0.0805 -0.1303 -0.4866
 9701SOL    HW133950   4.026   6.680   8.359  0.2985  0.2071 -1.1362
 9701SOL    HW233951   3.889   6.706   8.299 -0.0218 -0.0693 -0.5446
 9702SOL     OW33952   3.754   7.038   8.759  0.1978 -0.5282  0.1587
 9702SOL    HW133953   3.841   6.999   8.769  0.2300 -0.6462 -0.4977
 9702SOL    HW233954   3.693   6.969   8.782  0.2832 -0.1881  1.4422
 9703SOL     OW33955   2.353   7.987   7.020  0.0501  0.2927 -0.5600
 9703SOL    HW133956   2.345   7.902   7.063  0.2175  0.9902  0.8887
 9703SOL    HW233957   2.264   8.008   6.992 -0.4082  0.6160  1.0331
 9704SOL     OW33958   2.729   5.493   6.964 -1.1220  0.1426  0.2118
 9704SOL    HW133959   2.795   5.452   7.021 -1.3718  1.4906  1.5202
 9704SOL    HW233960   2.779   5.533   6.893 -0.7515 -0.9750 -0.1749
 9705SOL     OW33961   1.882   7.002   6.993 -0.2097  0.7745 -0.0305
 9705SOL    HW133962   1.787   7.010   6.999 -0.5361 -0.3544 -2.4367
 9705SOL    HW233963   1.899   6.908   6.999  0.8878  1.0206  1.3198
 9706SOL     OW33964   2.526   7.445   5.966 -0.0685 -0.1097  0.6170
 9706SOL    HW133965   2.576   7.517   6.005  0.8152 -0.8515  0.8974
 9706SOL    HW233966   2.586   7.370   5.969  0.5673  0.0113 -3.2560
 9707SOL     OW33967   3.783   5.877   9.087 -0.5266 -0.0581  0.4662
 9707SOL    HW133968   3.845   5.819   9.131  1.0530  0.5890 -0.8114
 9707SOL    HW233969   3.804   5.964   9.120  1.0387  0.5159 -1.8350
 9708SOL     OW33970   3.402   6.588   6.250 -0.2859 -0.3387  0.5420
 9708SOL    HW133971   3.470   6.587   6.318  1.3445  0.4940 -0.9974
 9708SOL    HW233972   3.447   6.621   6.172 -1.4490 -3.3960 -1.6036
 9709SOL     OW33973   0.268   7.237   5.527  0.5551 -0.0478  0.2527
 9709SOL    HW133974   0.222   7.312   5.488  0.9368 -0.0360 -0.1786
 9709SOL    HW233975   0.330   7.277   5.589 -0.2718 -0.0811  1.1217
 9710SOL     OW33976   0.170   5.518   6.788 -0.0650  0.0866  0.3876
 9710SOL    HW133977   0.095   5.566   6.753  0.8919  1.0541 -0.4037
 9710SOL    HW233978   0.154   5.427   6.764 -0.6492  0.3832 -0.3670
 9711SOL     OW33979   2.651   5.446   9.212  0.8162 -0.0224 -0.4313
 9711SOL    HW133980   2.701   5.377   9.255 -0.3865  0.1666  1.3898
 9711SOL    HW233981   2.567   5.446   9.258 -0.3318  0.6414 -2.4081
 9712SOL     OW33982   1.400   7.947   3.928 -0.1124  0.0260  0.3585
 9712SOL    HW133983   1.327   7.961   3.867 -0.8455  0.3814  1.2979
 9712SOL    HW233984   1.477   7.977   3.879 -0.3072 -1.8884 -1.2668
 9713SOL     OW33985   3.441   5.877   4.794 -0.0225 -0.0861 -0.0368
 9713SOL    HW133986   3.527   5.847   4.823 -0.1323 -0.0444  0.3330
 9713SOL    HW233987   3.387   5.798   4.793 -0.3878  0.1394  1.2124
 9714SOL     OW33988   2.518   7.710   5.100  0.2413 -0.0470 -0.0503
 9714SOL    HW133989   2.475   7.665   5.027 -2.4635  1.6686  0.3478
 9714SOL    HW233990   2.555   7.789   5.062  0.3722 -0.0116  0.1491
 9715SOL     OW33991   0.432   6.685   8.514 -0.0794  0.0766 -0.4636
 9715SOL    HW133992   0.494   6.753   8.490  1.1020 -1.0027 -0.5780
 9715SOL    HW233993   0.416   6.699   8.607 -1.4186  1.7097 -0.8951
 9716SOL     OW33994   0.970   7.493   6.599 -0.1447  0.5810 -0.2745
 9716SOL    HW133995   1.042   7.435   6.573 -0.2277  0.0361  0.6491
 9716SOL    HW233996   0.945   7.538   6.519 -0.7879 -1.4387 -1.2702
 9717SOL     OW33997   1.590   3.048   6.280  0.2051 -0.2581 -0.6119
 9717SOL    HW133998   1.501   3.015   6.270  0.2690 -1.4287  1.8920
 9717SOL    HW233999   1.646   2.977   6.249  0.2764 -0.4476 -0.0632
 9718SOL     OW34000   1.852   7.248   5.739  0.0550 -0.2794 -0.4612
 9718SOL    HW134001   1.790   7.298   5.685 -1.7780 -2.2259 -0.3027
 9718SOL    HW234002   1.936   7.291   5.725 -1.4139  3.1855  0.1040
 9719SOL     OW34003   3.101   7.611   6.903  0.0375 -0.3393  0.5884
 9719SOL    HW134004   3.041   7.635   6.833  0.6651  1.4124  0.6069
 9719SOL    HW234005   3.152   7.538   6.867 -0.1713  0.0286 -0.4808
 9720SOL     OW34006   0.695   6.441   8.050  0.0882  0.0313 -0.9014
 9720SOL    HW134007   0.627   6.500   8.082  1.4157 -0.4540  3.4460
 9720SOL    HW234008   0.646   6.369   8.010 -1.9504  0.4627  0.6303
 9721SOL     OW34009   4.298   8.688   5.390  0.1115  0.5936  0.3283
 9721SOL    HW134010   4.352   8.617   5.356 -1.1362 -0.1750 -0.1214
 9721SOL    HW234011   4.347   8.723   5.465  0.1769 -1.5579  1.3437
 9722SOL     OW34012   2.718   6.216   6.959 -0.4346  0.4769  0.2218
 9722SOL    HW134013   2.744   6.307   6.970 -0.8371  0.5013  0.9813
 9722SOL    HW234014   2.678   6.191   7.042 -2.2971  0.2607 -0.6745
 9723SOL     OW34015   1.707   4.943   0.523  0.2817  0.0472  0.9299
 9723SOL    HW134016   1.779   4.918   0.465 -0.2029 -0.4007  0.5088
 9723SOL    HW234017   1.738   5.023   0.567  1.8677 -1.2463  2.2953
 9724SOL     OW34018   2.125   8.290   3.106  0.0392 -0.3181  0.2935
 9724SOL    HW134019   2.109   8.228   3.177 -0.7587  0.2075  0.5896
 9724SOL    HW234020   2.111   8.376   3.146 -0.8451 -0.0342 -0.6118
 9725SOL     OW34021   3.214   7.154   7.114  0.6731 -0.3991 -0.0294
 9725SOL    HW134022   3.259   7.155   7.029  0.5686 -1.2394 -0.0991
 9725SOL    HW234023   3.128   7.118   7.095  0.4663 -0.1203  0.3571
 9726SOL     OW34024   2.650   6.019   5.008 -0.0412 -0.2981  0.2641
 9726SOL    HW134025   2.622   5.927   5.014  1.0234 -0.8158 -1.6787
 9726SOL    HW234026   2.738   6.020   5.045  0.5689 -0.4200 -1.1310
 9727SOL     OW34027   2.875   7.907   8.672 -0.1742  0.2337 -0.3315
 9727SOL    HW134028   2.939   7.843   8.703 -0.3157  1.4796  2.8468
 9727SOL    HW234029   2.927   7.966   8.617  0.8185 -0.3325 -0.0356
 9728SOL     OW34030   2.461   5.820   4.374  0.5451  0.3133 -0.3126
 9728SOL    HW134031   2.453   5.830   4.279  1.2882  0.7049 -0.3383
 9728SOL    HW234032   2.385   5.867   4.409 -0.6680 -1.2029 -0.7474
 9729SOL     OW34033   1.958   5.267   5.809 -0.3103 -0.2377  0.1432
 9729SOL    HW134034   1.868   5.268   5.842  0.2501  1.9052  1.8254
 9729SOL    HW234035   1.987   5.358   5.814  2.8264 -1.1820  2.1836
 9730SOL     OW34036   3.543   7.921   5.223 -0.0141 -0.1977  0.6426
 9730SOL    HW134037   3.614   7.920   5.158 -0.0117 -0.7535  0.6515
 9730SOL    HW234038   3.474   7.868   5.183  0.1474 -0.8906  1.2755
 9731SOL     OW34039   0.019   7.550   8.105 -0.8099 -0.5258 -0.2394
 9731SOL    HW134040  -0.029   7.616   8.156 -0.7432  0.2672 -1.1929
 9731SOL    HW234041  -0.050   7.498   8.063 -0.8601 -0.9911  0.4055
 9732SOL     OW34042   3.525   6.518   6.930 -0.2131 -0.1222 -0.1702
 9732SOL    HW134043   3.570   6.473   7.001  0.1039 -0.9165 -0.8590
 9732SOL    HW234044   3.490   6.598   6.970  0.0679 -0.4942  0.8388
 9733SOL     OW34045   1.886   4.461   6.767 -0.1082  0.2895 -0.7137
 9733SOL    HW134046   1.882   4.552   6.796 -0.4292  0.5071 -1.4296
 9733SOL    HW234047   1.957   4.460   6.703  0.3410 -0.1116 -0.2233
 9734SOL     OW34048   1.899   2.431   7.274  0.1733 -0.2702 -0.3113
 9734SOL    HW134049   1.828   2.430   7.211 -1.0545 -0.1057  1.0076
 9734SOL    HW234050   1.977   2.456   7.224 -1.2656  2.7383 -1.2738
 9735SOL     OW34051   1.892   6.994   6.364 -0.4585  0.5768 -1.0000
 9735SOL    HW134052   1.922   6.950   6.444 -0.3685  2.1325 -0.1558
 9735SOL    HW234053   1.951   6.961   6.296  0.3802  0.3046 -0.1615
 9736SOL     OW34054   2.982   7.232   9.723  0.2599 -0.2595 -0.3918
 9736SOL    HW134055   2.915   7.297   9.742  0.5139  0.0932 -0.6816
 9736SOL    HW234056   3.055   7.255   9.781  0.5960  0.1166 -0.9546
 9737SOL     OW34057   3.440   6.929   7.540  0.6714  0.6296 -0.0609
 9737SOL    HW134058   3.370   6.909   7.601  0.4662 -0.9159 -0.7540
 9737SOL    HW234059   3.444   7.024   7.537 -0.6822  0.7247  0.7912
 9738SOL     OW34060   3.230   7.266   9.181  0.6447  0.0121  0.0273
 9738SOL    HW134061   3.207   7.192   9.123  0.9205 -1.3928  1.6446
 9738SOL    HW234062   3.175   7.253   9.258  0.4699  1.7230  0.2248
 9739SOL     OW34063   0.911   7.204   9.800 -0.4905  0.1222 -0.2657
 9739SOL    HW134064   0.980   7.262   9.832  0.1411  0.5230 -2.1916
 9739SOL    HW234065   0.923   7.204   9.705 -1.6501 -1.7168 -0.4483
 9740SOL     OW34066   1.011   5.834   9.255  0.4761  0.5148  0.3056
 9740SOL    HW134067   1.055   5.841   9.170  0.0393  0.8009  0.0968
 9740SOL    HW234068   0.962   5.752   9.249  1.0217  0.1608  0.5634
 9741SOL     OW34069   5.333   5.739   8.200  0.3939  0.1201  0.3536
 9741SOL    HW134070   5.388   5.765   8.273  0.4224  1.8617 -0.2467
 9741SOL    HW234071   5.250   5.712   8.241  2.0021 -3.9446  1.3885
 9742SOL     OW34072   9.789   8.075   6.339  0.0518 -0.5001  0.4002
 9742SOL    HW134073   9.874   8.031   6.349  0.8026  0.4773 -1.3094
 9742SOL    HW234074   9.774   8.117   6.424  2.4166  1.2349  0.0342
 9743SOL     OW34075   2.673   8.330   0.097 -0.2628 -0.0499 -0.0186
 9743SOL    HW134076   2.706   8.414   0.063  0.3823 -0.2974 -0.0114
 9743SOL    HW234077   2.578   8.343   0.104 -0.1877  0.6273 -0.1702
 9744SOL     OW34078   0.847   4.515   7.536  0.3051  0.0823 -0.2590
 9744SOL    HW134079   0.839   4.483   7.446 -1.4645 -0.8760  0.1964
 9744SOL    HW234080   0.777   4.580   7.544  2.4246  2.5587 -0.4721
 9745SOL     OW34081   3.649   4.721   6.635  0.2356 -0.1343  0.0617
 9745SOL    HW134082   3.705   4.653   6.674  0.6378 -0.6325 -1.3305
 9745SOL    HW234083   3.591   4.747   6.706 -0.8174 -2.8811  0.3324
 9746SOL     OW34084   1.724   6.308   8.697  0.3901 -0.1511  0.2480
 9746SOL    HW134085   1.800   6.254   8.719 -0.3540 -1.4969 -0.3553
 9746SOL    HW234086   1.655   6.278   8.757 -0.3717 -0.7066 -0.8831
 9747SOL     OW34087   0.630   4.165   0.285  0.1599 -0.4546  0.6634
 9747SOL    HW134088   0.694   4.105   0.248  0.2424 -0.5847  1.0081
 9747SOL    HW234089   0.637   4.151   0.380 -0.0423 -0.1294  0.7273
 9748SOL     OW34090   2.128   8.629   0.438 -0.2588  0.0036  0.0661
 9748SOL    HW134091   2.104   8.601   0.350 -0.6097  1.5208 -0.3472
 9748SOL    HW234092   2.206   8.683   0.426  0.4837 -0.8783  0.8472
 9749SOL     OW34093   3.771   7.518   7.073 -0.2907 -0.1347 -0.4126
 9749SOL    HW134094   3.769   7.542   6.980 -0.6484  0.2362 -0.3147
 9749SOL    HW234095   3.738   7.429   7.075 -0.2183 -0.1687 -0.6498
 9750SOL     OW34096   2.218   8.206   8.068 -0.7692  0.0930 -0.0485
 9750SOL    HW134097   2.150   8.240   8.126 -0.7350  0.2707 -0.1083
 9750SOL    HW234098   2.294   8.261   8.087 -0.3340 -0.7662  0.7447
 9751SOL     OW34099   0.566   7.085   8.326 -0.5859  0.3051  0.3068
 9751SOL    HW134100   0.633   7.152   8.311  0.2563 -0.8267 -1.3801
 9751SOL    HW234101   0.506   7.125   8.389  0.3530  2.2825  0.0446
 9752SOL     OW34102   3.103   5.554   4.345 -0.4104  0.2575  0.4609
 9752SOL    HW134103   3.062   5.620   4.288 -2.1426 -1.1548  0.0139
 9752SOL    HW234104   3.105   5.475   4.292 -0.4245 -0.6423  1.7660
 9753SOL     OW34105   1.403   8.620   9.665 -0.0747  0.3137 -0.5533
 9753SOL    HW134106   1.385   8.657   9.752 -0.1091  0.8646 -0.7903
 9753SOL    HW234107   1.393   8.694   9.605 -0.4496 -0.1569 -1.0758
 9754SOL     OW34108   3.594   7.498   9.728 -0.1852 -0.5906 -0.3220
 9754SOL    HW134109   3.607   7.570   9.789  0.6681  0.2051 -1.4149
 9754SOL    HW234110   3.654   7.430   9.759 -1.3501 -1.0585  1.0032
 9755SOL     OW34111   9.101   6.924   7.127 -0.1957  0.7329  0.4446
 9755SOL    HW134112   9.155   6.883   7.060 -0.4411  0.7682  0.2234
 9755SOL    HW234113   9.042   6.982   7.078  2.0639  3.6238  0.8940
 9756SOL     OW34114   2.278   5.648   9.684  0.2788 -0.0347 -0.3707
 9756SOL    HW134115   2.360   5.606   9.710  0.5138 -1.4925 -3.1309
 9756SOL    HW234116   2.296   5.742   9.690  1.3404 -0.2991  1.2513
 9757SOL     OW34117   0.316   5.493   8.720  0.1557  0.3597 -0.2344
 9757SOL    HW134118   0.247   5.532   8.666  0.3872  1.7873  0.4479
 9757SOL    HW234119   0.351   5.566   8.770  0.1689 -0.8506  1.6200
 9758SOL     OW34120   2.165   7.378   8.605 -0.2623 -0.3002 -0.2968
 9758SOL    HW134121   2.105   7.452   8.612 -0.7505 -0.4742 -2.1813
 9758SOL    HW234122   2.252   7.417   8.614 -0.5686  0.2422  0.4247
 9759SOL     OW34123   1.870   7.427   7.545  0.3735  0.0186  0.3212
 9759SOL    HW134124   1.830   7.395   7.626 -0.3992  0.1745  0.0090
 9759SOL    HW234125   1.813   7.394   7.475  0.1950  1.1313 -0.0741
 9760SOL     OW34126   4.506   7.591   7.411 -0.3877 -0.0465 -0.2085
 9760SOL    HW134127   4.428   7.554   7.370 -0.1882  0.4990 -1.1119
 9760SOL    HW234128   4.538   7.655   7.347 -1.4108  2.5923  1.7488
 9761SOL     OW34129   3.461   4.505   1.086 -0.0474 -0.5228  0.2898
 9761SOL    HW134130   3.455   4.595   1.053 -0.5009 -0.8875 -0.6583
 9761SOL    HW234131   3.485   4.515   1.178  0.5820  0.5537  0.0345
 9762SOL     OW34132   3.714   9.807   6.824 -0.1930 -0.1433  0.3385
 9762SOL    HW134133   3.639   9.838   6.774  0.5287  0.6596 -0.2659
 9762SOL    HW234134   3.734   9.879   6.884  0.7130  0.0727 -0.2064
 9763SOL     OW34135   2.888   5.910   9.357 -0.1324 -0.4209  0.0009
 9763SOL    HW134136   2.971   5.894   9.312  0.1316 -0.9657  0.6633
 9763SOL    HW234137   2.830   5.942   9.288  0.9414  1.0855 -0.2566
 9764SOL     OW34138   1.921   8.648   0.742 -0.2004  0.1404 -0.2918
 9764SOL    HW134139   1.856   8.716   0.760 -0.2740 -0.1888  0.7044
 9764SOL    HW234140   1.990   8.664   0.806  0.0874 -0.3239 -0.4862
 9765SOL     OW34141   3.190   9.290   7.777  0.3008  0.5057  0.1934
 9765SOL    HW134142   3.143   9.209   7.797 -0.2303  0.9077  0.6007
 9765SOL    HW234143   3.197   9.290   7.681 -2.0244  1.2298 -0.0445
 9766SOL     OW34144   1.649   7.665   8.445 -0.3600 -0.0824  0.0923
 9766SOL    HW134145   1.578   7.729   8.438 -0.2067 -0.0463 -1.4828
 9766SOL    HW234146   1.723   7.706   8.401  0.1393 -0.8029  0.2450
 9767SOL     OW34147   3.937   8.802   8.860  0.4944  0.0095 -0.0529
 9767SOL    HW134148   3.953   8.814   8.766 -0.1367 -0.7923 -0.2771
 9767SOL    HW234149   3.937   8.890   8.896  2.4482  0.2393 -0.5112
 9768SOL     OW34150   0.737   3.433   8.109 -0.0311  0.7119 -0.0569
 9768SOL    HW134151   0.715   3.417   8.017  1.5370  1.9384 -0.6979
 9768SOL    HW234152   0.795   3.510   8.107  1.4974 -0.2925  1.7842
 9769SOL     OW34153   3.566   5.688   7.532  0.5578  0.3568 -0.1826
 9769SOL    HW134154   3.577   5.603   7.574 -4.6151 -0.2391  0.6239
 9769SOL    HW234155   3.563   5.669   7.438  0.3452 -0.2210 -0.0598
 9770SOL     OW34156   2.248   5.263   1.268 -0.1101 -0.1428 -0.4023
 9770SOL    HW134157   2.188   5.265   1.343  1.6572 -2.3955  1.2088
 9770SOL    HW234158   2.202   5.311   1.199 -2.4467  0.7658  1.6510
 9771SOL     OW34159   3.292   5.717   0.178  0.3943  0.0039 -0.0380
 9771SOL    HW134160   3.240   5.757   0.108 -0.1913  0.1557  0.4661
 9771SOL    HW234161   3.343   5.649   0.135  0.8131  0.7735 -0.7808
 9772SOL     OW34162   4.210   7.191   8.219  0.1400 -0.7157 -0.1202
 9772SOL    HW134163   4.271   7.264   8.227  0.7712 -1.1575 -0.7358
 9772SOL    HW234164   4.126   7.225   8.251  0.7909 -0.2098  1.0909
 9773SOL     OW34165   3.805   6.205   7.719 -0.1031 -0.5771 -0.7923
 9773SOL    HW134166   3.799   6.121   7.765  2.3722 -0.9945 -1.0599
 9773SOL    HW234167   3.852   6.262   7.780 -1.9407  0.7200 -0.5346
 9774SOL     OW34168   3.699   6.680   9.101  0.1000  0.0291 -0.2469
 9774SOL    HW134169   3.719   6.714   9.188 -2.6387  0.4350  0.3112
 9774SOL    HW234170   3.697   6.757   9.044  0.4087 -0.0395 -0.3494
 9775SOL     OW34171   1.907   3.970   0.003 -0.3717 -0.0916 -0.3015
 9775SOL    HW134172   1.877   4.058  -0.018 -1.2605  0.2429  2.0725
 9775SOL    HW234173   1.827   3.917   0.004 -0.2359 -0.3109  0.9455
 9776SOL     OW34174   3.092   8.731   9.365  0.3516  0.0130 -0.5541
 9776SOL    HW134175   3.105   8.637   9.377  1.0341 -0.0728 -1.8312
 9776SOL    HW234176   3.042   8.739   9.285  0.4041  0.7478 -0.5197
 9777SOL     OW34177   3.400   6.237   6.921  0.1015  0.5353 -0.2714
 9777SOL    HW134178   3.356   6.185   6.854  1.3925  0.1782 -0.8714
 9777SOL    HW234179   3.402   6.326   6.885 -3.2383  1.4050  1.2922
 9778SOL     OW34180   3.111   4.494   9.765  0.2889  0.5108  0.4129
 9778SOL    HW134181   3.197   4.537   9.767  0.7440 -0.3916  0.4245
 9778SOL    HW234182   3.082   4.495   9.856  0.4330  0.5282  0.4591
 9779SOL     OW34183   2.447   5.757   9.386 -0.7876 -0.1147  0.6609
 9779SOL    HW134184   2.401   5.674   9.397  0.6436 -1.1460 -0.7215
 9779SOL    HW234185   2.462   5.764   9.291 -0.9098  1.7479  0.7383
 9780SOL     OW34186   2.153   2.816   8.318 -0.3891  0.7648  0.2972
 9780SOL    HW134187   2.070   2.838   8.275 -0.0351  1.5558  0.0058
 9780SOL    HW234188   2.194   2.752   8.261  0.0857  1.8208 -0.5793
 9781SOL     OW34189   3.418   7.871   9.485  0.4344 -0.3449 -0.3834
 9781SOL    HW134190   3.504   7.906   9.459  0.2331 -0.2981 -0.9919
 9781SOL    HW234191   3.395   7.810   9.415 -1.3664  1.7879 -1.7587
 9782SOL     OW34192   3.272   7.727   8.889  0.5385 -0.2154 -0.0884
 9782SOL    HW134193   3.188   7.746   8.846  0.9240  3.0630  0.3185
 9782SOL    HW234194   3.255   7.649   8.942 -1.5479 -1.0207 -1.7802
 9783SOL     OW34195   3.720   7.791   6.696 -0.1788  0.0825  0.7581
 9783SOL    HW134196   3.627   7.794   6.676 -0.2617  0.7457  1.2275
 9783SOL    HW234197   3.761   7.840   6.625 -0.1013 -0.9121  0.1002
 9784SOL     OW34198   3.629   8.347   1.018 -0.2918  0.3354  0.5850
 9784SOL    HW134199   3.690   8.381   0.954 -0.6102 -0.1675  0.0020
 9784SOL    HW234200   3.600   8.263   0.982 -2.2794  1.1187  0.1989
 9785SOL     OW34201   9.752   8.701   8.349 -0.0733 -0.0259  0.2392
 9785SOL    HW134202   9.697   8.768   8.389 -0.6072 -0.8882  0.9755
 9785SOL    HW234203   9.837   8.711   8.393 -0.4757 -0.5577  1.1544
 9786SOL     OW34204   3.459   6.721   0.484  0.6268  0.2133  0.6707
 9786SOL    HW134205   3.488   6.638   0.448  0.5173 -0.0333  1.1547
 9786SOL    HW234206   3.539   6.771   0.497  0.6884  0.2108  0.3253
 9787SOL     OW34207   3.185   7.189   1.098  0.2700  0.1873  0.3864
 9787SOL    HW134208   3.228   7.266   1.060 -0.0831  0.8977  1.3896
 9787SOL    HW234209   3.135   7.152   1.025  3.0800 -1.1307 -1.0650
 9788SOL     OW34210   4.146   3.864   8.154 -0.2025  0.0401  0.4641
 9788SOL    HW134211   4.215   3.816   8.107 -1.0719 -1.9624  1.1148
 9788SOL    HW234212   4.194   3.918   8.218  0.7896 -2.1002  1.6326
 9789SOL     OW34213   2.831   9.190   1.420 -0.0444 -0.5028 -0.0981
 9789SOL    HW134214   2.754   9.150   1.462  0.2326 -0.9304  0.0051
 9789SOL    HW234215   2.861   9.255   1.483  0.1493 -0.8866  0.2056
 9790SOL     OW34216   5.218   3.617   8.963 -0.5369 -0.4984 -0.0737
 9790SOL    HW134217   5.130   3.599   8.932 -0.8485  1.7980 -0.7582
 9790SOL    HW234218   5.209   3.694   9.019  0.9576 -0.5495  0.2982
 9791SOL     OW34219   1.089   6.486   9.282 -0.5626  0.4447 -0.2806
 9791SOL    HW134220   1.153   6.558   9.281 -0.6994  0.5880  0.5437
 9791SOL    HW234221   1.004   6.529   9.290 -0.5658  0.1734  1.5585
 9792SOL     OW34222   4.011   5.831   8.784  0.0386 -0.0823  0.3765
 9792SOL    HW134223   3.923   5.849   8.751 -0.3082  1.9947  2.2114
 9792SOL    HW234224   4.066   5.825   8.706 -1.1386  2.2552 -0.7330
 9793SOL     OW34225   3.427   7.432   0.201  0.0507 -0.1870 -0.6562
 9793SOL    HW134226   3.397   7.508   0.251 -0.3418 -1.1151  0.5556
 9793SOL    HW234227   3.512   7.458   0.166  0.4591  0.3833  0.7228
 9794SOL     OW34228   2.677   8.125   8.503  0.0010  0.6015 -0.4959
 9794SOL    HW134229   2.769   8.144   8.485  0.7378  0.4193  2.5998
 9794SOL    HW234230   2.636   8.211   8.507  0.4705  0.8009  0.1295
 9795SOL     OW34231   4.401   4.961   8.314  0.2996  0.2772 -0.2525
 9795SOL    HW134232   4.444   4.983   8.396  0.3052  0.7224 -0.3746
 9795SOL    HW234233   4.314   4.929   8.340  1.7584 -3.8927  0.2879
 9796SOL     OW34234   4.982   5.637   7.572  0.6691  0.2826 -0.3270
 9796SOL    HW134235   5.037   5.635   7.494  0.7132 -0.5804 -0.2860
 9796SOL    HW234236   4.903   5.588   7.547  0.3975  0.5702 -0.0407
 9797SOL     OW34237   1.002   4.759   7.675 -0.1818  0.2123  0.0519
 9797SOL    HW134238   1.031   4.689   7.617 -0.2909  2.4825 -2.9557
 9797SOL    HW234239   1.062   4.753   7.750  0.7253 -2.1478 -0.7483
 9798SOL     OW34240   2.139   7.141   6.573  0.2343 -0.0438  0.2770
 9798SOL    HW134241   2.164   7.232   6.559 -1.5144  0.1446 -2.2708
 9798SOL    HW234242   2.074   7.144   6.643 -0.9233  0.8897 -0.8071
 9799SOL     OW34243   0.016   9.181   7.710  0.5196  0.1287 -0.3449
 9799SOL    HW134244   0.089   9.225   7.753  0.5366  0.3344 -0.5806
 9799SOL    HW234245  -0.058   9.241   7.719  0.2648 -0.2676  0.2708
 9800SOL     OW34246   2.767   5.203   0.888 -0.3950 -0.0872 -0.2325
 9800SOL    HW134247   2.719   5.157   0.819  0.1175  1.2656 -1.5676
 9800SOL    HW234248   2.859   5.181   0.871 -0.3141 -0.4072  0.5640
 9801SOL     OW34249   3.040   7.421   6.587 -0.1627  0.2351 -0.1313
 9801SOL    HW134250   3.015   7.416   6.680  1.2066 -0.5125  0.2347
 9801SOL    HW234251   3.129   7.385   6.585 -1.2740 -2.8225 -2.2002
 9802SOL     OW34252   3.393   4.156   8.191 -0.2296  0.1576 -0.1987
 9802SOL    HW134253   3.412   4.070   8.227  2.9014  0.3602 -1.0464
 9802SOL    HW234254   3.358   4.206   8.265  1.0227 -0.9290  1.1803
 9803SOL     OW34255   1.474   5.224   7.437 -0.4751  0.1521 -0.6445
 9803SOL    HW134256   1.397   5.182   7.478  0.4170 -0.7824  0.1314
 9803SOL    HW234257   1.472   5.314   7.470 -1.6485  0.3746 -1.2406
 9804SOL     OW34258   2.088   7.295   8.080  0.0933  0.2471  0.3629
 9804SOL    HW134259   2.029   7.365   8.053 -0.9592 -1.1962 -1.2683
 9804SOL    HW234260   2.066   7.278   8.172 -0.9473  0.7930  0.2238
 9805SOL     OW34261   4.836   3.337   0.572 -0.2587  0.5229 -0.1067
 9805SOL    HW134262   4.897   3.398   0.613  0.8580 -0.1709 -0.6870
 9805SOL    HW234263   4.750   3.378   0.584  0.2694  1.3756  0.9915
 9806SOL     OW34264   0.017   4.486   7.053 -0.0659 -0.5124  0.1419
 9806SOL    HW134265   0.053   4.398   7.045 -0.4340 -0.4943 -2.1664
 9806SOL    HW234266  -0.077   4.474   7.056 -0.1714 -0.1784 -1.1971
 9807SOL     OW34267   2.546   4.343   7.138 -0.3566  0.6225 -0.4476
 9807SOL    HW134268   2.453   4.354   7.118 -0.2551  0.8942 -0.7799
 9807SOL    HW234269   2.577   4.431   7.158 -0.9080  0.1906  3.0322
 9808SOL     OW34270   2.965   7.966   8.031  0.5255 -0.4363  0.1681
 9808SOL    HW134271   2.872   7.950   8.048  0.1267  1.0103 -0.5636
 9808SOL    HW234272   2.986   7.911   7.956  0.4314 -1.1952  0.6779
 9809SOL     OW34273   1.075   5.047   6.726  1.0303  0.0724  0.3520
 9809SOL    HW134274   1.074   4.959   6.762  1.4792 -0.5277 -1.0291
 9809SOL    HW234275   0.984   5.066   6.704  1.0795 -0.5377 -0.4349
 9810SOL     OW34276   4.152   7.829   0.350 -0.1771  0.4859 -0.5247
 9810SOL    HW134277   4.236   7.839   0.395 -0.4649 -2.1537  0.7692
 9810SOL    HW234278   4.088   7.821   0.421 -0.7796 -2.7371 -1.2799
 9811SOL     OW34279   2.496   7.009   7.796  0.7238 -0.2424  0.1808
 9811SOL    HW134280   2.463   6.990   7.884  0.1592 -2.0164 -0.3721
 9811SOL    HW234281   2.417   7.022   7.743  1.0574  0.8913 -0.0707
 9812SOL     OW34282   0.250   7.874   8.634 -0.1821 -0.9643  0.1511
 9812SOL    HW134283   0.207   7.799   8.593 -1.0442 -0.8996  0.9088
 9812SOL    HW234284   0.301   7.835   8.705 -0.1394 -0.8899  0.1605
 9813SOL     OW34285   0.797   6.211   8.373  0.4671  0.0097 -0.5099
 9813SOL    HW134286   0.702   6.216   8.362  0.3348 -1.9338 -0.5719
 9813SOL    HW234287   0.824   6.302   8.386 -1.4398  0.5670 -0.0644
 9814SOL     OW34288   4.266   4.649   9.387 -0.3372 -0.0026 -0.2245
 9814SOL    HW134289   4.287   4.734   9.348  0.2032 -0.2460 -0.4757
 9814SOL    HW234290   4.176   4.631   9.359 -1.0448  1.2106  1.1325
 9815SOL     OW34291   6.012   5.051   8.459  0.2831  0.1279  0.2724
 9815SOL    HW134292   6.066   5.099   8.396 -0.6498  0.1989 -0.5086
 9815SOL    HW234293   6.020   5.101   8.540  0.9949  0.4029  0.0442
 9816SOL     OW34294   2.756   8.630   9.313  0.3789 -0.0954  0.0642
 9816SOL    HW134295   2.666   8.655   9.293  0.4272 -0.1183 -0.1916
 9816SOL    HW234296   2.807   8.666   9.241  0.4436 -0.9622 -0.3406
 9817SOL     OW34297   1.049   8.839   8.467  0.1582 -0.2037 -0.4649
 9817SOL    HW134298   1.017   8.805   8.383 -0.4753 -1.2119  0.1692
 9817SOL    HW234299   1.131   8.884   8.444 -1.9362  3.1127 -2.2666
 9818SOL     OW34300   1.943   7.736   9.469  0.2577  0.0427 -0.2458
 9818SOL    HW134301   1.889   7.738   9.548 -1.5243  2.0008 -1.3938
 9818SOL    HW234302   1.916   7.814   9.420  1.3713 -1.0231 -2.7227
 9819SOL     OW34303   0.328   7.698   8.876  0.2631  0.3531  0.2374
 9819SOL    HW134304   0.377   7.769   8.918 -0.9724  0.6069  1.3246
 9819SOL    HW234305   0.245   7.695   8.923 -0.8879  0.0930 -1.6725
 9820SOL     OW34306   2.974   6.017   7.482  0.1002 -0.6861  0.1383
 9820SOL    HW134307   2.900   6.076   7.500  0.8880  0.5981 -0.6321
 9820SOL    HW234308   3.027   6.021   7.562 -0.2054 -0.9016  0.3533
 9821SOL     OW34309   3.602   6.107   7.134 -0.0358  0.0839  0.0326
 9821SOL    HW134310   3.562   6.085   7.050 -0.6265  0.4729  0.2037
 9821SOL    HW234311   3.669   6.040   7.148 -1.1655 -1.0665  0.1148
 9822SOL     OW34312   3.612   6.205   8.069 -0.3503  0.4352 -0.4824
 9822SOL    HW134313   3.639   6.160   7.989  0.9506 -1.3541  0.8529
 9822SOL    HW234314   3.652   6.291   8.063 -2.1343  1.1967 -2.7145
 9823SOL     OW34315   4.363   6.600   8.774 -0.3603  0.0210 -0.3452
 9823SOL    HW134316   4.343   6.671   8.713  0.1916 -1.6633 -2.6202
 9823SOL    HW234317   4.320   6.523   8.737 -0.8405 -0.9324  1.9653
 9824SOL     OW34318   3.037   6.334   0.334  0.2751  0.0107 -0.2640
 9824SOL    HW134319   3.106   6.400   0.336  1.2766 -0.9052 -2.4308
 9824SOL    HW234320   3.080   6.253   0.363  0.6471 -0.9376 -3.1875
 9825SOL     OW34321   4.577   7.378   9.712  0.0769 -0.0512  0.1256
 9825SOL    HW134322   4.544   7.406   9.626 -2.1754 -2.8025 -0.0826
 9825SOL    HW234323   4.503   7.390   9.771 -0.4420 -3.4548  0.3675
 9826SOL     OW34324   4.675   8.663   7.738 -0.6815 -0.1706 -0.1823
 9826SOL    HW134325   4.647   8.746   7.776 -0.8018  0.2523 -1.1614
 9826SOL    HW234326   4.755   8.640   7.785  0.7477  1.7637 -1.5313
 9827SOL     OW34327   3.673   5.592   0.041 -0.2222  0.3091 -0.6659
 9827SOL    HW134328   3.659   5.684   0.066 -1.1800  0.6348 -2.2580
 9827SOL    HW234329   3.603   5.573  -0.021  0.8717 -1.0355 -1.5569
 9828SOL     OW34330   3.162   6.958   9.311  0.4899 -0.1680 -0.1588
 9828SOL    HW134331   3.167   6.878   9.364 -0.2853 -0.1554 -0.0510
 9828SOL    HW234332   3.087   6.942   9.253  1.6687 -0.4306 -1.6699
 9829SOL     OW34333   2.119   6.257   7.986  0.1204 -0.1075  0.5743
 9829SOL    HW134334   2.154   6.176   8.023  1.4919  0.3063  0.2639
 9829SOL    HW234335   2.183   6.324   8.010  0.4428  0.3879 -1.4550
 9830SOL     OW34336   2.204   5.633   5.445 -0.1755 -0.4694 -0.4574
 9830SOL    HW134337   2.262   5.615   5.371  3.1765  0.7226  1.6314
 9830SOL    HW234338   2.199   5.729   5.448 -0.6318 -0.5160  0.5832
 9831SOL     OW34339   3.538   4.515   8.432 -0.2153 -0.1784 -0.4352
 9831SOL    HW134340   3.489   4.596   8.415 -1.4651 -0.8686 -0.2464
 9831SOL    HW234341   3.615   4.522   8.376  0.8195  2.1003  1.1280
 9832SOL     OW34342   1.556   7.885   9.548 -0.0706  0.0314 -0.0976
 9832SOL    HW134343   1.497   7.960   9.542 -0.0310  0.1906  1.2224
 9832SOL    HW234344   1.524   7.824   9.482 -0.7635  0.7595 -0.4509
 9833SOL     OW34345   2.407   6.775   8.265 -0.3319 -0.0531 -0.2627
 9833SOL    HW134346   2.355   6.850   8.294  1.2507  0.0958  2.5208
 9833SOL    HW234347   2.426   6.726   8.345  0.6780 -2.1517 -1.6827
 9834SOL     OW34348   0.852   7.122   7.234  0.1399  0.8260 -0.0008
 9834SOL    HW134349   0.943   7.092   7.235 -0.3109 -0.6912 -0.9978
 9834SOL    HW234350   0.824   7.117   7.325  1.0656  1.3849  0.3288
 9835SOL     OW34351   4.262   7.477   8.255 -0.0237  0.3358 -0.0728
 9835SOL    HW134352   4.196   7.520   8.308 -2.5789 -3.4597  0.2668
 9835SOL    HW234353   4.270   7.532   8.177 -2.4989  1.7434  0.5521
 9836SOL     OW34354   1.188   6.282   7.562  0.1814  0.0675  0.0657
 9836SOL    HW134355   1.266   6.337   7.555  0.3792 -0.3578 -1.5025
 9836SOL    HW234356   1.212   6.212   7.623  0.5551  0.6659  0.6184
 9837SOL     OW34357   1.637   8.806   8.253 -0.3424 -0.3947  0.2060
 9837SOL    HW134358   1.716   8.843   8.212  0.5112  1.0566  2.9372
 9837SOL    HW234359   1.656   8.713   8.262  0.1150 -0.4502 -1.1345
 9838SOL     OW34360   3.306   5.393   6.484  0.2440 -0.1325 -0.2325
 9838SOL    HW134361   3.299   5.439   6.568  0.0615  0.7586 -0.7205
 9838SOL    HW234362   3.338   5.460   6.423 -1.8882 -0.1059 -1.4026
 9839SOL     OW34363   1.667   6.095   8.515  0.1206  0.2822  0.3466
 9839SOL    HW134364   1.736   6.040   8.551 -0.3368 -0.7025 -0.2251
 9839SOL    HW234365   1.712   6.174   8.485  0.9455 -0.1879  0.3172
 9840SOL     OW34366   4.577   5.600   9.133 -0.2204  0.0728 -0.2776
 9840SOL    HW134367   4.559   5.565   9.220  1.6120 -0.3748 -0.0394
 9840SOL    HW234368   4.601   5.691   9.149 -0.8947  0.2840 -0.4407
 9841SOL     OW34369   1.622   7.264   9.338 -0.0160  0.2318  0.5774
 9841SOL    HW134370   1.527   7.278   9.344  0.0553  0.5948  0.9299
 9841SOL    HW234371   1.660   7.340   9.381  0.4189 -0.2874  1.1326
 9842SOL     OW34372   1.680   7.244   9.642  0.1124  0.4104  0.5300
 9842SOL    HW134373   1.643   7.291   9.718 -0.6832  1.2890 -0.3715
 9842SOL    HW234374   1.755   7.298   9.615 -0.8454  1.2329 -0.5517
 9843SOL     OW34375   1.710   6.849   8.405 -0.0773 -0.3511  0.3563
 9843SOL    HW134376   1.738   6.796   8.330 -0.2463 -0.4802  0.3837
 9843SOL    HW234377   1.679   6.785   8.469 -0.1514 -0.2270  0.4444
 9844SOL     OW34378   2.748   6.938   8.007  0.8053 -0.2366  0.0350
 9844SOL    HW134379   2.691   6.981   7.943 -0.3165 -0.4470  0.8837
 9844SOL    HW234380   2.770   6.854   7.966  0.2317 -0.3029 -0.1375
 9845SOL     OW34381   9.050   6.508   9.235 -0.3208  0.6123  0.3992
 9845SOL    HW134382   9.109   6.554   9.176 -0.2780  1.3767  1.0191
 9845SOL    HW234383   9.012   6.438   9.182  0.0722  0.9928 -0.3938
 9846SOL     OW34384   1.721   7.366   7.323  0.6032 -0.0316 -0.2105
 9846SOL    HW134385   1.723   7.458   7.294 -0.4041  0.2960  0.6805
 9846SOL    HW234386   1.759   7.317   7.250  0.6129  1.0369 -0.9489
 9847SOL     OW34387   2.585   8.754   0.205 -0.1099 -0.2194  0.5055
 9847SOL    HW134388   2.609   8.845   0.186  1.5267 -0.3537  1.7393
 9847SOL    HW234389   2.650   8.702   0.157 -1.3128 -0.7934 -0.5692
 9848SOL     OW34390   3.256   7.081   6.109 -0.5137  0.1008  0.0942
 9848SOL    HW134391   3.244   6.989   6.135 -0.7879  0.5543  1.6543
 9848SOL    HW234392   3.320   7.115   6.170  1.0607  0.4788 -1.6798
 9849SOL     OW34393   3.054   4.032   8.202  0.1946 -0.0530 -0.0671
 9849SOL    HW134394   3.127   3.980   8.170  0.1407  0.2016 -0.6137
 9849SOL    HW234395   3.072   4.045   8.295  0.1594 -1.1169  0.0981
 9850SOL     OW34396   1.280   6.950   8.682 -0.0475  0.1222  0.6280
 9850SOL    HW134397   1.241   6.982   8.763 -0.8728 -1.0934  0.7405
 9850SOL    HW234398   1.285   6.855   8.694  0.0753 -0.0457 -0.6319
 9851SOL     OW34399   2.749   6.435   8.991  0.5701 -0.6747 -0.3075
 9851SOL    HW134400   2.746   6.407   9.083 -2.0471  1.8181  0.4989
 9851SOL    HW234401   2.680   6.385   8.948  0.6924 -0.6523 -0.5334
 9852SOL     OW34402   3.291   5.060   7.979 -0.5817  0.2738  0.1913
 9852SOL    HW134403   3.370   5.074   7.928 -1.1340  1.3073 -0.3873
 9852SOL    HW234404   3.227   5.025   7.917 -0.0290 -2.6083  1.0517
 9853SOL     OW34405   2.354   7.569   9.333 -0.3301 -0.4693 -0.6451
 9853SOL    HW134406   2.288   7.614   9.280  0.7900 -0.6265 -2.2741
 9853SOL    HW234407   2.408   7.639   9.370 -0.9967 -0.3644  0.1491
 9854SOL     OW34408   4.981   6.492   8.774  0.3343 -0.5558 -0.5021
 9854SOL    HW134409   5.041   6.454   8.838 -0.4655 -0.0151  0.6042
 9854SOL    HW234410   4.899   6.505   8.823  0.1273  1.1787 -1.2352
 9855SOL     OW34411   4.053   5.646   0.194 -0.3240 -0.1237 -0.0958
 9855SOL    HW134412   4.007   5.729   0.185  0.0431 -0.0168 -1.2305
 9855SOL    HW234413   3.991   5.588   0.238 -0.0071  1.1830  2.2398
 9856SOL     OW34414   2.225   6.786   7.674 -0.6617 -0.4952  0.5006
 9856SOL    HW134415   2.288   6.800   7.604  1.0888  1.1098  2.2599
 9856SOL    HW234416   2.192   6.698   7.659 -0.5465 -0.1422 -2.4172
 9857SOL     OW34417   2.653   9.494   9.631  0.6257 -0.1601 -0.0285
 9857SOL    HW134418   2.613   9.517   9.715  2.3106  1.0456  0.4917
 9857SOL    HW234419   2.721   9.431   9.654  2.1452  1.3483 -0.2422
 9858SOL     OW34420   8.519   5.996   9.648 -0.4626 -0.0350 -0.3751
 9858SOL    HW134421   8.557   6.044   9.575 -3.2145  2.5999 -0.2641
 9858SOL    HW234422   8.465   5.929   9.608  0.6304 -0.7963 -0.6178
 9859SOL     OW34423   3.496   3.031   7.821  0.3105  0.8077 -0.8922
 9859SOL    HW134424   3.491   3.013   7.727 -1.2063 -1.1386 -0.4962
 9859SOL    HW234425   3.465   2.950   7.863 -0.2764  2.0630  1.2537
 9860SOL     OW34426   2.632   5.635   8.681 -0.1733 -0.0284 -0.1187
 9860SOL    HW134427   2.573   5.563   8.659 -0.4582  0.3666 -0.6901
 9860SOL    HW234428   2.708   5.593   8.721 -0.2539 -0.6585 -0.6112
 9861SOL     OW34429   3.892   7.565   5.544  0.2337  0.2098 -0.0370
 9861SOL    HW134430   3.859   7.538   5.459  1.1318 -0.1626 -0.2774
 9861SOL    HW234431   3.817   7.606   5.587 -0.3027  0.1406 -0.8885
 9862SOL     OW34432   2.733   9.281   8.777  0.6134 -0.3652 -0.0768
 9862SOL    HW134433   2.739   9.195   8.737  2.0475 -1.2607  1.9295
 9862SOL    HW234434   2.793   9.278   8.851 -1.2466  1.4858  1.6333
 9863SOL     OW34435   2.771   8.991   9.407 -0.0734 -0.4527  0.5103
 9863SOL    HW134436   2.762   8.976   9.501  0.7581  1.1663  0.8838
 9863SOL    HW234437   2.693   9.041   9.383 -0.3004 -0.8925  0.3263
 9864SOL     OW34438   3.185   5.171   7.406  0.5182 -0.2337 -0.2342
 9864SOL    HW134439   3.154   5.247   7.356  0.4688 -0.7726 -1.0406
 9864SOL    HW234440   3.158   5.096   7.354 -1.6680 -0.9441  1.7649
 9865SOL     OW34441   3.355   5.450   0.055  0.2465  0.0829  0.1633
 9865SOL    HW134442   3.299   5.447  -0.023  0.7454 -1.9198 -0.1855
 9865SOL    HW234443   3.298   5.425   0.127  0.1328  0.4727  0.2115
 9866SOL     OW34444   0.943   6.943   8.341  0.2780 -0.5237  0.0290
 9866SOL    HW134445   0.995   7.015   8.378 -0.0463 -0.1834 -0.1709
 9866SOL    HW234446   0.976   6.933   8.252  2.1386 -2.3711  0.8311
 9867SOL     OW34447   2.825   6.755   8.811  0.2090 -0.5528  0.4169
 9867SOL    HW134448   2.885   6.818   8.773  0.9267 -1.4687 -0.0071
 9867SOL    HW234449   2.801   6.697   8.738 -1.9280  0.3160  0.3483
 9868SOL     OW34450   2.696   7.568   0.774 -0.0623  0.1586 -0.1642
 9868SOL    HW134451   2.766   7.552   0.837  0.1086 -0.2531 -0.4542
 9868SOL    HW234452   2.637   7.628   0.819 -0.6731 -1.1995  0.9173
 9869SOL     OW34453   3.176   4.331   8.947  0.3747 -0.9071  0.2258
 9869SOL    HW134454   3.166   4.355   9.039 -0.6215 -0.2364 -0.0423
 9869SOL    HW234455   3.152   4.239   8.944 -0.7051 -0.6437  0.4650
 9870SOL     OW34456   2.447   7.384   0.293  0.2655 -0.6726  0.2416
 9870SOL    HW134457   2.354   7.387   0.271  0.4289  2.2207 -0.5479
 9870SOL    HW234458   2.491   7.370   0.209  0.5708  0.2199  0.2362
 9871SOL     OW34459   2.200   4.172   8.224 -0.3791  0.1558  0.1537
 9871SOL    HW134460   2.273   4.206   8.172 -0.1666  1.0043  0.9872
 9871SOL    HW234461   2.133   4.241   8.218  0.0873  0.8145  1.9336
 9872SOL     OW34462   3.309   8.078   0.779  0.3740 -0.0420 -0.1159
 9872SOL    HW134463   3.350   7.999   0.813 -0.2458  0.3197  1.5957
 9872SOL    HW234464   3.284   8.128   0.857  0.2176  1.5718 -1.1409
 9873SOL     OW34465   3.657   5.627   6.968  0.6773  0.2253  0.5267
 9873SOL    HW134466   3.728   5.670   6.920  0.1365  1.4084  0.7658
 9873SOL    HW234467   3.586   5.690   6.969 -1.1820 -1.6758 -1.4328
 9874SOL     OW34468   1.412   7.247   8.903  0.4504  0.1468  0.3765
 9874SOL    HW134469   1.390   7.198   8.983  1.1528  2.1593  1.8817
 9874SOL    HW234470   1.333   7.299   8.884 -0.1472 -1.1789 -0.9844
 9875SOL     OW34471   1.740   3.620   9.653  0.0705 -0.3699 -0.2577
 9875SOL    HW134472   1.826   3.606   9.694  0.5538  1.7799 -0.4323
 9875SOL    HW234473   1.710   3.532   9.630  1.3153 -1.3612  1.6086
 9876SOL     OW34474   9.743   7.671   8.523 -0.2015 -0.0287  0.3194
 9876SOL    HW134475   9.648   7.671   8.533 -0.2170 -0.6748  0.2155
 9876SOL    HW234476   9.776   7.714   8.603 -0.5817  0.2921  0.3028
 9877SOL     OW34477   1.904   8.453   9.220  0.8156  0.6818 -0.1302
 9877SOL    HW134478   1.901   8.530   9.163  0.7471  0.4398 -0.4589
 9877SOL    HW234479   1.812   8.430   9.234  0.8470  0.1206 -0.7813
 9878SOL     OW34480   4.009   8.224   0.133  0.3144  0.0052 -0.2323
 9878SOL    HW134481   3.950   8.149   0.146 -0.4139  0.7695  1.0766
 9878SOL    HW234482   4.018   8.230   0.038 -0.7372 -0.8937 -0.4191
 9879SOL     OW34483   8.912   6.212   7.305 -0.4442  0.1104  0.3454
 9879SOL    HW134484   8.941   6.129   7.266 -0.5265  0.6545 -0.9244
 9879SOL    HW234485   8.963   6.220   7.385  0.6995 -0.4177 -0.3110
 9880SOL     OW34486   2.562   6.668   8.648  0.3053 -0.1803 -0.3269
 9880SOL    HW134487   2.640   6.683   8.594  1.2982 -1.5428  0.6725
 9880SOL    HW234488   2.528   6.755   8.666  1.3294  0.4136 -1.1810
 9881SOL     OW34489   2.715   6.440   8.151  0.0430 -0.3604 -0.0412
 9881SOL    HW134490   2.761   6.512   8.194  2.0640 -1.2143 -0.6737
 9881SOL    HW234491   2.662   6.400   8.221 -1.1484  1.6937  0.3117
 9882SOL     OW34492   1.149   6.530   9.858  0.4270 -0.2389  0.0088
 9882SOL    HW134493   1.200   6.574   9.790  1.1108 -1.8889 -0.6185
 9882SOL    HW234494   1.068   6.504   9.814 -0.1521  0.7366  0.4859
 9883SOL     OW34495   2.016   0.128   8.926 -0.3277  0.0409 -0.4238
 9883SOL    HW134496   2.046   0.077   9.002 -1.2256 -0.8220 -0.6196
 9883SOL    HW234497   1.925   0.102   8.915 -0.0021 -0.4929 -2.3032
 9884SOL     OW34498   2.552   8.274   0.923 -0.7626 -0.3246  0.2052
 9884SOL    HW134499   2.495   8.300   0.996 -0.5822 -0.5722  0.4351
 9884SOL    HW234500   2.624   8.336   0.925 -1.3814  0.4373 -0.5309
 9885SOL     OW34501   2.126   5.955   7.519 -0.1144  0.4792 -0.2867
 9885SOL    HW134502   2.037   5.961   7.485 -0.2468 -2.5296 -0.7364
 9885SOL    HW234503   2.180   5.937   7.442  0.6096  0.4708  0.2143
 9886SOL     OW34504   5.338   5.820   7.411  0.0053  0.0388  0.5548
 9886SOL    HW134505   5.356   5.846   7.502  0.7209  0.9244  0.1842
 9886SOL    HW234506   5.376   5.733   7.403 -2.0994 -1.0530  1.7317
 9887SOL     OW34507   0.939   5.096   7.913  0.3907  0.2741  0.1425
 9887SOL    HW134508   0.860   5.043   7.903 -1.6848  2.4617  3.1745
 9887SOL    HW234509   0.920   5.177   7.866  0.3041  1.2347  1.7582
 9888SOL     OW34510   0.393   5.751   9.482  0.4362 -0.4456  0.1521
 9888SOL    HW134511   0.338   5.674   9.466 -1.0469  0.5069  0.4185
 9888SOL    HW234512   0.337   5.825   9.458  1.3654  0.6101  1.1358
 9889SOL     OW34513   9.514   6.458   8.509  0.3087  0.0851 -0.7634
 9889SOL    HW134514   9.502   6.401   8.585  0.2578  2.5307  1.2054
 9889SOL    HW234515   9.609   6.473   8.505  0.2138  0.8343 -0.4473
 9890SOL     OW34516   1.262   8.999   8.065 -0.0567 -0.0713 -0.0390
 9890SOL    HW134517   1.205   9.068   8.100  1.5396 -1.1368  5.5979
 9890SOL    HW234518   1.203   8.924   8.051 -0.6454 -0.3332  3.1096
 9891SOL     OW34519   3.473   0.262   8.014 -0.0712  0.0840 -0.6576
 9891SOL    HW134520   3.550   0.310   8.045  0.1372  0.1606 -1.2873
 9891SOL    HW234521   3.401   0.325   8.022 -0.4918 -0.5943  1.8345
 9892SOL     OW34522   2.728   8.070   0.887 -0.4519  0.0038 -0.2404
 9892SOL    HW134523   2.751   8.030   0.971 -0.6944  0.4056  0.0170
 9892SOL    HW234524   2.690   8.155   0.910  1.2439  0.9741 -0.8346
 9893SOL     OW34525   2.616   4.829   8.413  0.5137  0.1836  0.7700
 9893SOL    HW134526   2.525   4.834   8.442 -0.0556  0.6639 -0.9671
 9893SOL    HW234527   2.659   4.904   8.454 -0.2473  0.8045  0.4708
 9894SOL     OW34528   2.996   8.371   8.648 -0.4549 -0.1779  0.0031
 9894SOL    HW134529   3.004   8.355   8.742 -0.0111 -0.4623 -0.0811
 9894SOL    HW234530   3.083   8.352   8.613 -0.5234  0.2786 -0.4163
 9895SOL     OW34531   1.464   3.265   8.532 -0.4462 -0.5753 -0.2863
 9895SOL    HW134532   1.412   3.258   8.612  1.3723 -1.7178  0.8818
 9895SOL    HW234533   1.403   3.299   8.466 -2.1329 -0.0683  1.4412
 9896SOL     OW34534   3.799   6.702   7.954  0.7264 -0.1227  0.0105
 9896SOL    HW134535   3.805   6.765   8.026  1.5346 -1.1198  0.8661
 9896SOL    HW234536   3.890   6.681   7.933  0.4879 -0.0366 -1.1368
 9897SOL     OW34537   7.681   7.113   8.294 -0.1070 -0.5299 -0.2315
 9897SOL    HW134538   7.596   7.118   8.337 -0.1499  1.0049 -0.4315
 9897SOL    HW234539   7.661   7.113   8.201  0.1141  1.9352 -0.3439
 9898SOL     OW34540   9.458   7.386   7.829  0.2274 -0.1090 -0.7099
 9898SOL    HW134541   9.383   7.445   7.815  1.8709  2.2871 -0.0141
 9898SOL    HW234542   9.418   7.304   7.857 -2.1351  1.2799  0.3554
 9899SOL     OW34543   0.718   9.350   9.559 -0.3328 -0.2900  0.3559
 9899SOL    HW134544   0.665   9.349   9.639 -0.3707 -2.3950  0.3621
 9899SOL    HW234545   0.797   9.399   9.583  0.1033 -1.7235  2.0146
 9900SOL     OW34546   4.067   5.883   6.932  0.4884  0.0561  0.0627
 9900SOL    HW134547   4.014   5.961   6.916 -0.9827 -1.3625 -2.5908
 9900SOL    HW234548   4.020   5.836   7.002 -0.7785 -0.2594 -0.9628
 9901SOL     OW34549   2.545   6.596   5.847  0.3624  0.0945 -0.3271
 9901SOL    HW134550   2.490   6.523   5.874 -0.0474 -0.6635 -2.9436
 9901SOL    HW234551   2.489   6.673   5.855 -0.3846 -0.3769 -0.9019
 9902SOL     OW34552   4.393   7.517   0.961  0.2142  0.2772 -0.3734
 9902SOL    HW134553   4.333   7.572   0.911  0.8122  0.0843 -1.3272
 9902SOL    HW234554   4.451   7.579   1.005  0.0205  0.4300 -0.3271
 9903SOL     OW34555   2.795   4.531   0.196 -0.1520 -0.0295  0.1261
 9903SOL    HW134556   2.855   4.475   0.146  1.3155 -0.1197  1.8675
 9903SOL    HW234557   2.805   4.501   0.287  0.1490  2.5431  1.0320
 9904SOL     OW34558   3.207   8.483   7.851 -0.3387  0.1547 -0.0932
 9904SOL    HW134559   3.189   8.569   7.889  0.3197  0.8138 -1.2166
 9904SOL    HW234560   3.182   8.491   7.759 -0.5187 -0.9496 -0.1611
 9905SOL     OW34561   2.138   6.003   1.311 -0.0098 -0.1385  0.0747
 9905SOL    HW134562   2.150   6.002   1.406  2.5680  0.4554 -0.1868
 9905SOL    HW234563   2.101   6.089   1.292  1.5476  0.6210  0.3685
 9906SOL     OW34564   3.188   7.866   9.222  0.1291 -0.1934  0.2626
 9906SOL    HW134565   3.107   7.870   9.272  0.8941 -2.0271  1.7618
 9906SOL    HW234566   3.236   7.792   9.260  2.6576  1.0470 -0.3295
 9907SOL     OW34567   4.836   4.530   8.535  0.3091  0.2803 -0.6721
 9907SOL    HW134568   4.778   4.570   8.600  2.4821  0.3142  1.3819
 9907SOL    HW234569   4.924   4.542   8.571  1.5986 -0.1372 -3.4342
 9908SOL     OW34570   3.660   7.386   8.380 -0.4132  0.2608 -0.5297
 9908SOL    HW134571   3.641   7.322   8.311  0.0820 -0.7520  0.2482
 9908SOL    HW234572   3.586   7.446   8.378 -1.4613 -0.9876 -0.5478
 9909SOL     OW34573   0.441   7.310   7.621  0.3251 -0.0553 -0.6270
 9909SOL    HW134574   0.416   7.251   7.692  0.1748 -2.2392 -2.3889
 9909SOL    HW234575   0.417   7.397   7.653 -1.5182 -1.1490  1.2209
 9910SOL     OW34576   3.491   4.067   9.445  0.2176 -0.7016 -0.7768
 9910SOL    HW134577   3.562   4.035   9.389  1.1797 -0.3819  0.2068
 9910SOL    HW234578   3.460   3.989   9.491 -0.1699 -0.8642 -1.3057
 9911SOL     OW34579   2.826   7.445   5.509 -0.1870 -0.2640  0.0558
 9911SOL    HW134580   2.782   7.443   5.424 -1.0951 -0.2256  0.5107
 9911SOL    HW234581   2.757   7.465   5.571  0.1921 -1.6397  0.9747
 9912SOL     OW34582   2.241   6.571   8.193  0.3422 -1.1306  0.3678
 9912SOL    HW134583   2.249   6.661   8.224 -0.5904 -0.2516 -1.7531
 9912SOL    HW234584   2.296   6.568   8.114 -1.6946 -1.5765 -1.1372
 9913SOL     OW34585   4.540   5.518   9.394  0.4232 -0.0400 -0.2265
 9913SOL    HW134586   4.466   5.458   9.405  1.3182 -0.9484  1.1771
 9913SOL    HW234587   4.592   5.506   9.473  2.0066  0.6715 -1.1247
 9914SOL     OW34588   1.086   8.253   0.260 -0.0509  0.3277 -0.1604
 9914SOL    HW134589   1.010   8.198   0.277 -0.3148  0.6823 -0.1749
 9914SOL    HW234590   1.062   8.303   0.181  1.1075 -1.2441 -1.5952
 9915SOL     OW34591   2.526   6.275   8.951  0.2807  0.5972 -0.3381
 9915SOL    HW134592   2.513   6.203   9.013 -2.1792  1.4248  0.2080
 9915SOL    HW234593   2.532   6.232   8.866 -1.5868 -0.2631 -0.0718
 9916SOL     OW34594   1.478   8.378   7.770  0.1383  0.1054 -0.1421
 9916SOL    HW134595   1.569   8.348   7.769  0.2374  0.3960  0.0459
 9916SOL    HW234596   1.484   8.471   7.747 -0.3254 -0.4145 -2.6150
 9917SOL     OW34597   3.103   9.407   8.636 -0.3726  0.5438 -0.2026
 9917SOL    HW134598   3.172   9.375   8.578  1.1721  2.5104  0.4309
 9917SOL    HW234599   3.134   9.386   8.724 -1.3475  0.0790  0.0423
 9918SOL     OW34600   4.133   8.655   7.096  0.1751 -0.1996 -0.1773
 9918SOL    HW134601   4.103   8.569   7.127 -1.5140  0.1909 -0.6025
 9918SOL    HW234602   4.076   8.718   7.140  0.9426  0.6665 -0.3840
 9919SOL     OW34603   3.474   7.031   0.106 -0.2372 -0.0044  0.1130
 9919SOL    HW134604   3.431   7.050   0.023 -3.1728  0.1506  1.5308
 9919SOL    HW234605   3.496   6.938   0.101  2.0513  0.5675 -1.7746
 9920SOL     OW34606   3.150   6.107   0.458 -0.8897  0.3238  0.3844
 9920SOL    HW134607   3.090   6.066   0.396 -0.7765 -0.4130  0.7419
 9920SOL    HW234608   3.129   6.066   0.542  0.4922 -0.4113  0.4121
 9921SOL     OW34609   0.470   5.996   8.208  0.4502 -0.0967 -0.4904
 9921SOL    HW134610   0.529   6.022   8.279 -0.6901  0.1369  0.4052
 9921SOL    HW234611   0.527   5.981   8.133  1.7738 -1.0062  0.6442
 9922SOL     OW34612   1.607   6.571   1.578 -0.7018 -1.0607 -0.2226
 9922SOL    HW134613   1.676   6.624   1.539 -0.7711  0.3729  1.5067
 9922SOL    HW234614   1.618   6.484   1.538  2.6239 -1.1368  0.5688
 9923SOL     OW34615   3.593   5.247   8.993  0.0324 -0.5455 -0.2206
 9923SOL    HW134616   3.636   5.328   9.021 -0.5286 -1.1733  2.7781
 9923SOL    HW234617   3.658   5.179   9.008 -0.5634 -1.0059  0.3153
 9924SOL     OW34618   3.839   6.226   8.913  0.4610 -0.0158  0.4739
 9924SOL    HW134619   3.866   6.303   8.863 -0.4193 -0.7999 -1.3064
 9924SOL    HW234620   3.762   6.194   8.867  1.9326 -3.1211 -0.0597
 9925SOL     OW34621   4.315   6.314   7.569 -0.2777  0.0887  0.0636
 9925SOL    HW134622   4.289   6.231   7.530  2.0429  0.3456 -2.3079
 9925SOL    HW234623   4.344   6.291   7.658  1.7566 -2.0026 -1.0199
 9926SOL     OW34624   2.737   7.011   8.276  0.2907  0.1404  0.1828
 9926SOL    HW134625   2.738   7.020   8.180  0.7888 -0.1999  0.1549
 9926SOL    HW234626   2.775   7.092   8.308  1.1026 -0.1785  0.0546
 9927SOL     OW34627   3.101   7.061   6.823 -0.1196  0.1469 -0.0621
 9927SOL    HW134628   3.007   7.071   6.837 -0.0671  3.4453 -1.3398
 9927SOL    HW234629   3.109   7.036   6.731  0.2658 -1.0944  0.2885
 9928SOL     OW34630   3.074   2.282   7.166  0.3340 -0.5286 -0.5683
 9928SOL    HW134631   3.041   2.198   7.133 -0.5963  0.1277 -1.3755
 9928SOL    HW234632   3.163   2.287   7.131 -0.0152 -0.6580 -1.5190
 9929SOL     OW34633   2.131   5.813   6.260 -0.5866  0.3742  0.1716
 9929SOL    HW134634   2.060   5.810   6.324 -0.8011 -0.6112 -0.0932
 9929SOL    HW234635   2.125   5.901   6.222 -1.5565  0.3740  0.2889
 9930SOL     OW34636   3.239   6.807   6.234 -0.0540  0.3769  0.1646
 9930SOL    HW134637   3.155   6.774   6.200 -0.0900 -0.1142  0.7148
 9930SOL    HW234638   3.297   6.730   6.232  0.0485  0.4346  0.8598
 9931SOL     OW34639   3.777   3.462   9.338 -0.9624  0.2831  0.1691
 9931SOL    HW134640   3.772   3.468   9.242 -0.0243  0.0098  0.0899
 9931SOL    HW234641   3.693   3.494   9.369 -1.9046 -1.1178 -0.8148
 9932SOL     OW34642   3.491   6.001   9.576  0.1959 -0.2931  0.2044
 9932SOL    HW134643   3.507   6.096   9.581  0.5698 -0.3658  0.4306
 9932SOL    HW234644   3.493   5.972   9.667  1.0343 -0.6702  0.0730
 9933SOL     OW34645   3.119   4.598   8.033  0.5148  0.1072 -0.9508
 9933SOL    HW134646   3.024   4.598   8.021  0.4086 -1.6264 -0.3639
 9933SOL    HW234647   3.153   4.552   7.957  0.6708 -1.4666  0.0376
 9934SOL     OW34648   1.952   8.161   6.656 -0.1047 -0.1338  0.1847
 9934SOL    HW134649   2.029   8.211   6.683 -0.1098  0.5701 -1.0154
 9934SOL    HW234650   1.919   8.121   6.737 -0.5762  2.4653  1.4024
 9935SOL     OW34651   3.371   7.664   7.993  0.0807 -0.2876 -0.3426
 9935SOL    HW134652   3.461   7.646   7.966  0.9245  2.7286  0.1472
 9935SOL    HW234653   3.338   7.725   7.928 -1.7164 -1.4226 -0.5676
 9936SOL     OW34654   9.609   5.981   8.232  0.0254 -0.1441  0.4986
 9936SOL    HW134655   9.583   6.069   8.261  0.3187 -0.0099  0.3505
 9936SOL    HW234656   9.700   5.989   8.205 -0.2450 -0.2552 -0.5106
 9937SOL     OW34657   2.650   5.600   0.401 -0.0506  0.4339 -0.9487
 9937SOL    HW134658   2.694   5.556   0.328  0.2928  0.7173 -0.9146
 9937SOL    HW234659   2.711   5.668   0.429 -0.6848  1.1216 -1.1762
 9938SOL     OW34660   9.662   6.952   1.877 -0.4234  0.6983  0.7902
 9938SOL    HW134661   9.623   6.866   1.863 -0.1775  0.6787  0.2268
 9938SOL    HW234662   9.750   6.945   1.841 -1.0281  1.7524 -0.9788
 9939SOL     OW34663   4.062   8.649   0.973 -0.1298 -0.0149 -0.6017
 9939SOL    HW134664   4.050   8.663   1.067  3.6568 -1.3784  0.2902
 9939SOL    HW234665   4.104   8.729   0.942 -2.2333  0.8187 -1.4145
 9940SOL     OW34666   0.150   4.261   1.980  0.8550 -0.0857  0.1264
 9940SOL    HW134667   0.169   4.216   2.062  0.4844  1.5362  1.1545
 9940SOL    HW234668   0.122   4.349   2.007  2.0054  0.9288 -1.7873
 9941SOL     OW34669   2.948   7.686   1.406 -0.3011 -0.3084  0.0612
 9941SOL    HW134670   3.004   7.640   1.468 -1.0357 -0.6143  0.5071
 9941SOL    HW234671   2.913   7.760   1.455 -1.4033 -0.9176  0.2432
 9942SOL     OW34672   3.124   6.018   7.723 -0.4308  0.0808 -0.1702
 9942SOL    HW134673   3.084   5.931   7.730  0.5711 -0.4063 -0.3311
 9942SOL    HW234674   3.184   6.023   7.797 -1.5644  1.2353  0.6982
 9943SOL     OW34675   0.734   8.082   9.269  0.0012 -0.6457 -0.3549
 9943SOL    HW134676   0.738   8.174   9.294  1.1838 -0.9661  0.7090
 9943SOL    HW234677   0.642   8.068   9.244 -0.5509  0.4466  0.9371
 9944SOL     OW34678   2.712   6.113   1.470 -0.0276  0.5655  0.0678
 9944SOL    HW134679   2.694   6.192   1.419  1.5203  0.7405 -0.2436
 9944SOL    HW234680   2.671   6.130   1.555 -0.4980  1.3055 -0.2899
 9945SOL     OW34681   4.259   8.070   0.538  0.3400 -0.2964  0.6222
 9945SOL    HW134682   4.185   8.022   0.502  0.1967  1.7385 -2.1427
 9945SOL    HW234683   4.335   8.016   0.518 -0.1500 -1.1950  1.1451
 9946SOL     OW34684   0.629   4.357   8.614 -0.2099 -0.0139 -0.2006
 9946SOL    HW134685   0.583   4.312   8.685  0.1332  1.4278  0.9836
 9946SOL    HW234686   0.681   4.289   8.572 -1.2570 -1.1125  0.2362
 9947SOL     OW34687   4.951   7.712   0.515  0.1271  0.4826  0.0464
 9947SOL    HW134688   5.027   7.755   0.476 -1.5526  2.8577 -0.8602
 9947SOL    HW234689   4.883   7.717   0.447 -1.3035 -0.1502  1.3581
 9948SOL     OW34690   2.035   8.957   9.720 -0.2371  0.2855  0.0962
 9948SOL    HW134691   1.951   8.982   9.681  0.1398  1.0427 -0.2521
 9948SOL    HW234692   2.012   8.925   9.807 -0.8683  0.6769  0.0802
 9949SOL     OW34693   1.397   8.486   0.140 -0.6770 -0.0291  0.9005
 9949SOL    HW134694   1.393   8.580   0.126 -0.4571 -0.0996  0.3086
 9949SOL    HW234695   1.482   8.460   0.103 -1.1087 -0.5776  0.2556
 9950SOL     OW34696   0.168   5.792   8.709  0.1068  0.4840  0.0768
 9950SOL    HW134697   0.238   5.822   8.651 -0.1271 -0.6316 -0.8148
 9950SOL    HW234698   0.089   5.799   8.656 -0.1758 -0.1504  0.4134
 9951SOL     OW34699   1.068   4.627   0.846  0.4313  0.9085 -0.0055
 9951SOL    HW134700   1.157   4.593   0.840  0.3755 -0.4198  4.0579
 9951SOL    HW234701   1.028   4.602   0.763  3.0467 -0.8731 -0.8684
 9952SOL     OW34702   3.399   6.791   7.901 -0.8976  0.0554  0.2829
 9952SOL    HW134703   3.412   6.877   7.861 -1.6158 -0.3417 -0.8658
 9952SOL    HW234704   3.308   6.769   7.881 -0.7004 -0.9993  0.4959
 9953SOL     OW34705   2.369   7.360   8.894  0.4437  1.0649  0.3126
 9953SOL    HW134706   2.426   7.365   8.971 -0.5668 -0.9238  1.2843
 9953SOL    HW234707   2.289   7.405   8.920 -0.2980 -0.5011  0.8797
 9954SOL     OW34708   3.491   5.850   1.545  0.1770  0.6708  0.8421
 9954SOL    HW134709   3.551   5.780   1.522 -1.1456  0.1728 -1.3451
 9954SOL    HW234710   3.505   5.917   1.479 -0.7448  1.1150  1.0763
 9955SOL     OW34711   2.725   7.076   9.786  0.5415 -0.7510  0.7696
 9955SOL    HW134712   2.693   7.160   9.751  0.7613 -0.5729  0.9950
 9955SOL    HW234713   2.820   7.087   9.791  0.5857 -1.0720  0.6506
 9956SOL     OW34714   1.820   9.172   0.269  0.5050 -0.2156 -0.5226
 9956SOL    HW134715   1.739   9.120   0.276  0.6239 -0.2116  2.2508
 9956SOL    HW234716   1.848   9.184   0.360  2.1669  2.1250 -1.2483
 9957SOL     OW34717   1.795   6.265   8.272 -0.6945 -0.5869  0.1687
 9957SOL    HW134718   1.868   6.215   8.234  0.3365  0.3249  0.8991
 9957SOL    HW234719   1.722   6.203   8.274 -0.7876 -0.7860 -3.0676
 9958SOL     OW34720   2.103   8.038   8.845 -0.4759  0.7476 -0.0086
 9958SOL    HW134721   2.013   8.006   8.842 -0.1672 -0.0874 -0.3887
 9958SOL    HW234722   2.127   8.052   8.754 -0.7345  2.4835  0.1471
 9959SOL     OW34723   0.886   5.211   0.147 -0.0125  0.3040 -0.0222
 9959SOL    HW134724   0.924   5.236   0.231  0.2518 -0.8716  0.2196
 9959SOL    HW234725   0.866   5.295   0.104  0.4982  0.9179  0.9039
 9960SOL     OW34726   0.583   8.093   0.690 -0.0842 -0.2978 -0.2909
 9960SOL    HW134727   0.579   8.059   0.600  0.0712  0.7052 -0.6936
 9960SOL    HW234728   0.659   8.152   0.690 -0.3220  0.0179  0.3890
 9961SOL     OW34729   1.648   4.427   9.102 -0.1875  0.1190 -0.0174
 9961SOL    HW134730   1.672   4.518   9.086  0.4750  0.5400  2.7422
 9961SOL    HW234731   1.554   4.423   9.084  0.1367  0.7718 -2.1299
 9962SOL     OW34732   4.041   7.955   9.391  0.2351 -0.0862 -0.1224
 9962SOL    HW134733   4.093   8.035   9.403  0.5504 -0.5145  1.8013
 9962SOL    HW234734   3.983   7.953   9.467  0.6402 -1.9663  0.1890
 9963SOL     OW34735   2.009   7.304   9.251  0.0071 -0.3821 -0.0349
 9963SOL    HW134736   2.043   7.220   9.221  1.0345  0.5053 -1.5134
 9963SOL    HW234737   1.917   7.305   9.223 -0.0400 -1.0339  0.0898
 9964SOL     OW34738   3.256   6.845   8.530 -0.2136 -0.0618  0.2049
 9964SOL    HW134739   3.215   6.832   8.444  1.0616 -1.0527 -0.2953
 9964SOL    HW234740   3.271   6.939   8.535 -1.3917  0.1666 -0.1242
 9965SOL     OW34741   2.611   6.344   8.390 -0.3657 -0.2388  0.4126
 9965SOL    HW134742   2.597   6.249   8.396 -2.1712 -0.0576 -0.5221
 9965SOL    HW234743   2.652   6.367   8.474  0.9496 -1.9555  0.3003
 9966SOL     OW34744   4.802   5.350   9.409  0.0679 -0.7364  0.4149
 9966SOL    HW134745   4.799   5.361   9.504  1.1768  1.1491  0.2835
 9966SOL    HW234746   4.832   5.435   9.375  1.3161 -1.8399 -1.4938
 9967SOL     OW34747   3.295   8.564   2.509  0.0722  0.1631  1.0784
 9967SOL    HW134748   3.295   8.469   2.501  0.0902  0.2173  0.3534
 9967SOL    HW234749   3.209   8.585   2.547 -0.5251 -0.0481 -0.1096
 9968SOL     OW34750   1.033   6.722   8.558  0.5006 -0.1593  0.2289
 9968SOL    HW134751   1.024   6.760   8.645 -2.2125  0.3067 -0.1775
 9968SOL    HW234752   1.015   6.796   8.499  1.0915 -0.7532 -0.7150
 9969SOL     OW34753   3.477   5.841   9.216  0.1194 -0.5773 -0.0495
 9969SOL    HW134754   3.567   5.852   9.186  0.6391 -0.3266  1.5043
 9969SOL    HW234755   3.471   5.751   9.246 -0.4513 -0.8896 -1.0708
 9970SOL     OW34756   2.542   4.159   9.257 -0.0280  0.3041 -0.5948
 9970SOL    HW134757   2.610   4.092   9.267  0.6309  0.9830 -0.3961
 9970SOL    HW234758   2.523   4.159   9.163 -1.4569 -1.5010 -0.3582
 9971SOL     OW34759   3.858   4.831   0.555  0.0862  0.2154  0.5559
 9971SOL    HW134760   3.771   4.813   0.520 -1.2874  0.6837  3.4381
 9971SOL    HW234761   3.893   4.900   0.499 -3.1779  3.0221  1.6310
 9972SOL     OW34762   0.012   5.575   7.756  0.2125  0.0436 -0.7421
 9972SOL    HW134763   0.084   5.638   7.758 -2.1037  2.9410 -1.1443
 9972SOL    HW234764  -0.044   5.601   7.830 -1.2000 -1.0558 -1.3871
 9973SOL     OW34765   3.697   6.613   0.591 -0.3761  0.5686 -0.5754
 9973SOL    HW134766   3.730   6.641   0.506 -1.7917  0.7714 -1.0860
 9973SOL    HW234767   3.751   6.537   0.614 -0.6044 -0.0913 -2.1192
 9974SOL     OW34768   1.150   5.294   9.283  0.2127  0.0051 -0.3791
 9974SOL    HW134769   1.169   5.215   9.333 -0.2735 -1.5278 -2.4884
 9974SOL    HW234770   1.059   5.314   9.302  0.1521 -0.3295 -0.3113
 9975SOL     OW34771   3.935   4.777   9.040  0.1479  0.7322  0.1517
 9975SOL    HW134772   3.924   4.715   9.112 -0.4019  1.6210  0.8490
 9975SOL    HW234773   4.003   4.837   9.070 -1.4746  2.3247  0.8246
 9976SOL     OW34774   5.490   5.989   7.595 -0.3793  0.3421 -0.5913
 9976SOL    HW134775   5.468   6.059   7.656 -0.4850 -0.4409  0.2846
 9976SOL    HW234776   5.565   6.023   7.546  0.7795  0.3538  1.1132
 9977SOL     OW34777   0.713   6.942   5.731  0.0236  0.7650  0.3200
 9977SOL    HW134778   0.709   6.847   5.734  1.0154  0.7325  0.9229
 9977SOL    HW234779   0.628   6.971   5.765 -0.3665  0.1087 -0.0738
 9978SOL     OW34780   2.789   5.485   0.211 -0.4681 -0.6231 -0.1756
 9978SOL    HW134781   2.810   5.397   0.182 -1.4183 -0.2214 -2.2850
 9978SOL    HW234782   2.805   5.540   0.135  1.1953  1.2440  1.4114
 9979SOL     OW34783   1.176   6.237   9.394  0.2605 -0.0633  0.5878
 9979SOL    HW134784   1.147   6.310   9.340 -1.5066 -0.5887  0.7436
 9979SOL    HW234785   1.197   6.168   9.332 -0.3503 -0.1830  0.5076
 9980SOL     OW34786   1.968   7.254   6.280 -0.6406  0.0951  0.6139
 9980SOL    HW134787   2.002   7.292   6.361 -1.6145 -0.7037  1.4338
 9980SOL    HW234788   1.968   7.160   6.296 -2.8136  0.0196  0.5463
 9981SOL     OW34789   6.590   6.829   0.311  0.3542 -0.4616  0.4324
 9981SOL    HW134790   6.674   6.826   0.266  0.1750 -0.6516  0.1009
 9981SOL    HW234791   6.595   6.906   0.368 -0.0116  0.7648 -1.1154
 9982SOL     OW34792   4.965   4.275   7.466 -0.1106 -0.4706  0.3615
 9982SOL    HW134793   5.024   4.204   7.442 -1.3644 -1.2529 -0.5470
 9982SOL    HW234794   5.002   4.353   7.423 -0.6442 -1.2845 -1.7132
 9983SOL     OW34795   0.533   7.603   6.756 -0.2888 -0.7174  0.3268
 9983SOL    HW134796   0.587   7.524   6.755  0.7466 -0.0419  1.3373
 9983SOL    HW234797   0.580   7.665   6.700 -0.8295 -0.6410 -0.0461
 9984SOL     OW34798   2.976   6.407   7.022  0.0790  0.3611 -0.1116
 9984SOL    HW134799   3.051   6.430   7.076 -1.5941  0.9851  2.0798
 9984SOL    HW234800   2.997   6.320   6.987  2.6042  1.3240 -1.1719
 9985SOL     OW34801   1.393   6.891   9.057  0.1909  0.2220 -1.1952
 9985SOL    HW134802   1.484   6.897   9.084 -0.0655 -0.2751 -0.1446
 9985SOL    HW234803   1.351   6.967   9.097 -0.6277 -1.6450  1.8087
 9986SOL     OW34804   1.082   6.482   8.839  0.1407  0.0973 -0.0301
 9986SOL    HW134805   1.109   6.573   8.827  1.1485 -0.2401 -0.4381
 9986SOL    HW234806   1.012   6.486   8.903 -0.8992  1.3183 -1.1880
 9987SOL     OW34807   1.475   5.817   9.767 -0.7091  0.2377 -0.1739
 9987SOL    HW134808   1.453   5.850   9.680  0.1011 -0.3785 -0.6199
 9987SOL    HW234809   1.452   5.889   9.827 -1.9476  0.3972 -0.8143
 9988SOL     OW34810   0.386   7.814   9.765 -0.3056  0.4840 -0.0362
 9988SOL    HW134811   0.312   7.875   9.773 -0.6216  0.0115  0.6743
 9988SOL    HW234812   0.460   7.870   9.739 -0.7986  1.0293 -0.3116
 9989SOL     OW34813   3.600   6.264   7.557  0.1111 -0.0206 -0.1477
 9989SOL    HW134814   3.584   6.358   7.549  0.4016  0.0402 -0.0314
 9989SOL    HW234815   3.674   6.257   7.618  0.3955 -0.3018 -0.5193
 9990SOL     OW34816   2.583   7.544   9.685  0.2444  0.3728  0.3599
 9990SOL    HW134817   2.637   7.623   9.683  0.0553  0.4847 -1.1049
 9990SOL    HW234818   2.573   7.524   9.778  0.7846  1.7367  0.7264
 9991SOL     OW34819   2.159   7.905   7.475 -0.2785  0.1888  0.0894
 9991SOL    HW134820   2.158   7.815   7.507  1.2620 -0.0232 -0.3706
 9991SOL    HW234821   2.232   7.946   7.521  0.4618  0.5444 -1.3391
 9992SOL     OW34822   9.800   8.110   8.642 -0.0488  0.0676 -0.0095
 9992SOL    HW134823   9.889   8.145   8.644 -0.3445  0.8223  0.7911
 9992SOL    HW234824   9.764   8.129   8.729 -0.9248 -0.4048 -0.2498
 9993SOL     OW34825   3.003   7.508   9.235  0.1442  0.6073  0.0582
 9993SOL    HW134826   2.941   7.577   9.261 -2.0929 -1.0026 -0.6193
 9993SOL    HW234827   3.048   7.483   9.316 -2.5919 -0.4549  1.3866
 9994SOL     OW34828   3.195   4.049   8.436  0.1220  0.2691  0.1532
 9994SOL    HW134829   3.211   4.138   8.404  0.0256  0.3135  0.2318
 9994SOL    HW234830   3.282   4.018   8.463  0.0389  0.6118  0.8335
 9995SOL     OW34831   1.460   5.677   9.029  0.1146  0.4817  0.3680
 9995SOL    HW134832   1.499   5.722   9.104  0.5959 -0.8621  0.9729
 9995SOL    HW234833   1.389   5.625   9.067 -0.0349  0.2635 -0.2056
 9996SOL     OW34834   1.875   8.300   8.848  0.6011  0.5628  0.2946
 9996SOL    HW134835   1.817   8.228   8.872  1.4471  0.5543  2.5600
 9996SOL    HW234836   1.817   8.367   8.811 -0.4227 -0.5427 -0.1632
 9997SOL     OW34837   1.010   5.672   9.777  0.0598 -0.4945  0.3342
 9997SOL    HW134838   1.101   5.653   9.755 -0.2748 -2.5390  0.5690
 9997SOL    HW234839   0.963   5.667   9.694 -0.0348 -0.6271  0.3961
 9998SOL     OW34840   1.559   7.340   0.023 -0.8285 -0.0335  0.5538
 9998SOL    HW134841   1.485   7.315   0.080 -0.1101  0.2300  1.6300
 9998SOL    HW234842   1.559   7.436   0.025  0.2441 -0.0366  1.5137
 9999SOL     OW34843   4.021   8.232   1.159  0.0569  0.3544 -0.1163
 9999SOL    HW134844   3.964   8.307   1.141  0.3319  0.9116  1.2269
 9999SOL    HW234845   4.012   8.216   1.253  1.7197  0.1547  0.0523
10000SOL     OW34846   4.374   7.800   2.810 -0.4909  0.0666 -0.1242
10000SOL    HW134847   4.462   7.834   2.792 -0.4283 -0.3867 -0.6775
10000SOL    HW234848   4.385   7.705   2.815 -1.0137 -0.0280 -0.6170
10001SOL     OW34849   1.591   7.066   0.544 -0.2939  0.9494 -0.3456
10001SOL    HW134850   1.547   7.100   0.466  0.1690  2.5497  0.0487
10001SOL    HW234851   1.679   7.041   0.513  0.0438  2.0008 -0.2746
10002SOL     OW34852   3.157   1.199   0.846 -0.2389  0.1953 -0.1804
10002SOL    HW134853   3.242   1.171   0.882 -0.1519 -0.6858 -1.0299
10002SOL    HW234854   3.093   1.161   0.906 -0.0575  0.0859 -0.0523
10003SOL     OW34855   2.266   9.802   0.601 -0.3143 -0.5057 -0.5859
10003SOL    HW134856   2.261   9.708   0.584 -0.7768 -0.7150  0.5542
10003SOL    HW234857   2.272   9.843   0.515  2.1420 -1.6813 -1.0558
10004SOL     OW34858   2.564   9.726   1.740  0.1783  0.0657 -0.4446
10004SOL    HW134859   2.543   9.642   1.781 -2.3893  0.9343  0.1867
10004SOL    HW234860   2.615   9.703   1.662 -1.2347 -2.1475 -0.7832
10005SOL     OW34861   2.237   7.752   9.619 -0.1790  0.4291 -0.3328
10005SOL    HW134862   2.176   7.682   9.595  1.7332 -1.1098 -0.8966
10005SOL    HW234863   2.304   7.709   9.671  1.0502  1.8281 -0.7050
10006SOL     OW34864   4.582   0.285   9.088  0.3769  0.0898  0.1616
10006SOL    HW134865   4.634   0.205   9.092  0.2650 -0.0927 -1.3600
10006SOL    HW234866   4.492   0.255   9.076  0.6666  0.2984 -4.2229
10007SOL     OW34867   1.792   9.663   9.079  0.8199 -0.1973 -0.0914
10007SOL    HW134868   1.711   9.615   9.059 -2.1473  4.5053 -0.9732
10007SOL    HW234869   1.850   9.645   9.005 -0.5182 -1.5921 -0.8486
10008SOL     OW34870   3.411   9.247   3.055  0.4515 -0.2377 -0.0615
10008SOL    HW134871   3.416   9.252   3.151 -2.5190 -1.4541  0.2751
10008SOL    HW234872   3.450   9.163   3.033  1.4452  0.1928  0.0202
10009SOL     OW34873   2.573   8.007   3.034  0.1467 -0.4955 -0.5213
10009SOL    HW134874   2.653   8.057   3.019  0.3280 -0.6931 -0.2286
10009SOL    HW234875   2.505   8.074   3.043  0.3137 -0.3175 -0.5618
10010SOL     OW34876   1.727   9.075   8.704  0.3115 -0.2897  0.2259
10010SOL    HW134877   1.656   9.118   8.657 -0.7477 -2.1921  0.0281
10010SOL    HW234878   1.687   9.040   8.784  1.4525  0.2554  1.0804
10011SOL     OW34879   4.748   9.432   3.223  0.1322 -0.2468 -0.0985
10011SOL    HW134880   4.841   9.436   3.244  0.1214  1.3807 -0.2865
10011SOL    HW234881   4.745   9.421   3.128  0.1246 -1.1172 -0.0057
10012SOL     OW34882   2.354   7.922   0.163 -0.1754  0.1450 -0.3192
10012SOL    HW134883   2.322   7.906   0.074 -1.4894  2.5061 -0.3472
10012SOL    HW234884   2.281   7.898   0.219  0.3596 -0.5524  0.1009
10013SOL     OW34885   2.584   8.378   1.267  0.1203  0.0271 -0.0653
10013SOL    HW134886   2.506   8.329   1.242  2.0955 -2.9726 -0.8651
10013SOL    HW234887   2.600   8.352   1.358  1.8526 -1.9350 -0.8617
10014SOL     OW34888   1.650   6.739   9.077  0.2065  0.1583 -0.6845
10014SOL    HW134889   1.641   6.791   9.157 -1.9090 -0.1263 -0.6661
10014SOL    HW234890   1.689   6.799   9.013  0.2348  0.9571  0.0626
10015SOL     OW34891   1.677   0.261   0.464  0.3063  0.4676 -0.0616
10015SOL    HW134892   1.772   0.253   0.470  0.7132  2.9676 -1.6572
10015SOL    HW234893   1.657   0.344   0.508 -1.1257  0.1014  0.0301
10016SOL     OW34894   2.613   8.574   0.569 -0.1728 -0.5385 -0.2773
10016SOL    HW134895   2.630   8.522   0.490 -1.1616  0.9180 -1.5265
10016SOL    HW234896   2.520   8.562   0.585 -0.0815 -0.3966  0.3610
10017SOL     OW34897   8.916   7.257   1.682  0.9722  0.0295  0.0646
10017SOL    HW134898   8.939   7.170   1.647  0.5036  0.1888 -0.6712
10017SOL    HW234899   8.823   7.266   1.663  0.9492  0.5652  0.4260
10018SOL     OW34900   3.540   8.308   0.288  0.1486 -0.3671  0.3612
10018SOL    HW134901   3.577   8.239   0.234 -0.8272  0.7900 -1.9085
10018SOL    HW234902   3.457   8.273   0.319  1.3624 -1.6076  2.5256
10019SOL     OW34903   1.990   8.972   0.651 -0.0447 -0.2326 -0.1467
10019SOL    HW134904   2.029   9.052   0.615  0.6323 -0.2329  0.5552
10019SOL    HW234905   2.021   8.969   0.742 -1.3775 -0.4481  0.3224
10020SOL     OW34906   2.728   9.321   2.836 -0.3468  0.7526  0.5358
10020SOL    HW134907   2.725   9.411   2.867 -0.9282  1.0160 -0.2492
10020SOL    HW234908   2.778   9.326   2.754  2.4499 -0.1360  2.0396
10021SOL     OW34909   4.001   7.017   2.261 -0.1069  0.0391  0.4248
10021SOL    HW134910   4.091   6.991   2.241 -0.3109  0.2528 -0.8465
10021SOL    HW234911   3.967   6.946   2.315  1.5383  1.0389  2.9702
10022SOL     OW34912   4.160   7.329   8.537  0.2183  0.2403  0.2235
10022SOL    HW134913   4.154   7.386   8.461 -1.2329  0.6643  0.6160
10022SOL    HW234914   4.228   7.368   8.591  1.5585 -0.3028 -1.0122
10023SOL     OW34915   4.493   9.098   2.379 -0.3354  0.0505 -0.1011
10023SOL    HW134916   4.452   9.013   2.391 -1.9999  1.1079  2.5703
10023SOL    HW234917   4.443   9.140   2.309 -0.7194 -0.4311 -0.1164
10024SOL     OW34918   1.612   6.911   0.847  0.3462  0.1399  0.3766
10024SOL    HW134919   1.611   6.916   0.751 -0.3370  0.2663  0.3847
10024SOL    HW234920   1.615   7.002   0.875  2.6575  0.0924  0.4866
10025SOL     OW34921   2.295   8.961   0.504  0.5057  0.3353  0.1348
10025SOL    HW134922   2.295   8.872   0.470 -1.1020  0.1072  0.6435
10025SOL    HW234923   2.318   8.952   0.596 -0.4724  0.3400  0.3878
10026SOL     OW34924   1.568   9.494   9.110 -0.2391  0.4434 -0.1536
10026SOL    HW134925   1.484   9.539   9.111 -0.6229 -0.2575  0.6961
10026SOL    HW234926   1.561   9.431   9.038 -1.3573 -1.2233  1.3257
10027SOL     OW34927   3.766   7.278   9.735 -0.6083  0.6546  0.0020
10027SOL    HW134928   3.812   7.213   9.683  0.0614  0.8484  0.3377
10027SOL    HW234929   3.833   7.344   9.756 -0.4392 -0.1634  2.3527
10028SOL     OW34930   6.224   0.376   0.050 -0.2575  0.6578 -0.2330
10028SOL    HW134931   6.145   0.411   0.092 -1.8868 -0.1461 -2.4016
10028SOL    HW234932   6.293   0.388   0.115 -2.3405  0.4573  2.2056
10029SOL     OW34933   2.729   7.456   1.378  0.1949  0.7308 -0.3804
10029SOL    HW134934   2.750   7.363   1.369  1.3382  0.6541  2.1144
10029SOL    HW234935   2.814   7.500   1.375  0.5237  0.9846  4.2829
10030SOL     OW34936   3.883   7.611   0.893  0.1187  0.3670  0.4061
10030SOL    HW134937   3.801   7.656   0.873 -1.1003 -1.3421  1.2336
10030SOL    HW234938   3.877   7.528   0.845  0.1171 -0.9283  2.4942
10031SOL     OW34939   2.790   6.583   1.477  0.2218 -0.3317  0.2427
10031SOL    HW134940   2.713   6.640   1.479 -1.9732 -2.9957 -1.1637
10031SOL    HW234941   2.813   6.570   1.569 -0.5110  1.1326  0.6570
10032SOL     OW34942   2.262   6.423   2.571 -0.1469  0.5228  0.3328
10032SOL    HW134943   2.171   6.396   2.573 -0.5999  1.4521 -2.8711
10032SOL    HW234944   2.302   6.369   2.503  1.6977  0.2816  1.5216
10033SOL     OW34945   2.111   7.753   8.833  0.2370  0.0847 -0.1195
10033SOL    HW134946   2.086   7.830   8.885  0.3773  0.4773 -0.6334
10033SOL    HW234947   2.146   7.789   8.752 -0.0381 -0.5358 -0.5153
10034SOL     OW34948   2.473   7.335   0.934 -0.1374  0.5877  0.4678
10034SOL    HW134949   2.526   7.331   0.854  0.2368  0.0081  0.7325
10034SOL    HW234950   2.396   7.385   0.909  0.6137  1.6119  0.1125
10035SOL     OW34951   3.438   0.255   0.396  0.1195  0.7414  0.0946
10035SOL    HW134952   3.350   0.278   0.425 -0.1443 -0.3564  0.1973
10035SOL    HW234953   3.430   0.243   0.301  0.0896  0.3576  0.1439
10036SOL     OW34954   1.689   0.379   8.028 -0.1046  0.6067 -1.1954
10036SOL    HW134955   1.671   0.391   7.935 -0.6437  1.0924 -1.0377
10036SOL    HW234956   1.681   0.466   8.066  1.7747  0.7217 -0.9479
10037SOL     OW34957   1.389   7.640   0.758  0.8568  0.7757 -0.4228
10037SOL    HW134958   1.296   7.632   0.781  1.2633 -1.6128  0.6702
10037SOL    HW234959   1.423   7.707   0.817  0.2643  0.0782  0.7520
10038SOL     OW34960   0.162   6.611   1.973 -0.4029 -0.0670  0.3083
10038SOL    HW134961   0.122   6.626   1.888 -0.3221  2.3690  0.6476
10038SOL    HW234962   0.106   6.657   2.035  0.6094 -0.1508  1.3238
10039SOL     OW34963   2.519   7.272   0.624 -0.1106 -1.2262  0.1638
10039SOL    HW134964   2.510   7.365   0.602  1.5789 -0.3490  2.6984
10039SOL    HW234965   2.450   7.229   0.575  0.2706  1.0693 -2.6724
10040SOL     OW34966   4.516   8.045   9.725  0.2036 -0.2118 -0.3208
10040SOL    HW134967   4.490   8.111   9.660  0.7441  1.3854  0.9951
10040SOL    HW234968   4.585   7.995   9.683  0.4548  0.7061 -1.0309
10041SOL     OW34969   1.622   9.400   0.791  0.2262 -0.1729  0.3366
10041SOL    HW134970   1.606   9.433   0.879 -1.3190  1.5205 -0.5016
10041SOL    HW234971   1.652   9.476   0.742  0.0319 -0.8258 -0.8337
10042SOL     OW34972   3.038   9.457   2.109  0.5027 -0.1990 -0.0765
10042SOL    HW134973   3.088   9.485   2.186  0.9460 -1.5772  0.1738
10042SOL    HW234974   3.097   9.395   2.065 -1.3205 -2.6847  0.7725
10043SOL     OW34975   2.571   7.448   2.067  0.0758 -0.3965 -0.9203
10043SOL    HW134976   2.624   7.489   1.999  0.9986  1.4299  0.7861
10043SOL    HW234977   2.627   7.382   2.106  1.0691  1.2447  0.5993
10044SOL     OW34978   0.552   6.946   0.086  0.4831  0.4917  0.6968
10044SOL    HW134979   0.524   6.947   0.177 -1.1851 -1.0893  0.2525
10044SOL    HW234980   0.471   6.933   0.036  1.4192  0.8102 -0.9852
10045SOL     OW34981   3.276   7.725   1.607 -0.6859 -0.0214 -0.1301
10045SOL    HW134982   3.309   7.716   1.518  1.4578  0.2854  0.5809
10045SOL    HW234983   3.335   7.789   1.648  0.1347 -2.1719  2.3083
10046SOL     OW34984   3.766   0.221   1.610  0.1578  0.0465  0.7649
10046SOL    HW134985   3.842   0.193   1.560  0.2245 -0.4112  1.1104
10046SOL    HW234986   3.711   0.142   1.616 -1.3263  0.8567 -1.2047
10047SOL     OW34987   2.236   6.604   9.858 -0.1819  0.0590 -0.0742
10047SOL    HW134988   2.236   6.683   9.804 -0.2016  0.0439 -0.0974
10047SOL    HW234989   2.200   6.633   9.942  1.8332  0.5727  0.6594
10048SOL     OW34990   3.390   9.213   0.775 -0.1731  0.9518  0.1329
10048SOL    HW134991   3.468   9.186   0.823 -0.0298  1.4636  0.1965
10048SOL    HW234992   3.397   9.309   0.770 -0.3264  0.9279 -0.6733
10049SOL     OW34993   2.478   6.237   2.984 -0.7808  0.1630  0.3344
10049SOL    HW134994   2.447   6.326   2.966 -2.1758 -0.4302 -0.3562
10049SOL    HW234995   2.406   6.196   3.032 -0.1037 -0.5672  0.7525
10050SOL     OW34996   0.554   8.454   0.480 -0.0546  0.6322 -0.3960
10050SOL    HW134997   0.618   8.474   0.411 -0.2010  1.1709 -0.3802
10050SOL    HW234998   0.606   8.446   0.560 -0.0035  1.1001 -0.3779
10051SOL     OW34999   5.226   7.623   0.871  0.5471  0.4183 -0.3244
10051SOL    HW135000   5.182   7.628   0.785  1.2397  0.1417 -0.7002
10051SOL    HW235001   5.294   7.690   0.867 -1.2465  2.4916  1.1221
10052SOL     OW35002   2.870   2.011   8.946  0.0729 -0.3743 -0.7592
10052SOL    HW135003   2.954   2.055   8.937  0.6426 -1.3033 -0.2143
10052SOL    HW235004   2.871   1.974   9.034 -0.7493 -0.7189 -0.8783
10053SOL     OW35005   4.145   5.500   7.598 -0.7048 -0.8821 -0.2989
10053SOL    HW135006   4.190   5.559   7.658 -2.2124 -1.2782  1.2927
10053SOL    HW235007   4.193   5.509   7.515  0.0839  1.3443  0.3246
10054SOL     OW35008   2.617   6.189   1.775  0.3345 -0.0325  0.5360
10054SOL    HW135009   2.596   6.153   1.861 -0.1137 -0.4588  0.2476
10054SOL    HW235010   2.534   6.189   1.728  0.9616 -1.8331 -0.6608
10055SOL     OW35011   0.760   0.728   0.926 -0.3564  0.2620  0.0637
10055SOL    HW135012   0.834   0.708   0.869 -1.3675  3.6659 -2.8369
10055SOL    HW235013   0.719   0.644   0.944  2.3573 -1.3797 -0.8785
10056SOL     OW35014   1.911   7.237   1.464  0.2241  0.1297  0.4397
10056SOL    HW135015   1.852   7.185   1.409 -0.4333  0.4549  0.8286
10056SOL    HW235016   1.966   7.285   1.401  2.0531 -2.2822  0.0295
10057SOL     OW35017   2.208   8.132   9.839  0.6041  0.8067  0.0557
10057SOL    HW135018   2.220   8.188   9.762  1.0906 -0.8734 -1.1356
10057SOL    HW235019   2.276   8.161   9.900 -0.5293  2.9503  0.3996
10058SOL     OW35020   2.102   6.198   2.209  0.0693 -0.8856  0.2028
10058SOL    HW135021   2.078   6.125   2.267  0.9304 -1.3325  0.0124
10058SOL    HW235022   2.125   6.156   2.126 -1.0821 -0.2599 -0.4678
10059SOL     OW35023   4.543   9.505   1.048  0.0617  0.2716  0.5384
10059SOL    HW135024   4.636   9.491   1.068  0.2331  1.6815  0.7972
10059SOL    HW235025   4.497   9.466   1.123  0.3490 -1.6438 -0.2145
10060SOL     OW35026   4.226   8.030   9.809  0.2457  0.2201 -0.2040
10060SOL    HW135027   4.270   8.112   9.831  0.6383  0.4139 -1.6580
10060SOL    HW235028   4.290   7.980   9.760 -0.9469  0.2889 -1.9081
10061SOL     OW35029   0.464   4.642   8.980  0.2518 -0.0787  0.0662
10061SOL    HW135030   0.429   4.559   8.947 -0.8871  0.6374 -0.6334
10061SOL    HW235031   0.395   4.674   9.039  0.9340  0.1132  0.7709
10062SOL     OW35032   0.978   8.179   2.307 -0.4919 -0.0868 -0.1504
10062SOL    HW135033   0.930   8.160   2.226  0.4989  2.2109 -1.3770
10062SOL    HW235034   0.917   8.231   2.360 -0.7820 -0.7232  0.1513
10063SOL     OW35035   0.268   8.565   9.769  0.7895 -0.0248 -0.1616
10063SOL    HW135036   0.178   8.536   9.785  1.0108  0.2631  1.9079
10063SOL    HW235037   0.321   8.515   9.831  1.8644  0.8643 -0.3288
10064SOL     OW35038   9.001   9.661   8.709 -0.1435  0.0358 -0.0487
10064SOL    HW135039   9.082   9.630   8.668  0.2105 -1.3392  1.5930
10064SOL    HW235040   8.974   9.590   8.767 -2.6859  0.3615 -0.7154
10065SOL     OW35041   4.820   0.775   8.329 -0.2193 -0.2790  0.7155
10065SOL    HW135042   4.863   0.734   8.254 -0.9919 -2.6070  1.4262
10065SOL    HW235043   4.775   0.851   8.294  0.5158 -0.5677 -0.9173
10066SOL     OW35044   8.290   7.677   9.492  0.0561  0.4479 -0.2127
10066SOL    HW135045   8.376   7.677   9.535  0.5516  0.2827 -1.1766
10066SOL    HW235046   8.303   7.726   9.411 -1.2084  1.9429  0.4391
10067SOL     OW35047   2.192   8.366   1.729 -0.1149  0.1519 -0.9459
10067SOL    HW135048   2.237   8.342   1.648  2.4135  0.1354  0.3575
10067SOL    HW235049   2.246   8.436   1.767 -0.9985 -0.1108  0.9144
10068SOL     OW35050   2.604   6.369   2.373 -0.2069  0.6993 -0.2718
10068SOL    HW135051   2.520   6.323   2.366  1.2244 -2.1658 -0.2944
10068SOL    HW235052   2.631   6.355   2.464  0.4900  1.0962 -0.4150
10069SOL     OW35053   4.035   4.317   9.293  0.4177  0.2253  0.4026
10069SOL    HW135054   3.977   4.241   9.288 -1.2493  1.4678  0.3362
10069SOL    HW235055   4.117   4.281   9.328 -0.1318 -1.6931 -0.1429
10070SOL     OW35056   0.607   8.258   9.782 -0.3430  0.5734  0.0640
10070SOL    HW135057   0.576   8.303   9.703  1.8999 -1.0831 -1.9361
10070SOL    HW235058   0.610   8.166   9.757  1.3363  0.1132  1.7596
10071SOL     OW35059   5.371   8.970   7.997  0.3104  0.2130  0.4144
10071SOL    HW135060   5.424   9.049   7.988  0.1344  0.3024  0.1294
10071SOL    HW235061   5.316   8.986   8.074 -1.2547  1.2915 -0.8522
10072SOL     OW35062   4.434   0.811   1.707  0.4962  0.2501 -0.0276
10072SOL    HW135063   4.492   0.781   1.637  0.6078  1.0579 -0.2956
10072SOL    HW235064   4.466   0.768   1.786 -0.0036 -1.1502 -0.5610
10073SOL     OW35065   3.646   5.675   1.840  0.3402  0.1610  0.5729
10073SOL    HW135066   3.602   5.754   1.808  1.3037  0.5771  0.2471
10073SOL    HW235067   3.645   5.615   1.765 -1.4797 -0.6447  1.1747
10074SOL     OW35068   5.270   7.538   2.289 -0.3052  0.5372 -0.3066
10074SOL    HW135069   5.259   7.545   2.384 -1.9366  2.1004 -0.5554
10074SOL    HW235070   5.254   7.445   2.270 -1.6210  0.5118  0.7735
10075SOL     OW35071   1.259   8.897   0.337  0.0254 -0.3642 -0.0060
10075SOL    HW135072   1.237   8.857   0.421  0.4708  0.1632  0.3723
10075SOL    HW235073   1.277   8.989   0.358 -2.2879  0.4098 -1.0299
10076SOL     OW35074   3.068   8.347   0.039 -0.1334  0.2760 -0.3035
10076SOL    HW135075   3.080   8.304   0.124  1.7936  2.3250  0.5465
10076SOL    HW235076   2.988   8.398   0.049 -0.5955 -0.4621 -0.1692
10077SOL     OW35077   1.014   0.091   1.280 -0.8862  0.6963 -0.7825
10077SOL    HW135078   0.982   0.169   1.324  0.5202  1.0393 -0.3204
10077SOL    HW235079   1.069   0.124   1.208 -0.8346  0.1378 -1.0102
10078SOL     OW35080   2.705   7.420   8.928  1.0173 -0.0822  0.1414
10078SOL    HW135081   2.795   7.410   8.895  0.6044 -2.1915 -0.5364
10078SOL    HW235082   2.702   7.362   9.005  0.0610 -0.6130 -0.2804
10079SOL     OW35083   3.209   8.559   0.181 -0.4622  0.1328  0.6392
10079SOL    HW135084   3.236   8.511   0.260 -2.0705  1.6389  2.2071
10079SOL    HW235085   3.132   8.511   0.150  0.5508 -0.8423 -0.4652
10080SOL     OW35086   4.227   9.253   0.882 -0.2137 -0.5096 -0.2327
10080SOL    HW135087   4.136   9.223   0.882 -0.2955 -0.2722  0.4794
10080SOL    HW235088   4.228   9.325   0.945  0.0091  0.8860 -1.7768
10081SOL     OW35089   3.601   7.202   9.041 -0.0770  0.1065  0.0334
10081SOL    HW135090   3.669   7.135   9.053  0.5259  0.4843 -1.1165
10081SOL    HW235091   3.533   7.179   9.104  0.4461 -1.1665  0.1615
10082SOL     OW35092   1.926   5.446   1.289 -0.0013  0.3751 -0.2801
10082SOL    HW135093   1.852   5.396   1.324  0.2015  0.7191  0.6798
10082SOL    HW235094   1.976   5.472   1.367  0.3567  1.3455 -0.8268
10083SOL     OW35095   2.549   6.660   0.264 -0.1592 -0.0163 -0.5583
10083SOL    HW135096   2.620   6.672   0.327 -1.0997 -0.4241  0.6099
10083SOL    HW235097   2.558   6.569   0.235 -1.0039 -0.5081  0.6388
10084SOL     OW35098   1.984   6.850   3.737 -0.4842 -0.4093 -0.5153
10084SOL    HW135099   2.012   6.804   3.817 -2.3828 -0.1177  0.3820
10084SOL    HW235100   2.057   6.907   3.715  0.4785 -1.2345  0.4420
10085SOL     OW35101   1.910   7.021   1.020  0.0068  0.8693 -0.1643
10085SOL    HW135102   1.908   6.991   0.930 -0.9638 -2.5226  0.8361
10085SOL    HW235103   1.820   7.045   1.040  0.0366  0.7250  0.1567
10086SOL     OW35104   3.424   1.460   0.716 -0.1663  0.5065  0.1911
10086SOL    HW135105   3.433   1.473   0.810 -0.3090  3.4253 -0.0831
10086SOL    HW235106   3.333   1.433   0.704 -0.1008 -0.0377  0.8984
10087SOL     OW35107   4.127   0.670   0.780 -0.0487  0.2260  0.0491
10087SOL    HW135108   4.095   0.626   0.859 -1.8565 -0.5455 -1.0600
10087SOL    HW235109   4.190   0.609   0.742  0.1744  0.2187  0.4277
10088SOL     OW35110   2.053   7.763   1.367  0.0631  0.2647  0.0376
10088SOL    HW135111   2.030   7.699   1.434  0.5543  0.5257  0.4624
10088SOL    HW235112   2.016   7.728   1.286 -2.1524  0.8596  0.7363
10089SOL     OW35113   2.793   8.496   8.212  0.2878 -0.4623  0.4260
10089SOL    HW135114   2.795   8.498   8.308  0.3273 -1.1341  0.4431
10089SOL    HW235115   2.807   8.404   8.190  1.0773 -0.1938 -0.2463
10090SOL     OW35116   1.728   7.846   1.644 -0.4996  0.2784  0.2257
10090SOL    HW135117   1.772   7.852   1.559 -1.2465 -0.5082 -0.2359
10090SOL    HW235118   1.719   7.937   1.672  1.2684  0.4700  0.2770
10091SOL     OW35119   3.667   7.191   0.768 -0.1789  0.1239 -0.3444
10091SOL    HW135120   3.619   7.274   0.779  0.1666  0.1883  0.7989
10091SOL    HW235121   3.599   7.124   0.764 -0.4305  0.3908 -0.5835
10092SOL     OW35122   2.345   9.039   0.023  0.5418  0.0099  0.1813
10092SOL    HW135123   2.275   9.039   0.087  0.0840 -0.0353 -0.3085
10092SOL    HW235124   2.418   8.994   0.066 -0.1240 -1.0095  0.2744
10093SOL     OW35125   2.002   6.203   1.200  0.1338  0.4153  0.6264
10093SOL    HW135126   1.979   6.295   1.200  0.1898  0.4660 -1.2890
10093SOL    HW235127   2.062   6.193   1.126 -0.6858 -1.3298  0.1489
10094SOL     OW35128   4.184   8.776   0.463 -0.2219  0.1251 -0.0756
10094SOL    HW135129   4.216   8.800   0.376 -0.4094 -0.9537 -0.4495
10094SOL    HW235130   4.261   8.782   0.520 -0.2315  1.4818 -0.1575
10095SOL     OW35131   2.656   1.031   3.695  0.0616  0.0666 -0.5538
10095SOL    HW135132   2.570   0.997   3.670  0.0398  0.4255 -0.9765
10095SOL    HW235133   2.638   1.088   3.770 -0.1705  0.6868 -1.0697
10096SOL     OW35134   1.538   9.357   0.323  0.6658 -0.1493  0.3942
10096SOL    HW135135   1.477   9.371   0.395  0.8682  2.6093  0.1308
10096SOL    HW235136   1.622   9.389   0.355  1.9450 -3.2144  0.4969
10097SOL     OW35137   5.912   6.391   1.278 -0.5582 -0.2918 -0.6019
10097SOL    HW135138   5.959   6.357   1.202  0.7893 -0.0009  0.0704
10097SOL    HW235139   5.971   6.376   1.352 -0.3196  2.5086 -0.1069
10098SOL     OW35140   0.984   6.135   1.798  0.7357  0.0252 -0.6693
10098SOL    HW135141   0.963   6.042   1.809 -3.3622  0.7856 -0.1940
10098SOL    HW235142   1.039   6.156   1.873  1.6387 -1.9696 -0.7133
10099SOL     OW35143   3.142   7.652   0.167 -0.0163 -0.1864 -0.3149
10099SOL    HW135144   3.147   7.659   0.262  0.6669 -0.2118 -0.3446
10099SOL    HW235145   3.051   7.674   0.146 -0.2160 -0.3596  0.3561
10100SOL     OW35146   0.069   8.214   9.033 -0.1782 -0.3515  0.2745
10100SOL    HW135147   0.081   8.239   9.124 -0.8594  2.7812 -0.3793
10100SOL    HW235148   0.157   8.218   8.995 -0.1379  0.0917  0.4124
10101SOL     OW35149   4.219   8.345   0.269  0.4207 -0.6660 -0.0254
10101SOL    HW135150   4.152   8.285   0.236 -1.8452  1.4943  0.4158
10101SOL    HW235151   4.174   8.427   0.283  3.4250  1.2933 -0.7935
10102SOL     OW35152   1.486   0.045   1.081  0.2807  0.1169  0.4548
10102SOL    HW135153   1.516   0.122   1.129  0.0135 -0.1448  1.0558
10102SOL    HW235154   1.430  -0.001   1.143  1.1087 -1.0037  0.4090
10103SOL     OW35155   3.167   6.972   0.128  0.7283 -0.1500 -0.4567
10103SOL    HW135156   3.239   6.943   0.072  1.0130 -0.5006  0.0816
10103SOL    HW235157   3.201   6.963   0.217  0.0356 -0.2709 -0.1983
10104SOL     OW35158   2.173   1.574   5.958 -0.3609  0.1690 -0.5049
10104SOL    HW135159   2.130   1.502   5.912  0.0706 -1.8503  2.0155
10104SOL    HW235160   2.266   1.557   5.949 -0.2713 -0.2183  0.9889
10105SOL     OW35161   4.035   7.474   0.553 -0.0978 -0.1134 -0.2497
10105SOL    HW135162   4.001   7.563   0.546  0.9337  0.3111  0.0059
10105SOL    HW235163   3.988   7.437   0.628  1.6529  1.2590  1.6267
10106SOL     OW35164   0.884   8.113   2.057 -0.5323  0.1917 -0.3221
10106SOL    HW135165   0.915   8.052   1.991 -0.7398 -1.3586  0.9448
10106SOL    HW235166   0.816   8.165   2.013 -1.2824 -1.3920 -1.0980
10107SOL     OW35167   3.833   6.763   1.551  0.0845  0.1270  0.1854
10107SOL    HW135168   3.820   6.839   1.494  3.9355  1.0219  0.1770
10107SOL    HW235169   3.823   6.687   1.494 -0.8911  0.7596 -0.5060
10108SOL     OW35170   5.465   6.337   9.047  0.6732  0.9787  0.1753
10108SOL    HW135171   5.420   6.253   9.040  0.3621  1.2916 -2.3939
10108SOL    HW235172   5.545   6.325   8.996  0.2627  2.4674 -0.8476
10109SOL     OW35173   2.912   8.246   0.594 -0.3859 -0.1204 -0.4575
10109SOL    HW135174   2.862   8.170   0.564  1.0210 -1.8717  1.3255
10109SOL    HW235175   2.938   8.223   0.683  2.7439  1.0786 -0.9466
10110SOL     OW35176   0.910   8.066   0.341 -1.0765 -0.0608  0.1280
10110SOL    HW135177   0.821   8.040   0.365 -1.2084  0.0024 -0.2782
10110SOL    HW235178   0.949   7.986   0.307 -0.6855 -0.3023  1.1157
10111SOL     OW35179   3.407   9.133   9.821 -0.5538 -0.0557 -0.0310
10111SOL    HW135180   3.387   9.192   9.894  0.8353 -1.3723  1.4903
10111SOL    HW235181   3.339   9.151   9.757 -0.8728  2.3277  0.8805
10112SOL     OW35182   5.195   6.350   3.058 -0.6721  0.2652  0.3057
10112SOL    HW135183   5.115   6.377   3.013 -0.4359 -1.5103 -1.2806
10112SOL    HW235184   5.210   6.261   3.029  0.2035 -0.5661  3.0021
10113SOL     OW35185   0.575   9.415   1.759  0.4530 -0.7309  0.4359
10113SOL    HW135186   0.613   9.451   1.839  1.2735 -1.6546  0.4716
10113SOL    HW235187   0.629   9.451   1.689 -0.5912  0.5085  0.2300
10114SOL     OW35188   2.737   7.080   0.666 -0.0213  0.6186  0.4452
10114SOL    HW135189   2.817   7.122   0.635  0.4670 -0.5808  0.0557
10114SOL    HW235190   2.680   7.153   0.689  1.7641  1.5370  2.3030
10115SOL     OW35191   2.733   6.622   9.836  0.7517  0.5004 -0.0784
10115SOL    HW135192   2.645   6.659   9.837  0.9292  0.9785  2.0732
10115SOL    HW235193   2.785   6.682   9.890  1.5078 -1.7384  1.8477
10116SOL     OW35194   2.192   8.034   1.671  0.0300 -0.0293  0.2216
10116SOL    HW135195   2.140   8.040   1.751  0.0797  1.3390  0.1766
10116SOL    HW235196   2.163   8.108   1.619  0.7099 -0.3382 -0.6067
10117SOL     OW35197   2.815   0.186   1.803  0.1012 -0.3417 -0.1470
10117SOL    HW135198   2.762   0.239   1.744  0.0278  0.1979  0.3893
10117SOL    HW235199   2.883   0.245   1.833  1.9722 -1.4118 -1.9884
10118SOL     OW35200   1.709   6.922   1.402 -0.3611  0.1811  0.4092
10118SOL    HW135201   1.704   6.839   1.354  1.7133  0.8231 -1.0645
10118SOL    HW235202   1.630   6.969   1.377 -0.7749 -0.7123 -0.0094
10119SOL     OW35203   1.633   0.117   9.813  0.2416 -0.0734 -0.9069
10119SOL    HW135204   1.709   0.173   9.830  0.2037 -0.9214  3.1252
10119SOL    HW235205   1.669   0.039   9.772  0.9082  1.0893 -2.6192
10120SOL     OW35206   4.027   8.236   0.623 -0.0666 -0.2089 -0.3091
10120SOL    HW135207   4.118   8.211   0.637 -0.0322 -0.1022 -0.3446
10120SOL    HW235208   4.008   8.299   0.693 -0.2151 -0.4905 -0.0949
10121SOL     OW35209   4.157   8.569   2.145  0.2241  0.1597  0.4128
10121SOL    HW135210   4.219   8.585   2.215 -0.6155  1.1055  0.9731
10121SOL    HW235211   4.174   8.639   2.081 -0.0831  0.2813  0.4576
10122SOL     OW35212   2.232   5.889   3.027  0.1832 -0.1398 -0.1284
10122SOL    HW135213   2.301   5.888   2.961 -1.5181  1.0918 -2.0454
10122SOL    HW235214   2.152   5.866   2.978 -0.8582 -1.1766  1.9335
10123SOL     OW35215   9.793   8.876   2.161 -0.4905  0.2174  0.6010
10123SOL    HW135216   9.750   8.892   2.077  0.9829  0.0430 -0.2270
10123SOL    HW235217   9.796   8.962   2.202 -1.4868  0.2571  0.6256
10124SOL     OW35218   1.553   9.420   1.067  0.2921 -0.0287 -0.2167
10124SOL    HW135219   1.471   9.443   1.025 -0.3199 -2.3859 -0.4601
10124SOL    HW235220   1.549   9.461   1.154 -0.1878  1.5691 -0.9680
10125SOL     OW35221   1.448   9.310   9.452  0.5076 -0.3529  0.2559
10125SOL    HW135222   1.530   9.327   9.406  0.8747  1.5153  1.4762
10125SOL    HW235223   1.382   9.305   9.383  1.4032 -0.1370 -0.6266
10126SOL     OW35224   3.383   5.664   1.212 -0.0860  0.9051 -0.2910
10126SOL    HW135225   3.315   5.642   1.275 -0.7845 -0.5325 -1.5069
10126SOL    HW235226   3.378   5.760   1.205 -1.2572  0.9191  0.4245
10127SOL     OW35227   5.292   7.145   8.140 -0.2251 -0.2282  0.4152
10127SOL    HW135228   5.312   7.086   8.067  0.0934  1.5272 -0.9863
10127SOL    HW235229   5.365   7.207   8.142  0.3356 -0.8438  2.9767
10128SOL     OW35230   3.086   8.482   0.620 -0.0633 -0.2448  0.1392
10128SOL    HW135231   3.044   8.564   0.596 -0.7024  0.0676  2.1220
10128SOL    HW235232   3.018   8.432   0.666  0.2277 -2.0279 -1.2584
10129SOL     OW35233   1.757   9.135   2.599  0.1716  0.6317  1.2328
10129SOL    HW135234   1.738   9.043   2.612 -0.1197  0.6215  0.7480
10129SOL    HW235235   1.674   9.180   2.616 -0.4103  0.5660 -1.1133
10130SOL     OW35236   2.989   8.275   0.845  0.4764  0.3366 -0.5981
10130SOL    HW135237   3.070   8.308   0.883  0.0842  0.7596 -0.1093
10130SOL    HW235238   2.922   8.298   0.909 -0.1468  0.7533 -1.3886
10131SOL     OW35239   4.253   9.332   0.147 -0.5147 -0.2151 -0.4580
10131SOL    HW135240   4.206   9.364   0.224 -0.2277  0.6720 -0.6385
10131SOL    HW235241   4.191   9.274   0.103 -1.2063  0.4307 -0.3433
10132SOL     OW35242   3.724   9.370   1.705 -0.4586  1.1349  0.0911
10132SOL    HW135243   3.810   9.410   1.697  0.0007  0.1193 -0.2664
10132SOL    HW235244   3.693   9.362   1.615 -0.0323 -0.3464  0.0517
10133SOL     OW35245   2.615   7.344   2.650 -0.1735 -0.1940 -0.2407
10133SOL    HW135246   2.587   7.271   2.706 -0.6261 -0.8004 -1.2396
10133SOL    HW235247   2.703   7.318   2.620 -0.0974 -0.0561 -0.1387
10134SOL     OW35248   4.692   8.598   0.582  0.0486 -0.0796  0.0915
10134SOL    HW135249   4.658   8.548   0.509 -0.4076  0.4785 -0.0829
10134SOL    HW235250   4.749   8.537   0.629 -0.6467 -0.8068 -0.0099
10135SOL     OW35251   1.543   7.695   1.926 -0.0212 -0.0943  0.3523
10135SOL    HW135252   1.470   7.690   1.865  0.4987  0.4733 -0.3372
10135SOL    HW235253   1.556   7.789   1.939  0.9942 -0.1650 -0.0461
10136SOL     OW35254   3.719   7.983   0.645 -0.0456 -0.2949  0.0424
10136SOL    HW135255   3.664   8.046   0.690 -0.2627 -0.2188 -0.3261
10136SOL    HW235256   3.696   7.899   0.684 -0.4698 -0.2714 -0.1518
10137SOL     OW35257   0.460   9.608   9.578 -0.2096  0.2458 -0.3759
10137SOL    HW135258   0.369   9.637   9.573 -0.5954 -0.3505  2.0132
10137SOL    HW235259   0.498   9.660   9.648  1.2095  0.2174 -1.0924
10138SOL     OW35260   5.544   8.730   0.472  0.8551 -0.0669  0.7115
10138SOL    HW135261   5.632   8.736   0.509  1.3784  2.8596 -0.6443
10138SOL    HW235262   5.555   8.680   0.391  1.3260  0.3080  0.5352
10139SOL     OW35263   3.140   1.428   0.122 -0.2874 -0.6260  0.0098
10139SOL    HW135264   3.064   1.467   0.164  1.4628  1.4857  1.4481
10139SOL    HW235265   3.120   1.429   0.029 -1.3860  1.3661  0.2222
10140SOL     OW35266   3.502   7.674   2.178 -0.3965 -0.6940  0.1319
10140SOL    HW135267   3.533   7.624   2.103  0.0340 -1.4427  0.7962
10140SOL    HW235268   3.488   7.762   2.144  1.3888 -0.6073 -0.4742
10141SOL     OW35269   1.350   8.104   1.603  0.3590 -0.2371  0.1206
10141SOL    HW135270   1.386   8.187   1.634 -0.4980  0.3245 -0.3591
10141SOL    HW235271   1.372   8.101   1.510 -0.3696 -0.1263 -0.0630
10142SOL     OW35272   2.657   6.890   0.483 -0.8125  0.2291 -0.0238
10142SOL    HW135273   2.698   6.909   0.398  2.5201 -1.0252  1.1455
10142SOL    HW235274   2.684   6.963   0.539  0.6955 -1.0461  0.9977
10143SOL     OW35275   2.181   8.292   1.995 -0.2444 -0.0549  0.0464
10143SOL    HW135276   2.151   8.308   1.905  0.7871 -2.2724 -0.7822
10143SOL    HW235277   2.276   8.298   1.989 -0.2233  1.2340  1.3490
10144SOL     OW35278   0.037   0.780   9.481  0.1548  0.1563  0.7305
10144SOL    HW135279   0.052   0.694   9.520 -1.1034 -0.1016  0.6643
10144SOL    HW235280   0.125   0.816   9.468  1.0291 -2.6947 -2.8744
10145SOL     OW35281   6.166   9.013   9.506  0.5094  0.3086 -0.1816
10145SOL    HW135282   6.094   9.066   9.474  0.4861  1.0388  1.0176
10145SOL    HW235283   6.161   9.020   9.602 -0.2391 -2.8363  0.1201
10146SOL     OW35284   0.953   9.085   7.848  0.3314  0.4485 -0.3843
10146SOL    HW135285   0.953   9.013   7.912  0.8737  0.3740 -0.4641
10146SOL    HW235286   0.878   9.066   7.792  0.2856  0.1095 -0.2170
10147SOL     OW35287   1.966   9.511   1.838  0.1807 -0.3351 -0.2961
10147SOL    HW135288   2.007   9.545   1.758 -1.2834 -0.2179 -1.0314
10147SOL    HW235289   1.920   9.432   1.809 -1.9780  0.7410 -0.0331
10148SOL     OW35290   4.413   6.186   3.158 -0.1216 -0.3729 -0.0674
10148SOL    HW135291   4.468   6.138   3.219  1.2068  1.0568 -0.0681
10148SOL    HW235292   4.337   6.212   3.211 -0.3001 -1.4524  0.2259
10149SOL     OW35293   2.459   7.040   8.986 -0.2872 -0.3448 -0.5331
10149SOL    HW135294   2.553   7.053   8.968 -0.0867 -2.5677 -1.4384
10149SOL    HW235295   2.417   7.120   8.955  1.3305  0.8792  0.2802
10150SOL     OW35296   3.127   6.611   0.125  0.4616 -0.5489 -0.3685
10150SOL    HW135297   3.146   6.654   0.041  2.2639  0.4768  0.4915
10150SOL    HW235298   3.133   6.518   0.106  1.4727 -0.3236 -1.2623
10151SOL     OW35299   1.974   7.270   0.373  0.1191  0.4973 -0.0227
10151SOL    HW135300   1.975   7.333   0.446  0.3298  0.5625 -0.0801
10151SOL    HW235301   1.893   7.288   0.326  0.2629  0.8463 -0.1411
10152SOL     OW35302   2.738   8.594   1.345  0.0822 -0.3245 -0.0403
10152SOL    HW135303   2.824   8.612   1.306 -0.5036 -0.0085 -1.2190
10152SOL    HW235304   2.707   8.515   1.301 -0.9944  0.5636 -0.9419
10153SOL     OW35305   2.162   7.096   1.611 -0.7696  0.0093  0.5246
10153SOL    HW135306   2.210   7.152   1.551 -0.5203  1.5384  2.0811
10153SOL    HW235307   2.085   7.067   1.562 -0.0845  0.4082 -0.8198
10154SOL     OW35308   3.480   4.854   3.692  0.4596 -0.1673  0.2794
10154SOL    HW135309   3.562   4.819   3.656 -0.1583 -1.0119 -0.3445
10154SOL    HW235310   3.444   4.908   3.622  0.0166 -0.5696  0.1903
10155SOL     OW35311   8.279   7.372   0.354  0.4816 -0.2598 -0.4178
10155SOL    HW135312   8.352   7.413   0.308  0.0706  1.2042  0.1592
10155SOL    HW235313   8.313   7.356   0.442  0.5211 -0.8160 -0.5349
10156SOL     OW35314   2.606   0.051   0.124 -0.2830  0.1214  0.0908
10156SOL    HW135315   2.528   0.028   0.174  0.0865 -1.7519 -0.1320
10156SOL    HW235316   2.593   0.010   0.039  0.0747  1.4700 -0.6500
10157SOL     OW35317   2.365   7.621   9.854  0.4733  0.2984  0.4543
10157SOL    HW135318   2.326   7.653   9.935  0.6730  0.9581  0.2897
10157SOL    HW235319   2.362   7.525   9.863  0.3262  0.3616  1.1579
10158SOL     OW35320   4.073   9.148   9.635 -0.1033  0.2387  0.6614
10158SOL    HW135321   4.102   9.057   9.626 -0.2600  0.2201  0.3381
10158SOL    HW235322   4.032   9.169   9.551  0.9963  0.9872  0.2791
10159SOL     OW35323   3.783   9.164   0.284  0.3362  0.2038  0.5171
10159SOL    HW135324   3.749   9.091   0.231  0.6402 -0.6704  1.4916
10159SOL    HW235325   3.870   9.134   0.312  1.0450  1.5154 -0.1693
10160SOL     OW35326   3.583   8.604   2.942  0.6172 -0.3211  0.2776
10160SOL    HW135327   3.561   8.631   3.031 -2.1818 -1.1969 -0.0611
10160SOL    HW235328   3.664   8.651   2.922  0.6618  0.8330  2.8247
10161SOL     OW35329   2.618   7.991   9.257 -0.6546 -0.3336 -0.1889
10161SOL    HW135330   2.693   8.039   9.221  0.0257 -2.1666 -1.3502
10161SOL    HW235331   2.602   8.033   9.342  0.6334  1.1560 -0.6346
10162SOL     OW35332   1.989   8.636   8.499  0.2171 -0.1419 -0.2657
10162SOL    HW135333   1.936   8.561   8.473  0.1608 -0.6075  1.1133
10162SOL    HW235334   1.975   8.700   8.430 -2.0348 -0.3055 -0.0440
10163SOL     OW35335   5.395   7.242   1.572 -0.8577  0.2296 -0.5861
10163SOL    HW135336   5.424   7.320   1.524 -0.7328  0.7491  0.3180
10163SOL    HW235337   5.397   7.172   1.507  1.8964  0.3390 -0.7175
10164SOL     OW35338   5.173   7.099   0.041  0.1002  0.0695 -0.0565
10164SOL    HW135339   5.178   7.107  -0.054  0.9798  1.5680  0.0951
10164SOL    HW235340   5.256   7.135   0.073  0.8955 -2.5796  1.1910
10165SOL     OW35341   3.570   0.098   9.485 -0.0213  0.9729 -0.4850
10165SOL    HW135342   3.621   0.030   9.441 -0.1566  2.2043 -2.6914
10165SOL    HW235343   3.550   0.061   9.571  1.6144 -0.9329 -0.8519
10166SOL     OW35344   1.163   7.588   2.797  0.6946  0.3384  0.3092
10166SOL    HW135345   1.255   7.612   2.784  0.8261 -0.8101 -1.1737
10166SOL    HW235346   1.165   7.493   2.813 -0.2121  0.3168  0.3454
10167SOL     OW35347   3.093   6.626   9.291 -0.0674  0.5161 -0.6618
10167SOL    HW135348   3.128   6.665   9.372 -0.0267 -0.1668 -0.3443
10167SOL    HW235349   3.159   6.647   9.224  1.4697 -1.5268  0.1086
10168SOL     OW35350   3.994   8.421   1.505  0.2167  0.0992  0.1005
10168SOL    HW135351   3.968   8.512   1.493 -0.5284 -0.3461 -1.8563
10168SOL    HW235352   3.913   8.372   1.501  0.6269 -0.6897  1.0539
10169SOL     OW35353   3.264   5.932   1.158 -0.0152  0.3548 -0.0247
10169SOL    HW135354   3.282   6.020   1.127 -1.7242  0.3841 -1.0879
10169SOL    HW235355   3.236   5.943   1.249  0.0559  0.8685 -0.0642
10170SOL     OW35356   0.540   7.682   0.672 -0.0020 -0.1410  0.2779
10170SOL    HW135357   0.590   7.619   0.621 -2.0046 -1.1921 -0.5005
10170SOL    HW235358   0.574   7.767   0.647  1.3831 -0.8130 -0.1837
10171SOL     OW35359   5.695   8.823   9.623 -0.5439 -0.1622 -0.3163
10171SOL    HW135360   5.698   8.730   9.645 -1.3197 -0.1543 -0.1600
10171SOL    HW235361   5.697   8.825   9.527 -3.1744 -0.4760 -0.4294
10172SOL     OW35362   2.298   9.526   1.419  1.0697  0.0281 -0.1181
10172SOL    HW135363   2.278   9.608   1.464 -1.5050 -1.0430  0.9132
10172SOL    HW235364   2.261   9.537   1.332 -1.1360 -0.6443  0.6494
10173SOL     OW35365   1.110   9.277   2.423  0.7285  0.7262  0.3304
10173SOL    HW135366   1.079   9.271   2.332  2.4823  1.1450 -0.3266
10173SOL    HW235367   1.199   9.311   2.416  0.1512  2.9139  2.3439
10174SOL     OW35368   2.330   7.170   0.447  0.6168 -0.4307  0.2824
10174SOL    HW135369   2.300   7.245   0.396  0.4574 -0.6558  0.0423
10174SOL    HW235370   2.361   7.107   0.382  1.2943 -0.3399  0.5129
10175SOL     OW35371   2.780   9.697   0.756 -0.5022 -0.6122  0.1715
10175SOL    HW135372   2.864   9.714   0.713 -1.2099 -0.9963 -1.4311
10175SOL    HW235373   2.750   9.784   0.785  1.4009 -0.6758  2.7819
10176SOL     OW35374   1.801   7.307   1.174 -0.3978  0.3248 -0.4867
10176SOL    HW135375   1.891   7.311   1.205  0.3334 -1.0374 -2.2353
10176SOL    HW235376   1.784   7.394   1.138  0.4017  0.4494 -0.5798
10177SOL     OW35377   1.894   7.806   1.935  0.2358  0.0284 -0.7145
10177SOL    HW135378   1.911   7.895   1.904  0.4635  0.2790  0.1200
10177SOL    HW235379   1.971   7.756   1.909  1.1623  0.5983  0.8446
10178SOL     OW35380   3.370   9.317   1.179  0.3442 -0.5099  0.1987
10178SOL    HW135381   3.292   9.298   1.127 -0.4223 -1.8133  1.7180
10178SOL    HW235382   3.367   9.411   1.193 -1.5965 -0.6468  1.0978
10179SOL     OW35383   2.153   6.883   9.819  0.0776 -0.5416  0.3661
10179SOL    HW135384   2.150   6.843   9.906  1.5042  0.5627  0.9684
10179SOL    HW235385   2.239   6.925   9.815  0.0697 -0.6308 -1.6171
10180SOL     OW35386   1.705   8.458   2.512 -0.0257 -0.7311  0.1561
10180SOL    HW135387   1.761   8.385   2.485  0.8803  0.4308 -1.3154
10180SOL    HW235388   1.673   8.495   2.430  1.1053  1.6654  0.6928
10181SOL     OW35389   2.587   6.462   1.930  0.0009  0.1869 -0.4406
10181SOL    HW135390   2.658   6.507   1.976  1.7621 -1.6832 -1.2257
10181SOL    HW235391   2.567   6.386   1.985 -0.3171 -0.1603 -1.0312
10182SOL     OW35392   0.924   6.496   5.203 -0.1055  0.7787 -0.0219
10182SOL    HW135393   0.831   6.476   5.195 -0.4196  2.0167  0.3612
10182SOL    HW235394   0.935   6.580   5.159  0.9145  0.4718 -0.3901
10183SOL     OW35395   2.452   1.035   3.398 -0.7536  0.2549  0.0884
10183SOL    HW135396   2.466   1.129   3.400  0.1636  0.1234  0.3451
10183SOL    HW235397   2.539   0.998   3.388 -1.1117 -0.5681 -0.1023
10184SOL     OW35398   4.488   7.856   3.886  0.3007 -0.5889  0.2137
10184SOL    HW135399   4.559   7.903   3.928 -1.6709  2.1766  0.7647
10184SOL    HW235400   4.440   7.814   3.958 -0.1637 -0.1311  0.1793
10185SOL     OW35401   3.947   8.213   1.957 -0.1508  0.2698 -0.2604
10185SOL    HW135402   4.023   8.219   1.899 -0.6598  0.0043 -0.9626
10185SOL    HW235403   3.892   8.287   1.932 -0.7127 -0.2607 -0.6193
10186SOL     OW35404   4.201   6.903   0.759  0.0591  0.5593  0.5491
10186SOL    HW135405   4.160   6.864   0.682  0.8239 -2.4429  1.5438
10186SOL    HW235406   4.289   6.927   0.730 -0.0688  0.6008  0.1912
10187SOL     OW35407   3.344   8.589   3.685 -0.3427  0.2163 -0.5227
10187SOL    HW135408   3.405   8.578   3.612  0.0933  2.2916 -0.5474
10187SOL    HW235409   3.258   8.592   3.644 -0.3449 -1.0787 -0.6587
10188SOL     OW35410   4.433   7.167   3.857  0.4906  0.2541 -0.4568
10188SOL    HW135411   4.338   7.172   3.870  0.5845 -0.9048  0.9072
10188SOL    HW235412   4.469   7.231   3.917  0.6931 -1.8637  1.8575
10189SOL     OW35413   1.950   9.152   4.727  0.1469 -0.2131  0.6204
10189SOL    HW135414   1.992   9.167   4.642 -0.3210 -1.4397  0.1459
10189SOL    HW235415   1.859   9.181   4.713 -0.0647 -0.9016  0.5283
10190SOL     OW35416   3.432   5.763   4.460 -0.0722  0.2057  0.5087
10190SOL    HW135417   3.465   5.852   4.477  0.5682 -0.1195  1.0175
10190SOL    HW235418   3.346   5.762   4.502 -0.9710  1.1913 -1.1899
10191SOL     OW35419   4.347   8.984   3.775  0.4068  0.1075  0.0231
10191SOL    HW135420   4.282   8.974   3.845  0.5973  1.7054  0.4784
10191SOL    HW235421   4.297   9.019   3.701  0.5375  0.1903 -0.0257
10192SOL     OW35422   3.138   9.795   1.894  0.2263  0.6833 -0.0023
10192SOL    HW135423   3.072   9.768   1.831 -0.1880  1.4749  0.0790
10192SOL    HW235424   3.090   9.809   1.975  0.4003  1.7434 -0.0678
10193SOL     OW35425   1.892   8.324   3.359  0.3311  0.2008 -0.2848
10193SOL    HW135426   1.842   8.397   3.398  1.2162 -0.1679  1.6631
10193SOL    HW235427   1.880   8.335   3.265 -2.6239  0.6825  0.0414
10194SOL     OW35428   4.890   7.841   4.444 -0.9257 -0.2815 -0.3219
10194SOL    HW135429   4.941   7.911   4.404  0.2295  0.0772  1.6585
10194SOL    HW235430   4.813   7.833   4.388 -0.6918  1.9957 -1.0854
10195SOL     OW35431   1.480   6.274   9.761  0.3462  0.1048 -0.0128
10195SOL    HW135432   1.466   6.264   9.667  1.2431  0.6113 -0.2148
10195SOL    HW235433   1.558   6.223   9.779  0.6149  0.6272  0.3132
10196SOL     OW35434   2.638   8.476   1.865 -0.3906 -0.2032  0.7658
10196SOL    HW135435   2.727   8.485   1.831 -0.6369 -0.5449  0.0111
10196SOL    HW235436   2.582   8.511   1.796 -0.9855 -2.0423  0.2524
10197SOL     OW35437   3.685   7.710   2.440  0.4019  0.2257 -0.2548
10197SOL    HW135438   3.608   7.699   2.385 -0.0882  0.1394  0.4466
10197SOL    HW235439   3.744   7.640   2.413  0.3113  0.3916 -0.9041
10198SOL     OW35440   3.147   9.453   2.558 -0.2657 -0.2325  0.4221
10198SOL    HW135441   3.125   9.543   2.533 -0.4890 -0.6993 -1.2408
10198SOL    HW235442   3.085   9.399   2.509 -0.8936 -1.2787  2.2736
10199SOL     OW35443   4.291   9.289   3.085 -0.2171 -0.2309  0.3299
10199SOL    HW135444   4.222   9.231   3.053 -0.2928 -0.6416  1.2003
10199SOL    HW235445   4.284   9.368   3.032  0.1441 -1.1652 -1.1692
10200SOL     OW35446   3.869   0.921   1.012  0.3164 -0.2504 -0.2901
10200SOL    HW135447   3.852   0.848   0.951 -0.3269  1.0932 -1.7920
10200SOL    HW235448   3.813   0.902   1.087 -0.5709 -0.8326 -1.0667
10201SOL     OW35449   0.036   7.688   2.292  0.0873 -0.7002  0.5016
10201SOL    HW135450   0.044   7.736   2.210 -1.4545 -1.6794 -0.2865
10201SOL    HW235451   0.087   7.608   2.278 -1.6704 -1.7430 -0.2707
10202SOL     OW35452   4.338   8.193   1.274 -1.0190  0.0720 -0.9774
10202SOL    HW135453   4.413   8.246   1.301  0.5022 -1.5252 -1.8778
10202SOL    HW235454   4.268   8.256   1.259  0.7553  1.8418 -2.2107
10203SOL     OW35455   4.166   7.117   3.058 -0.8358 -0.3384 -0.0270
10203SOL    HW135456   4.126   7.172   3.125 -1.0939 -1.7577  1.0384
10203SOL    HW235457   4.092   7.083   3.008 -0.7084 -0.0606 -0.4075
10204SOL     OW35458   3.372   9.394   4.599  0.0329 -0.1551  0.1682
10204SOL    HW135459   3.359   9.315   4.548 -0.5386  0.0044  0.0510
10204SOL    HW235460   3.466   9.410   4.597  0.1114 -0.6427 -0.0839
10205SOL     OW35461   3.601   7.456   0.844 -0.1985 -0.0269 -0.2992
10205SOL    HW135462   3.569   7.519   0.779  1.1475  0.6775 -0.3212
10205SOL    HW235463   3.561   7.485   0.926 -1.8521 -0.8794 -0.7537
10206SOL     OW35464   2.315   8.366   4.427 -0.0847 -0.5174 -0.6554
10206SOL    HW135465   2.305   8.378   4.521 -0.4174  1.0798 -0.8677
10206SOL    HW235466   2.287   8.276   4.411 -0.9785 -0.4903  0.6300
10207SOL     OW35467   9.600   8.082   2.224 -0.1143  0.3515 -0.0459
10207SOL    HW135468   9.590   7.996   2.265  2.2122 -1.1163 -2.2521
10207SOL    HW235469   9.517   8.127   2.240 -1.5541 -2.4430  0.8301
10208SOL     OW35470   3.645   8.381   1.825  0.1879  0.6243 -0.5871
10208SOL    HW135471   3.735   8.411   1.828  0.3485  0.1104 -0.1738
10208SOL    HW235472   3.626   8.369   1.732  0.9381 -0.4183 -0.6177
10209SOL     OW35473   4.986   8.307   4.804 -0.7995 -0.1562 -0.0503
10209SOL    HW135474   4.966   8.368   4.875 -1.6663 -0.2184 -0.2203
10209SOL    HW235475   4.900   8.274   4.777 -0.8907  2.2601 -3.2458
10210SOL     OW35476   2.807   6.522   3.284 -0.0967 -0.2457 -0.1977
10210SOL    HW135477   2.817   6.488   3.373 -0.4287  1.5757  0.5758
10210SOL    HW235478   2.763   6.451   3.236 -1.7638 -0.5157  1.6256
10211SOL     OW35479   6.106   8.527   3.645  0.0661  0.0467 -0.3629
10211SOL    HW135480   6.104   8.466   3.572  2.2806  0.0303 -0.4938
10211SOL    HW235481   6.175   8.590   3.622 -0.1704  0.8940  1.0655
10212SOL     OW35482   4.389   9.323   4.207  0.2475  1.0687  0.6258
10212SOL    HW135483   4.394   9.359   4.296 -0.9886  1.9462  0.3652
10212SOL    HW235484   4.478   9.293   4.188  0.0557 -1.4474  3.0998
10213SOL     OW35485   5.665   9.398   3.158 -0.2218  0.0790 -0.3344
10213SOL    HW135486   5.635   9.309   3.137 -1.5921 -0.9878  4.5989
10213SOL    HW235487   5.585   9.451   3.156 -1.0910 -0.7016  3.8547
10214SOL     OW35488   2.917   8.833   3.267 -0.3552 -0.7768 -0.0676
10214SOL    HW135489   2.850   8.864   3.205  1.3872  0.4555 -1.4260
10214SOL    HW235490   2.927   8.740   3.247 -2.8888 -1.5007  1.4288
10215SOL     OW35491   3.375   9.458   0.371  0.3467 -0.5454  0.2342
10215SOL    HW135492   3.412   9.409   0.444  1.2574 -2.6182 -1.4759
10215SOL    HW235493   3.440   9.447   0.301 -1.2737 -0.1466 -1.4040
10216SOL     OW35494   2.177   4.845   3.172 -0.0253 -0.0393  0.5916
10216SOL    HW135495   2.242   4.912   3.149 -1.4603  1.0166 -0.6307
10216SOL    HW235496   2.153   4.864   3.262 -0.9335  1.6191  0.0419
10217SOL     OW35497   5.613   5.512   3.656 -0.1910  0.2102  0.5355
10217SOL    HW135498   5.557   5.436   3.641 -0.1086  0.1072  0.7429
10217SOL    HW235499   5.606   5.563   3.575 -0.1958 -0.0509  0.3664
10218SOL     OW35500   0.791   7.865   2.145  0.0005  0.5866  0.0649
10218SOL    HW135501   0.700   7.874   2.118 -0.2466  0.2020  0.7618
10218SOL    HW235502   0.828   7.953   2.133 -0.8550  1.1199  1.1801
10219SOL     OW35503   1.688   7.694   1.282 -0.5024 -0.0014  0.7869
10219SOL    HW135504   1.733   7.627   1.230 -0.3096 -0.9094  2.0641
10219SOL    HW235505   1.758   7.754   1.309 -0.6417  0.6226 -0.1732
10220SOL     OW35506   4.196   8.248   1.613  0.6582 -0.0346 -0.2056
10220SOL    HW135507   4.127   8.277   1.554 -1.2901  0.7508  2.2589
10220SOL    HW235508   4.197   8.314   1.683  2.6761 -1.0049  0.7765
10221SOL     OW35509   2.117   9.745   3.281  0.9565 -0.5993  0.2382
10221SOL    HW135510   2.031   9.771   3.316  0.1803 -0.1512 -1.8437
10221SOL    HW235511   2.177   9.755   3.355 -0.6253 -0.0402  1.5074
10222SOL     OW35512   0.960   0.437   5.299  0.1400 -0.4531  0.1051
10222SOL    HW135513   0.960   0.357   5.353  0.7382 -0.5006  0.0462
10222SOL    HW235514   0.879   0.431   5.248  0.4036 -1.2695 -0.2500
10223SOL     OW35515   0.794   9.382   2.390 -0.4245  0.3226  0.2249
10223SOL    HW135516   0.848   9.360   2.314 -1.5774  0.1781 -0.5804
10223SOL    HW235517   0.844   9.350   2.465 -0.5036 -2.1423 -0.6649
10224SOL     OW35518   4.291   0.084   1.695  0.6950 -0.4701 -0.7099
10224SOL    HW135519   4.341   0.131   1.629  1.9823 -0.3564  0.3014
10224SOL    HW235520   4.224   0.147   1.724 -1.5453 -1.2997 -3.5428
10225SOL     OW35521   2.902   8.423   1.479 -0.2495  0.7131 -0.5291
10225SOL    HW135522   2.872   8.484   1.547  2.7589 -0.0437  1.6984
10225SOL    HW235523   2.962   8.475   1.425  0.0132  0.5027 -0.4476
10226SOL     OW35524   1.691   0.144   3.929  0.3849  0.3903 -0.3404
10226SOL    HW135525   1.724   0.139   4.018  1.1030 -0.4383 -0.6393
10226SOL    HW235526   1.634   0.221   3.929 -0.1111  0.0499  0.9823
10227SOL     OW35527   5.104   6.908   4.552 -0.5055 -0.1775  0.0176
10227SOL    HW135528   5.143   6.844   4.611 -0.9666  2.9364  4.1101
10227SOL    HW235529   5.162   6.984   4.556 -1.4777  0.8172 -2.3138
10228SOL     OW35530   2.400   0.890   3.650  0.1280 -0.2685 -0.1852
10228SOL    HW135531   2.425   0.899   3.558  0.5813 -0.3356 -0.0712
10228SOL    HW235532   2.365   0.801   3.657  0.0108 -0.2326 -0.3089
10229SOL     OW35533   3.379   9.855   2.896  0.1839 -0.1900 -0.2279
10229SOL    HW135534   3.405   9.936   2.852  1.2724 -0.6719 -0.4972
10229SOL    HW235535   3.340   9.802   2.826  0.0149 -0.1350 -0.1757
10230SOL     OW35536   4.129   8.943   1.170  0.2821 -0.0651 -0.2579
10230SOL    HW135537   4.172   8.949   1.085  2.7192 -0.5409  0.8600
10230SOL    HW235538   4.145   8.852   1.199 -0.7105  0.0145  0.5980
10231SOL     OW35539   0.698   9.681   3.788 -0.1681 -0.0709  0.4073
10231SOL    HW135540   0.628   9.652   3.847 -0.2495 -3.1328 -0.9891
10231SOL    HW235541   0.654   9.730   3.719 -0.7832 -0.8208  0.2538
10232SOL     OW35542   3.296   2.500   1.398  0.0660 -0.2883 -0.6029
10232SOL    HW135543   3.256   2.421   1.436 -0.8283 -0.0932 -1.1280
10232SOL    HW235544   3.239   2.571   1.426 -0.6920 -0.1453 -2.3709
10233SOL     OW35545   1.044   7.570   3.679  0.0654  0.5093 -0.0196
10233SOL    HW135546   1.057   7.653   3.634  0.0705  0.0356 -0.9182
10233SOL    HW235547   0.989   7.518   3.620  0.0934 -0.1384  0.5060
10234SOL     OW35548   4.354   8.426   3.613  0.3767  0.0668  0.1498
10234SOL    HW135549   4.361   8.407   3.519  0.2717  0.1285  0.1291
10234SOL    HW235550   4.341   8.521   3.617  0.0101  0.0173  0.2066
10235SOL     OW35551   1.749   9.101   2.008 -0.0428  0.4226  0.2681
10235SOL    HW135552   1.702   9.075   1.929  0.5202 -1.3457  0.4645
10235SOL    HW235553   1.841   9.096   1.983  0.4452 -4.1891  1.9635
10236SOL     OW35554   5.028   7.160   4.714 -0.4259  0.3469  0.0643
10236SOL    HW135555   5.001   7.220   4.645 -1.7184  1.7854  1.7314
10236SOL    HW235556   4.980   7.079   4.696 -0.1510  0.4233 -1.1183
10237SOL     OW35557   2.019   9.810   2.822 -0.3652  0.6595 -0.2783
10237SOL    HW135558   1.943   9.841   2.773 -1.8809  0.2310  1.7061
10237SOL    HW235559   2.050   9.887   2.870 -0.7381  0.3842  0.4054
10238SOL     OW35560   1.833   3.224   4.271  0.6802  0.0725 -0.4521
10238SOL    HW135561   1.925   3.241   4.250  0.4183  0.6123 -1.1899
10238SOL    HW235562   1.828   3.130   4.284  1.3759  0.0639 -0.2217
10239SOL     OW35563   2.134   9.483   3.755 -1.0177 -0.2247  0.4459
10239SOL    HW135564   2.155   9.439   3.672 -2.0572 -0.3867  0.2511
10239SOL    HW235565   2.160   9.574   3.741  2.5663 -0.9740  1.3713
10240SOL     OW35566   1.789   9.507   2.980  0.1717  0.3338 -0.1051
10240SOL    HW135567   1.827   9.530   3.065  1.5539 -3.6908  0.5723
10240SOL    HW235568   1.732   9.433   2.999 -1.3929  0.8306 -2.4298
10241SOL     OW35569   3.128   7.177   3.768 -0.1347 -0.5549 -0.0558
10241SOL    HW135570   3.176   7.123   3.830 -0.5079 -0.5509  0.2376
10241SOL    HW235571   3.087   7.115   3.708 -0.5794 -0.6028  0.2927
10242SOL     OW35572   1.193   5.899   4.364  0.1686 -0.0917 -0.5012
10242SOL    HW135573   1.113   5.908   4.416  0.9288 -0.7293  0.8553
10242SOL    HW235574   1.175   5.946   4.283 -1.8622 -0.9135 -0.5703
10243SOL     OW35575   3.710   9.069   3.903 -0.1919  0.3620  0.3629
10243SOL    HW135576   3.728   9.120   3.982  0.9127  0.6330 -0.0534
10243SOL    HW235577   3.791   9.072   3.853 -0.4951 -0.8043 -0.2360
10244SOL     OW35578   5.288   7.871   2.855 -0.0797  0.3449  0.4377
10244SOL    HW135579   5.254   7.934   2.918  0.7416  0.7767  0.4672
10244SOL    HW235580   5.365   7.914   2.818 -0.4189  0.0033 -0.6971
10245SOL     OW35581   9.810   6.780   5.169 -0.0967 -0.8277 -0.5802
10245SOL    HW135582   9.759   6.719   5.117 -1.8217 -0.2405  0.3168
10245SOL    HW235583   9.763   6.786   5.252  0.8843  0.5235 -0.0722
10246SOL     OW35584   3.346   8.248   3.487 -0.3621 -0.3315 -0.4220
10246SOL    HW135585   3.324   8.208   3.571  3.2933 -0.6560  0.5584
10246SOL    HW235586   3.387   8.332   3.510  2.2682 -1.1650 -1.6453
10247SOL     OW35587   3.749   0.241   0.397  0.0873 -0.1703  0.0745
10247SOL    HW135588   3.749   0.149   0.373  1.8352  0.3522 -2.2711
10247SOL    HW235589   3.840   0.268   0.391 -0.4721  1.9018 -0.1457
10248SOL     OW35590   4.276   7.666   4.804 -0.1505  0.3873 -0.2674
10248SOL    HW135591   4.336   7.598   4.836 -0.5763 -0.7099 -1.6610
10248SOL    HW235592   4.297   7.743   4.855  1.3493 -0.4133  0.3883
10249SOL     OW35593   0.608   7.113   1.111  0.1161  0.5711 -0.1480
10249SOL    HW135594   0.666   7.037   1.117 -2.0631 -1.1522  0.6249
10249SOL    HW235595   0.591   7.136   1.203 -0.8059  0.6854 -0.3402
10250SOL     OW35596   4.639   6.904   2.534  0.7718 -0.3523 -0.2857
10250SOL    HW135597   4.590   6.977   2.495 -0.1265  0.1469  1.6540
10250SOL    HW235598   4.665   6.850   2.459 -1.0170  0.4389 -1.5496
10251SOL     OW35599   3.215   2.185   2.037 -0.9027 -0.1780  0.5350
10251SOL    HW135600   3.178   2.215   2.120 -0.0592  0.0179  0.8416
10251SOL    HW235601   3.201   2.258   1.977  1.6415  1.1148  1.4181
10252SOL     OW35602   2.014   6.978   0.303 -0.6662  0.1846  0.1534
10252SOL    HW135603   2.040   7.060   0.344 -1.8220  0.9176 -0.5344
10252SOL    HW235604   1.919   6.986   0.291 -0.9092 -1.4999  0.6260
10253SOL     OW35605   3.994   6.429   3.444  0.4322 -0.0854  0.1001
10253SOL    HW135606   3.973   6.414   3.352 -0.4116 -1.8923  0.5324
10253SOL    HW235607   3.950   6.357   3.490  0.8867  0.7433  1.9082
10254SOL     OW35608   9.033   4.543   3.265  0.4033 -0.3577  0.1391
10254SOL    HW135609   8.994   4.629   3.281 -0.2092 -0.8345  1.3227
10254SOL    HW235610   9.103   4.536   3.329  0.8212 -0.5268 -0.3270
10255SOL     OW35611   0.597   7.755   2.421  0.0811 -0.3584 -0.3126
10255SOL    HW135612   0.566   7.716   2.340  0.1231 -1.4947  0.2050
10255SOL    HW235613   0.534   7.726   2.487 -0.2897  1.0313 -0.0203
10256SOL     OW35614   3.324   7.377   0.863  0.2235 -0.1219 -0.1611
10256SOL    HW135615   3.384   7.308   0.833  1.6380 -0.0428  2.2567
10256SOL    HW235616   3.370   7.459   0.843  0.4266 -0.0263  0.6733
10257SOL     OW35617   2.915   7.264   1.555 -0.2043  0.9528  0.1560
10257SOL    HW135618   2.973   7.214   1.498 -0.6133  0.0289  0.5237
10257SOL    HW235619   2.940   7.355   1.541 -0.7490  0.8333 -2.0389
10258SOL     OW35620   4.724   7.479   3.908  0.0025 -0.4104 -0.5505
10258SOL    HW135621   4.732   7.562   3.861 -1.6272 -0.0786 -0.2948
10258SOL    HW235622   4.657   7.430   3.861 -1.9575  0.0937  1.5466
10259SOL     OW35623   1.025   7.246   0.648 -0.1148  0.2760  0.3716
10259SOL    HW135624   1.045   7.285   0.733  0.6466  1.3765 -0.2872
10259SOL    HW235625   0.964   7.307   0.607 -0.3588 -0.1716  0.0500
10260SOL     OW35626   0.001   7.446   0.177  0.0257 -1.0359  0.0319
10260SOL    HW135627  -0.016   7.375   0.115 -0.5132 -0.6802 -0.2338
10260SOL    HW235628  -0.061   7.515   0.153  0.1822 -0.6795  0.6210
10261SOL     OW35629   5.867   9.707   3.534 -0.0900 -0.7170 -0.0621
10261SOL    HW135630   5.842   9.699   3.441 -0.4372 -0.0435 -0.0328
10261SOL    HW235631   5.929   9.635   3.548 -0.9749 -1.5962 -0.4939
10262SOL     OW35632   1.336   6.228   1.733  0.3654  0.1101  0.0842
10262SOL    HW135633   1.402   6.159   1.733 -1.6234 -1.9321 -0.4876
10262SOL    HW235634   1.302   6.229   1.643 -0.7003  0.7399  0.4760
10263SOL     OW35635   0.832   7.254   1.372  0.5915 -0.1118  0.1653
10263SOL    HW135636   0.766   7.186   1.380  1.1926 -0.5070  2.4082
10263SOL    HW235637   0.801   7.326   1.427  0.6517  0.9179 -1.0694
10264SOL     OW35638   3.224   9.299   1.996 -0.4207 -0.2261  0.0755
10264SOL    HW135639   3.174   9.224   1.961  1.5032 -0.0136 -3.5917
10264SOL    HW235640   3.285   9.259   2.058  0.2671 -1.7337 -1.4746
10265SOL     OW35641   2.867   9.411   0.869 -0.0592  0.0055  0.0769
10265SOL    HW135642   2.952   9.380   0.839 -1.1185 -1.8747 -1.2006
10265SOL    HW235643   2.860   9.500   0.836  0.4921 -0.6206 -1.8127
10266SOL     OW35644   3.257   7.037   4.369 -0.0130  0.3864  0.6552
10266SOL    HW135645   3.206   7.110   4.333  0.3328  0.8308  1.0461
10266SOL    HW235646   3.220   7.023   4.456  0.3006  0.4808  0.8043
10267SOL     OW35647   2.304   7.681   1.176 -0.1191  0.4055  0.1106
10267SOL    HW135648   2.281   7.754   1.119 -0.1824 -0.0517 -0.4684
10267SOL    HW235649   2.226   7.625   1.176  0.6013 -0.6602 -1.0722
10268SOL     OW35650   2.836   8.357   2.088 -0.1782 -0.4839 -0.4478
10268SOL    HW135651   2.815   8.329   1.999 -0.3039  1.3698 -1.0315
10268SOL    HW235652   2.764   8.413   2.114  0.0267 -0.7273  0.7173
10269SOL     OW35653   2.438   6.979   4.546  0.5467 -0.0336 -0.2577
10269SOL    HW135654   2.457   7.062   4.589 -1.1700 -1.2712  3.2954
10269SOL    HW235655   2.496   6.916   4.587 -0.6451 -1.1771 -0.2545
10270SOL     OW35656   3.312   9.199   2.676  0.5049 -0.1457 -0.3950
10270SOL    HW135657   3.225   9.236   2.659  1.1805  0.9375 -1.6800
10270SOL    HW235658   3.335   9.231   2.763 -0.4761 -0.6589  0.0725
10271SOL     OW35659   1.903   0.293   2.066  0.2377  0.2427  0.2161
10271SOL    HW135660   1.812   0.315   2.046  1.4805  3.1839 -3.5552
10271SOL    HW235661   1.924   0.223   2.004  0.3968 -1.1429  1.7601
10272SOL     OW35662   2.390   7.450   4.284 -0.1899  0.5419  0.1307
10272SOL    HW135663   2.408   7.385   4.351  0.7907  0.3933 -0.2690
10272SOL    HW235664   2.437   7.420   4.206 -0.4379  1.2679 -0.3201
10273SOL     OW35665   2.404   7.389   3.080 -0.3979  0.1107 -0.0938
10273SOL    HW135666   2.363   7.311   3.117 -1.2009 -0.0566 -1.2758
10273SOL    HW235667   2.344   7.417   3.011  0.4401  1.1232 -0.4372
10274SOL     OW35668   2.578   0.425   2.886  0.9472  0.3146  0.2529
10274SOL    HW135669   2.596   0.358   2.820  1.0191  0.2285  0.3603
10274SOL    HW235670   2.657   0.479   2.887  1.2468 -0.1203  0.7935
10275SOL     OW35671   2.731   9.643   3.471 -0.4760  0.0709  0.2124
10275SOL    HW135672   2.758   9.636   3.563  0.3302  0.0537 -0.0144
10275SOL    HW235673   2.641   9.612   3.469 -0.5580  0.2424  1.0292
10276SOL     OW35674   2.975   8.913   4.603  0.0413  0.3154  0.2456
10276SOL    HW135675   2.952   8.902   4.511 -1.4896  3.1757  0.1543
10276SOL    HW235676   2.964   8.826   4.642 -1.2258 -0.5447 -1.8837
10277SOL     OW35677   3.019   8.796   5.450 -0.2992 -0.3948 -0.1115
10277SOL    HW135678   2.936   8.751   5.464 -0.5557  0.3959  0.9975
10277SOL    HW235679   3.073   8.772   5.525  0.5031 -0.8952 -0.8148
10278SOL     OW35680   4.091   6.621   4.017 -0.4662 -0.2843  0.0370
10278SOL    HW135681   4.169   6.590   4.063 -0.0003  0.7523 -0.0266
10278SOL    HW235682   4.125   6.665   3.939 -1.0621  0.8204  0.3786
10279SOL     OW35683   2.316   7.855   4.090  0.6678 -0.0873  0.6081
10279SOL    HW135684   2.375   7.822   4.158  3.1848  1.1838 -0.8065
10279SOL    HW235685   2.344   7.945   4.076 -3.5272  1.6156  1.7707
10280SOL     OW35686   1.249   7.995   3.443 -0.2960 -0.4063 -0.7781
10280SOL    HW135687   1.274   8.005   3.351 -1.1831  0.2187 -0.9606
10280SOL    HW235688   1.186   7.922   3.443 -0.5514 -0.1864 -0.7157
10281SOL     OW35689   4.722   9.502   1.468  0.1308 -0.3274 -0.0371
10281SOL    HW135690   4.735   9.565   1.539 -0.1686 -0.1520 -0.1379
10281SOL    HW235691   4.800   9.510   1.414 -1.7778  3.3360 -2.7100
10282SOL     OW35692   3.015   4.865   4.398  0.4048  0.5353  0.6586
10282SOL    HW135693   2.952   4.857   4.326  1.2568  0.7163 -0.1283
10282SOL    HW235694   3.084   4.803   4.376  2.0892  2.6142 -0.2211
10283SOL     OW35695   1.209   9.268   3.806 -0.3745 -0.0105  0.1725
10283SOL    HW135696   1.167   9.312   3.731 -0.0589 -0.2875 -0.1693
10283SOL    HW235697   1.265   9.336   3.844 -0.6785  0.1866  0.2734
10284SOL     OW35698   0.939   8.208   4.158  0.1112 -0.3559 -0.0317
10284SOL    HW135699   0.875   8.278   4.167 -0.0157 -0.1704 -1.8831
10284SOL    HW235700   0.887   8.129   4.143  0.1496  0.0955 -3.5920
10285SOL     OW35701   5.028   5.974   3.682  0.3001  0.3481 -0.0982
10285SOL    HW135702   4.999   6.037   3.616 -0.6658 -0.2322 -0.2479
10285SOL    HW235703   5.106   5.934   3.643  0.1673  0.5314 -0.5679
10286SOL     OW35704   2.323   7.340   2.133 -0.6651  0.1737 -0.2070
10286SOL    HW135705   2.319   7.255   2.088 -0.1595 -0.5798  1.1058
10286SOL    HW235706   2.398   7.384   2.095  1.1323 -1.3633  1.3100
10287SOL     OW35707   1.403   8.697   2.619 -0.2288 -0.1825 -0.0747
10287SOL    HW135708   1.345   8.621   2.613 -1.9165  0.7598  2.4545
10287SOL    HW235709   1.409   8.714   2.713  2.6014  0.9967 -0.3850
10288SOL     OW35710   0.884   0.615   4.974  0.3125  0.1521 -0.0930
10288SOL    HW135711   0.831   0.594   5.051 -1.0870  1.9175 -0.4873
10288SOL    HW235712   0.823   0.604   4.900  1.0354  0.4484 -0.7424
10289SOL     OW35713   3.464   5.445   1.742 -0.4232  0.1573 -0.4839
10289SOL    HW135714   3.445   5.466   1.650  0.9588  0.6915 -0.6820
10289SOL    HW235715   3.443   5.526   1.789 -2.2090 -0.4674 -0.1311
10290SOL     OW35716   4.155   8.891   2.141  0.4543 -0.3621  0.5078
10290SOL    HW135717   4.125   8.841   2.065 -0.2274 -0.0659  0.5752
10290SOL    HW235718   4.249   8.902   2.127  0.5358 -1.2952  0.2841
10291SOL     OW35719   5.208   6.792   2.922  1.0654  0.3291 -0.0236
10291SOL    HW135720   5.230   6.735   2.995 -0.5419  0.2665  0.4531
10291SOL    HW235721   5.214   6.736   2.845 -1.7952 -0.9631  0.5641
10292SOL     OW35722   1.481   8.226   0.564 -0.4808  0.1925 -0.3743
10292SOL    HW135723   1.508   8.229   0.655 -1.0924 -1.8212 -0.0773
10292SOL    HW235724   1.553   8.268   0.516 -1.0714  3.1431  1.1533
10293SOL     OW35725   2.260   5.286   9.204 -0.1900  0.3079 -0.2107
10293SOL    HW135726   2.269   5.358   9.267 -0.3456 -0.8615  1.1935
10293SOL    HW235727   2.268   5.328   9.118 -0.4345  2.0166  0.5651
10294SOL     OW35728   2.526   3.439   4.960  0.0496 -0.4112 -0.5042
10294SOL    HW135729   2.513   3.346   4.980  0.3997 -0.5271 -0.8014
10294SOL    HW235730   2.440   3.470   4.933 -0.2960 -0.4074  0.5347
10295SOL     OW35731   5.399   6.304   4.394 -0.4536  0.0755  0.2232
10295SOL    HW135732   5.402   6.352   4.477 -1.1887 -2.5325  1.8826
10295SOL    HW235733   5.308   6.309   4.366 -0.1985  0.9843 -0.4823
10296SOL     OW35734   2.728   5.790   4.379 -0.1066 -0.3847 -0.5042
10296SOL    HW135735   2.639   5.798   4.343 -0.1474 -3.2846 -1.3114
10296SOL    HW235736   2.715   5.796   4.474 -0.7396  1.8133 -0.6576
10297SOL     OW35737   2.022   6.374   8.644  0.3474 -0.4866 -0.2400
10297SOL    HW135738   2.000   6.289   8.606 -0.7858 -0.2062 -0.2379
10297SOL    HW235739   2.057   6.424   8.570 -0.0852 -0.5630 -0.4950
10298SOL     OW35740   3.297   8.069   3.695  0.1374  0.0717 -0.2364
10298SOL    HW135741   3.365   8.016   3.654  1.0209 -0.6759  2.0857
10298SOL    HW235742   3.219   8.014   3.693 -0.3562  0.7310 -2.4232
10299SOL     OW35743   1.653   7.916   2.041  0.1592 -0.3583  0.3562
10299SOL    HW135744   1.634   7.981   1.974  1.7287 -0.6756 -0.4442
10299SOL    HW235745   1.740   7.883   2.019  0.4095 -1.0114  2.1280
10300SOL     OW35746   3.356   8.276   3.077  0.4833  0.4062 -0.0772
10300SOL    HW135747   3.287   8.303   3.137 -0.1163  0.7443 -0.9116
10300SOL    HW235748   3.356   8.342   3.008  2.5151  1.1483  0.5480
10301SOL     OW35749   3.859   7.264   1.617 -1.0301 -0.3950 -0.3067
10301SOL    HW135750   3.830   7.351   1.645 -1.9037  0.1634 -2.6313
10301SOL    HW235751   3.911   7.281   1.538 -0.4458 -1.9257 -0.2717
10302SOL     OW35752   2.778   7.745   4.420  0.2903 -0.9112  0.1604
10302SOL    HW135753   2.713   7.674   4.426 -0.0514 -0.8404 -1.9558
10302SOL    HW235754   2.740   7.816   4.472 -0.5337 -1.4325  0.2994
10303SOL     OW35755   2.097   7.469   3.628 -0.2940 -0.5992  0.2930
10303SOL    HW135756   2.186   7.503   3.618 -0.6600  0.3218  0.0319
10303SOL    HW235757   2.101   7.412   3.705 -0.0177  1.4039  1.8459
10304SOL     OW35758   0.410   7.662   3.943  0.1930 -0.2857 -0.0082
10304SOL    HW135759   0.414   7.756   3.957 -0.0217 -0.4526  1.3530
10304SOL    HW235760   0.444   7.649   3.855  0.8996  1.0047  0.0487
10305SOL     OW35761   2.490   7.893   2.097 -0.0170  0.0334  0.7194
10305SOL    HW135762   2.524   7.965   2.150  0.7996 -0.0432  0.3069
10305SOL    HW235763   2.453   7.936   2.020  1.4565 -0.0380 -0.0583
10306SOL     OW35764   0.915   9.441   3.257  0.5638  1.4253  0.3946
10306SOL    HW135765   0.892   9.532   3.272 -1.5615  0.7597  1.5134
10306SOL    HW235766   0.834   9.399   3.228  1.0148 -0.4675  1.6242
10307SOL     OW35767   2.778   8.230   3.425  0.1901 -0.5583  0.4352
10307SOL    HW135768   2.762   8.138   3.449 -0.8319 -0.5430 -0.1521
10307SOL    HW235769   2.695   8.260   3.389  0.7761  0.3550 -0.1818
10308SOL     OW35770   5.520   7.262   2.273  0.2930 -0.4268 -0.5175
10308SOL    HW135771   5.606   7.301   2.289 -1.1543  3.0184 -0.2470
10308SOL    HW235772   5.492   7.299   2.189 -1.0273 -1.2533 -0.4719
10309SOL     OW35773   1.026   0.079   3.416 -0.0235  0.1328  0.1762
10309SOL    HW135774   1.071   0.123   3.488  2.2336 -1.1272 -0.3667
10309SOL    HW235775   1.052  -0.013   3.424 -2.1344 -0.5827 -0.5176
10310SOL     OW35776   3.540   9.024   6.004  0.4835  0.4443 -0.2876
10310SOL    HW135777   3.539   9.062   6.092 -0.0157  0.9520 -0.5065
10310SOL    HW235778   3.633   9.014   5.984  0.6140  1.0112  0.0141
10311SOL     OW35779   3.523   3.931   4.238 -0.2293  0.2507  0.4256
10311SOL    HW135780   3.523   3.949   4.144  2.1564  0.6546  0.4255
10311SOL    HW235781   3.614   3.949   4.265 -1.1358  1.3676  3.0393
10312SOL     OW35782   2.160   5.945   5.480  0.2312  0.1077 -0.0309
10312SOL    HW135783   2.138   5.987   5.563  0.9037 -2.2567  1.4328
10312SOL    HW235784   2.234   5.995   5.447 -0.7131  1.7450  0.1982
10313SOL     OW35785   1.943   8.635   2.527  0.2795  0.2028  0.0157
10313SOL    HW135786   1.905   8.613   2.612 -0.1319 -0.7284 -0.3945
10313SOL    HW235787   1.868   8.665   2.475  0.3830 -0.0844 -0.2984
10314SOL     OW35788   2.620   6.278   0.917 -0.4668  0.0504 -0.1959
10314SOL    HW135789   2.696   6.273   0.859 -0.2589  0.4584  0.0369
10314SOL    HW235790   2.640   6.351   0.976 -0.8917 -0.0536  0.0772
10315SOL     OW35791   1.751   0.153   0.931  1.0803  0.8804 -0.2791
10315SOL    HW135792   1.821   0.106   0.886 -0.1516 -0.7405 -0.5899
10315SOL    HW235793   1.754   0.241   0.893  1.9419  0.4015 -1.4148
10316SOL     OW35794   1.869   6.734   1.554 -0.4013 -0.1392 -0.8346
10316SOL    HW135795   1.819   6.809   1.522 -1.0205 -0.0335  0.3220
10316SOL    HW235796   1.959   6.751   1.527 -0.6425  0.7138 -1.1211
10317SOL     OW35797   1.938   7.271   9.546  0.8476  0.2946 -0.3231
10317SOL    HW135798   1.908   7.355   9.511  1.1903  1.0009  0.9852
10317SOL    HW235799   1.986   7.230   9.475  0.2195  0.9757 -1.1524
10318SOL     OW35800   1.375   8.698   1.191 -0.2585 -0.5671 -0.3515
10318SOL    HW135801   1.321   8.749   1.252 -2.5770 -1.1747 -1.7512
10318SOL    HW235802   1.438   8.761   1.156  0.4171  0.0402  1.7997
10319SOL     OW35803   2.457   5.530   2.611  0.1580  0.4432 -0.5656
10319SOL    HW135804   2.445   5.553   2.703  1.4790  0.0297 -0.2755
10319SOL    HW235805   2.405   5.451   2.599  1.0961 -0.3135  0.2040
10320SOL     OW35806   4.142   0.355   2.986 -0.4221 -0.5146  0.3439
10320SOL    HW135807   4.078   0.312   3.043  2.8171 -1.5469  3.5645
10320SOL    HW235808   4.170   0.287   2.925  0.9221 -1.5568  2.0424
10321SOL     OW35809   4.452   9.213   3.297 -0.1506  0.5747  0.0416
10321SOL    HW135810   4.374   9.250   3.255 -1.0123  1.4646  2.2422
10321SOL    HW235811   4.505   9.289   3.320  0.7844  0.0487 -0.3150
10322SOL     OW35812   1.121   0.912   2.319 -0.0555 -0.0657 -0.2109
10322SOL    HW135813   1.142   0.938   2.229 -0.5706  0.9049 -0.0518
10322SOL    HW235814   1.207   0.899   2.360  0.1907 -0.9045 -0.9342
10323SOL     OW35815   0.998   0.662   1.400 -0.3940  0.2616  0.0980
10323SOL    HW135816   0.940   0.708   1.339 -1.4635  0.2323  1.0597
10323SOL    HW235817   1.025   0.728   1.463 -2.3399 -0.4386  1.7839
10324SOL     OW35818   6.501   5.972   3.627 -0.0896  0.3668 -0.3610
10324SOL    HW135819   6.591   5.939   3.628  0.0969  0.8824  0.4389
10324SOL    HW235820   6.510   6.066   3.637 -0.7849  0.2159  2.8544
10325SOL     OW35821   1.693   9.424   2.667 -0.0371  0.0581 -0.2872
10325SOL    HW135822   1.636   9.381   2.732 -0.2226  0.8503  0.0895
10325SOL    HW235823   1.693   9.516   2.693  1.2749  0.1076 -0.4014
10326SOL     OW35824   1.747   8.501   3.161  0.5946 -0.0814  0.2049
10326SOL    HW135825   1.680   8.475   3.224  1.0394  0.5514  0.9491
10326SOL    HW235826   1.700   8.507   3.077  0.3382 -2.6494  0.0918
10327SOL     OW35827   3.570   9.222   1.868 -0.3875  0.0018 -0.0879
10327SOL    HW135828   3.479   9.194   1.862 -0.6287  0.8002 -0.3337
10327SOL    HW235829   3.588   9.264   1.784  0.0170  0.3931  0.1875
10328SOL     OW35830   2.178   8.430   2.862 -0.8585 -0.0124  0.0112
10328SOL    HW135831   2.144   8.466   2.944 -0.6695  0.2288 -0.0141
10328SOL    HW235832   2.205   8.507   2.812  0.2890 -0.2328  0.2755
10329SOL     OW35833   2.150   8.898   2.164 -0.0640  0.4000  0.2258
10329SOL    HW135834   2.111   8.822   2.207 -0.0898  0.6787  0.7055
10329SOL    HW235835   2.241   8.874   2.147 -0.1858  0.1056 -0.0195
10330SOL     OW35836   4.771   8.519   2.943  0.2900  0.2940  0.0395
10330SOL    HW135837   4.830   8.450   2.971  1.5153  0.9623 -0.8451
10330SOL    HW235838   4.728   8.485   2.865  1.8075  0.9550 -1.1326
10331SOL     OW35839   4.417   5.806   2.625 -0.5508 -0.2150 -0.1551
10331SOL    HW135840   4.480   5.872   2.654 -1.0802 -0.3269  1.3358
10331SOL    HW235841   4.452   5.723   2.659 -0.2545 -0.6197 -1.4116
10332SOL     OW35842   5.494   7.274   1.825  0.0518 -0.2987 -0.0994
10332SOL    HW135843   5.405   7.303   1.845 -0.5496 -0.9796 -1.6019
10332SOL    HW235844   5.483   7.202   1.763  1.5367 -2.9484  2.4423
10333SOL     OW35845   3.255   8.906   2.098  0.0202  0.2186  0.3993
10333SOL    HW135846   3.206   8.849   2.039 -1.5978  2.4423 -0.5582
10333SOL    HW235847   3.324   8.943   2.043 -0.3974  0.9602  0.3701
10334SOL     OW35848   4.972   6.749   2.003  0.3084  0.0715  0.2371
10334SOL    HW135849   4.958   6.737   1.909 -0.8964  0.4254  0.3545
10334SOL    HW235850   5.059   6.714   2.018  0.3354 -0.4368 -0.9316
10335SOL     OW35851   4.857   9.224   3.672  0.1562 -0.2673 -0.4975
10335SOL    HW135852   4.793   9.295   3.672  1.4434  0.9277 -0.7313
10335SOL    HW235853   4.833   9.170   3.748 -0.7732  0.4647 -0.2530
10336SOL     OW35854   3.487   8.231   1.269  0.1433  0.0831 -0.1748
10336SOL    HW135855   3.406   8.242   1.319 -0.2577 -0.6021 -0.6500
10336SOL    HW235856   3.485   8.140   1.239  1.7175 -0.3334  0.8674
10337SOL     OW35857   2.134   5.546   3.422  0.1790  0.3001 -0.0524
10337SOL    HW135858   2.216   5.594   3.420 -0.4170  1.3371 -0.5885
10337SOL    HW235859   2.158   5.456   3.402  1.3887  0.2460  1.4609
10338SOL     OW35860   1.892   9.790   3.465  0.8490  0.9363 -0.3300
10338SOL    HW135861   1.816   9.835   3.428  0.3492  0.5789  0.2447
10338SOL    HW235862   1.898   9.823   3.555 -0.8103 -1.6240  0.8392
10339SOL     OW35863   2.168   7.143   2.466  0.4530  0.0703 -0.0554
10339SOL    HW135864   2.170   7.213   2.531  0.1735 -0.0420  0.0799
10339SOL    HW235865   2.259   7.131   2.440  0.5118  0.4167 -0.0082
10340SOL     OW35866   3.655   7.338   2.832 -0.2691 -0.1727 -0.1378
10340SOL    HW135867   3.592   7.409   2.818 -0.9714 -0.5883  0.8165
10340SOL    HW235868   3.736   7.383   2.859 -0.9758  0.2628  1.4060
10341SOL     OW35869   1.384   8.882   1.916 -0.1604 -0.2461 -0.2430
10341SOL    HW135870   1.320   8.929   1.970  2.1665  1.1182  1.5587
10341SOL    HW235871   1.367   8.912   1.827 -1.0583  1.3119  0.3997
10342SOL     OW35872   1.357   8.307   3.464  0.2825 -0.5646  0.0628
10342SOL    HW135873   1.317   8.221   3.479  0.4547 -0.6151  0.2302
10342SOL    HW235874   1.404   8.326   3.545 -2.3290  1.1178  1.3137
10343SOL     OW35875   1.903   5.230   3.436  0.2942  0.0509  0.1426
10343SOL    HW135876   1.953   5.252   3.357  1.1222  0.3990  0.7483
10343SOL    HW235877   1.965   5.242   3.508 -0.4319 -0.3160  0.8479
10344SOL     OW35878   2.182   7.874   3.024 -0.2808 -0.3225  0.0783
10344SOL    HW135879   2.276   7.855   3.019 -0.0395  0.3845  1.4563
10344SOL    HW235880   2.161   7.866   3.117 -1.3657  0.5146 -0.0796
10345SOL     OW35881   9.756   4.831   2.434  0.1579 -0.6936  0.1746
10345SOL    HW135882   9.664   4.816   2.411  0.4343 -1.8639 -0.2415
10345SOL    HW235883   9.768   4.926   2.423 -0.4448 -0.8123 -1.9116
10346SOL     OW35884   3.486   7.221   1.990 -0.5289  0.2803 -0.1054
10346SOL    HW135885   3.440   7.303   1.974  0.1252  0.4355 -1.3907
10346SOL    HW235886   3.443   7.158   1.932  0.0444  0.1267 -0.3698
10347SOL     OW35887   3.594   6.944   3.132  0.3736 -0.3583 -0.6176
10347SOL    HW135888   3.542   6.869   3.158  0.2804  0.1433  0.7513
10347SOL    HW235889   3.614   6.989   3.214  1.0468  0.7059 -1.3299
10348SOL     OW35890   3.270   0.316   3.549  0.3046 -0.2843 -0.1432
10348SOL    HW135891   3.363   0.339   3.555  0.1155  0.2870  0.7507
10348SOL    HW235892   3.224   0.399   3.555 -0.2732 -0.5480 -0.7440
10349SOL     OW35893   2.356   7.009   2.064 -0.2067  0.8018  0.3723
10349SOL    HW135894   2.372   6.916   2.078  2.7832  1.2610  0.5287
10349SOL    HW235895   2.263   7.013   2.039 -0.1558 -2.3233 -0.8317
10350SOL     OW35896   3.531   0.060   1.035  0.0659 -0.1824  0.1855
10350SOL    HW135897   3.624   0.043   1.049 -0.0832 -0.8893  0.3704
10350SOL    HW235898   3.490  -0.027   1.036 -0.5591  0.0985 -0.1673
10351SOL     OW35899   3.646   6.406   5.297 -0.0424 -0.2716 -0.1811
10351SOL    HW135900   3.680   6.454   5.372  0.1457 -0.1945 -0.3159
10351SOL    HW235901   3.569   6.361   5.331  0.6055 -1.0390  0.3218
10352SOL     OW35902   3.168   7.844   3.339  0.3868  0.3863  0.5034
10352SOL    HW135903   3.195   7.926   3.298 -0.7423  0.2722 -0.5293
10352SOL    HW235904   3.188   7.776   3.274 -0.7944  0.1236  0.3785
10353SOL     OW35905   3.039   0.183   3.400 -0.1921 -0.1744  0.3430
10353SOL    HW135906   3.036   0.093   3.431  1.0304 -0.1738  0.5027
10353SOL    HW235907   3.116   0.221   3.442  1.6607 -0.2139 -2.7203
10354SOL     OW35908   2.750   8.445   3.642 -0.0813 -0.1009 -0.0293
10354SOL    HW135909   2.766   8.363   3.595 -0.1729  0.2143 -0.6250
10354SOL    HW235910   2.700   8.418   3.720  1.7793 -0.8750  0.9566
10355SOL     OW35911   5.513   9.038   3.740  0.1015 -0.5694  0.4094
10355SOL    HW135912   5.491   9.131   3.737 -1.4855 -0.9197  0.2817
10355SOL    HW235913   5.606   9.035   3.765 -0.2012  0.9989  1.8178
10356SOL     OW35914   1.121   7.183   1.765 -0.3450  0.0362 -0.5461
10356SOL    HW135915   1.189   7.117   1.753 -1.3423 -1.3930  1.0502
10356SOL    HW235916   1.164   7.253   1.813  0.5251  0.1948 -1.5159
10357SOL     OW35917   3.756   8.815   4.536  0.8658 -0.5284 -0.0541
10357SOL    HW135918   3.767   8.782   4.447 -1.6417  2.4617 -1.6730
10357SOL    HW235919   3.669   8.784   4.563  0.0079  1.5578 -0.2197
10358SOL     OW35920   2.396   0.355   2.458  0.0684 -0.0726 -0.1171
10358SOL    HW135921   2.490   0.347   2.446  0.0695 -0.4345  0.1280
10358SOL    HW235922   2.386   0.405   2.539  0.0567 -1.5773  0.8532
10359SOL     OW35923   4.834   9.532   2.152  0.6296  0.4492 -0.1025
10359SOL    HW135924   4.782   9.543   2.072 -1.3216 -0.0588  1.0387
10359SOL    HW235925   4.845   9.620   2.186 -1.6884  0.3993  0.9340
10360SOL     OW35926   3.511   0.975   2.945  0.1668  0.1157 -0.0900
10360SOL    HW135927   3.470   1.043   2.892  0.0327 -0.3304 -0.5616
10360SOL    HW235928   3.460   0.896   2.927  0.9168 -0.3296 -0.2902
10361SOL     OW35929   2.721   2.383   2.861  0.4326  0.3183  0.4687
10361SOL    HW135930   2.704   2.460   2.916  0.7914  0.4726  0.3672
10361SOL    HW235931   2.789   2.335   2.908 -0.1870 -0.2368  0.8180
10362SOL     OW35932   2.979   7.431   8.874  0.3696  0.0166  0.3730
10362SOL    HW135933   2.982   7.401   8.783 -1.2748 -0.3073  0.3963
10362SOL    HW235934   3.070   7.455   8.894  0.6473  0.8253 -1.5856
10363SOL     OW35935   5.957   9.663   1.770 -0.2397 -0.1212  0.2715
10363SOL    HW135936   5.886   9.631   1.826 -0.3460  1.5320  1.1465
10363SOL    HW235937   6.009   9.585   1.750 -1.9416 -1.2752  0.0943
10364SOL     OW35938   3.401   8.776   2.373 -0.1603  0.2241  0.1621
10364SOL    HW135939   3.319   8.737   2.404  0.6333 -2.3316 -0.6763
10364SOL    HW235940   3.438   8.820   2.449 -1.5297 -0.0112  0.9831
10365SOL     OW35941   2.655   8.693   2.453 -0.6173 -0.0084 -0.1301
10365SOL    HW135942   2.626   8.679   2.363 -0.8409  0.4296 -0.1276
10365SOL    HW235943   2.574   8.689   2.505 -0.9774  2.8720 -0.2972
10366SOL     OW35944   2.261   7.188   3.228 -0.1090  0.5073  0.0985
10366SOL    HW135945   2.210   7.142   3.161  1.6603  0.1668 -1.0818
10366SOL    HW235946   2.312   7.120   3.271  1.7655  1.1442 -0.9803
10367SOL     OW35947   1.174   6.006   8.531 -0.2409 -0.3267  0.4102
10367SOL    HW135948   1.089   6.010   8.575 -0.4941  0.1463 -0.1191
10367SOL    HW235949   1.192   6.096   8.504  0.9200 -0.2142  1.4215
10368SOL     OW35950   3.825   8.179   1.547 -0.2021 -0.8074  0.2307
10368SOL    HW135951   3.732   8.201   1.556  0.4151  2.1801  0.1938
10368SOL    HW235952   3.834   8.154   1.455 -0.7895 -0.0428 -0.0439
10369SOL     OW35953   3.698   5.981   4.312  0.0455  0.2995 -0.3199
10369SOL    HW135954   3.730   5.923   4.243  1.2748 -0.3138  0.7144
10369SOL    HW235955   3.777   6.022   4.348 -0.7148  1.8367 -0.3321
10370SOL     OW35956   4.637   5.085   0.996 -0.0657  0.1676  0.4127
10370SOL    HW135957   4.588   5.036   1.062 -1.6940  1.5832  0.3432
10370SOL    HW235958   4.603   5.175   1.004  2.0605  1.0709 -0.1396
10371SOL     OW35959   9.393   9.405   2.466  0.4348 -0.7219  0.3626
10371SOL    HW135960   9.463   9.416   2.402 -0.5061 -1.9804 -0.9349
10371SOL    HW235961   9.379   9.310   2.470  0.3064 -0.6624  2.2819
10372SOL     OW35962   3.909   8.690   2.221  0.1561  0.4048  0.2896
10372SOL    HW135963   3.913   8.781   2.248 -0.1946 -0.1274  2.3188
10372SOL    HW235964   3.996   8.672   2.186  0.3753  1.4037  0.2968
10373SOL     OW35965   1.654   6.999   2.840  0.8513 -0.1547 -0.3883
10373SOL    HW135966   1.693   7.033   2.760 -0.1385 -0.0984 -0.8670
10373SOL    HW235967   1.688   7.054   2.910  0.3018  0.9734 -0.9936
10374SOL     OW35968   3.310   8.541   0.749 -0.2227  0.1164 -0.0522
10374SOL    HW135969   3.275   8.629   0.737  0.8019  0.2643 -2.6362
10374SOL    HW235970   3.255   8.486   0.692  1.0147 -0.3677 -0.8130
10375SOL     OW35971   4.486   9.590   2.924  0.2421  0.0336  0.2459
10375SOL    HW135972   4.405   9.642   2.925  0.7029  0.7945 -0.2781
10375SOL    HW235973   4.541   9.630   2.991  0.8833  0.7170 -0.6631
10376SOL     OW35974   1.990   5.596   0.099  0.2213  0.6033 -0.0635
10376SOL    HW135975   1.910   5.622   0.054 -0.6429 -1.0091  0.4691
10376SOL    HW235976   1.963   5.524   0.156  2.4862 -1.8158 -1.8038
10377SOL     OW35977   3.629   1.209   2.186  0.2224  0.2326  0.4358
10377SOL    HW135978   3.603   1.131   2.234  1.4375 -0.0197  0.7058
10377SOL    HW235979   3.620   1.184   2.094 -0.3393  0.1070  0.5215
10378SOL     OW35980   2.428   8.391   2.053  0.6908 -0.1465 -0.1102
10378SOL    HW135981   2.491   8.420   1.986  0.5175  0.1193 -0.1604
10378SOL    HW235982   2.434   8.459   2.121 -0.7181  0.7671 -0.8525
10379SOL     OW35983   4.305   6.791   2.877 -0.2655  0.3114 -0.1833
10379SOL    HW135984   4.345   6.847   2.944  1.3455 -0.4297 -0.4848
10379SOL    HW235985   4.212   6.786   2.902  0.5523 -1.3327  2.9924
10380SOL     OW35986   3.081   7.994   1.054 -0.3356  0.0962  0.4604
10380SOL    HW135987   3.101   8.087   1.041 -0.6826  0.0486 -0.4977
10380SOL    HW235988   3.161   7.957   1.091  0.4990  0.3830 -1.0109
10381SOL     OW35989   0.546   6.679   4.494 -0.0112 -0.0090  0.5290
10381SOL    HW135990   0.554   6.771   4.522 -0.9498  0.3847 -0.4232
10381SOL    HW235991   0.628   6.661   4.448 -0.3041  0.7584 -0.3350
10382SOL     OW35992   2.241   6.383   3.279  0.0016 -0.1794  0.1838
10382SOL    HW135993   2.224   6.337   3.361 -0.4344 -0.0428  0.1723
10382SOL    HW235994   2.268   6.315   3.218 -0.6404 -0.4218  0.1646
10383SOL     OW35995   2.021   8.090   4.863  0.3211  0.0490 -0.3813
10383SOL    HW135996   2.034   8.061   4.953  0.2782  1.2804  0.0252
10383SOL    HW235997   2.059   8.177   4.859  0.6476 -0.1278 -1.6591
10384SOL     OW35998   3.352   8.253   4.154 -0.2887  0.0019 -0.4450
10384SOL    HW135999   3.281   8.236   4.215 -0.9671 -0.0005 -1.2250
10384SOL    HW236000   3.335   8.196   4.079  0.5974 -0.0869 -0.5922
10385SOL     OW36001   2.523   0.256   4.615 -0.3094  0.1923 -0.5200
10385SOL    HW136002   2.436   0.265   4.654 -0.3860 -1.5969 -0.1660
10385SOL    HW236003   2.516   0.178   4.560  0.4088  1.4281 -2.4448
10386SOL     OW36004   1.637   9.574   4.029  0.7156  0.2482 -0.2248
10386SOL    HW136005   1.717   9.521   4.023  0.0262 -0.9638  0.9422
10386SOL    HW236006   1.627   9.610   3.941  2.1126 -0.2095 -0.6101
10387SOL     OW36007   6.148   9.217   4.384  0.3003  0.1831  0.0856
10387SOL    HW136008   6.094   9.248   4.312 -1.1390 -1.3370  0.4575
10387SOL    HW236009   6.086   9.189   4.451  1.5809  0.7349  1.5969
10388SOL     OW36010   0.003   7.673   2.565  0.1881  0.2950  0.3015
10388SOL    HW136011   0.024   7.580   2.573  3.2432  0.9403  1.4220
10388SOL    HW236012   0.013   7.692   2.472  2.5014 -0.0015  0.4285
10389SOL     OW36013   1.109   8.477   5.321 -0.4205 -0.1752 -0.4820
10389SOL    HW136014   1.166   8.407   5.354 -1.2047 -1.0620 -0.9506
10389SOL    HW236015   1.037   8.480   5.385  0.4601  1.4281  0.5082
10390SOL     OW36016   5.700   9.255   4.225  0.2433 -0.1036  0.0111
10390SOL    HW136017   5.745   9.170   4.226  2.1585  0.8511  0.7742
10390SOL    HW236018   5.764   9.315   4.186 -0.7336  1.1502  0.2833
10391SOL     OW36019   2.364   6.511   2.949 -0.4141 -0.0930 -0.4358
10391SOL    HW136020   2.443   6.558   2.919  1.2798 -2.0428  0.6957
10391SOL    HW236021   2.317   6.575   3.001  1.5464  0.5789  0.6193
10392SOL     OW36022   0.044   9.127   1.845 -0.9785 -0.5342  0.5672
10392SOL    HW136023   0.002   9.052   1.887 -1.5645  0.1418  1.2167
10392SOL    HW236024   0.013   9.125   1.755 -0.5199 -1.4097  0.4175
10393SOL     OW36025   3.882   8.880   4.082  0.0140 -0.0363 -0.2389
10393SOL    HW136026   3.964   8.901   4.037  0.4785 -0.6536  0.2942
10393SOL    HW236027   3.827   8.957   4.068  1.0204  0.7930  0.1785
10394SOL     OW36028   1.246   7.201   5.894  0.1970  0.0002  0.1376
10394SOL    HW136029   1.173   7.262   5.897 -0.7402 -1.1110  1.9965
10394SOL    HW236030   1.319   7.249   5.933 -0.8292 -0.3286  2.6837
10395SOL     OW36031   3.569   9.602   3.460  0.2741  0.4063 -0.0671
10395SOL    HW136032   3.655   9.603   3.419  0.6261  1.2717  0.6504
10395SOL    HW236033   3.518   9.667   3.412  0.3607  0.6627  0.1837
10396SOL     OW36034   1.794   0.108   3.162 -0.2790  0.4429 -0.1786
10396SOL    HW136035   1.744   0.068   3.233  0.4421  0.7006  0.4830
10396SOL    HW236036   1.729   0.158   3.113 -0.8369  0.0228  0.1226
10397SOL     OW36037   4.561   1.166   4.790  0.0573  0.0315  0.4712
10397SOL    HW136038   4.505   1.148   4.866 -0.3198  1.5190  0.5831
10397SOL    HW236039   4.596   1.254   4.807  0.1864  0.2734 -0.9408
10398SOL     OW36040   1.228   8.974   3.644 -0.0127  0.2330 -0.1204
10398SOL    HW136041   1.171   9.033   3.694  1.9479  1.2442  1.0315
10398SOL    HW236042   1.183   8.889   3.648 -0.3401  0.4124  2.8145
10399SOL     OW36043   2.006   6.537   3.787  0.1983  0.4040 -0.6451
10399SOL    HW136044   2.084   6.491   3.755  1.1054  2.7276 -2.0119
10399SOL    HW236045   2.041   6.606   3.843 -0.8728  1.4622 -1.2421
10400SOL     OW36046   1.050   8.097   6.739  0.2481  0.1626  0.3266
10400SOL    HW136047   1.028   8.188   6.757  2.1263  0.5496  0.8395
10400SOL    HW236048   1.005   8.047   6.806 -0.5973  0.7194  0.1880
10401SOL     OW36049   2.112   8.066   3.853  0.5872 -0.0983 -0.1316
10401SOL    HW136050   2.118   8.148   3.804 -1.2610 -0.1991 -0.5753
10401SOL    HW236051   2.156   8.085   3.936  1.1858  0.9723 -0.6647
10402SOL     OW36052   4.780   8.821   5.855 -0.3703 -0.2332 -0.0579
10402SOL    HW136053   4.751   8.850   5.768 -1.5450 -0.2304  0.3192
10402SOL    HW236054   4.786   8.725   5.847  1.6388 -0.1135 -0.7399
10403SOL     OW36055   3.545   0.407   2.943 -0.3599 -0.8891  0.1903
10403SOL    HW136056   3.522   0.469   2.874 -0.6316 -0.5076  0.6103
10403SOL    HW236057   3.535   0.321   2.903  0.2480 -0.6569 -0.4690
10404SOL     OW36058   4.673   9.000   4.450 -0.3229 -0.0712  0.1052
10404SOL    HW136059   4.707   9.043   4.528  0.1026 -0.6317  0.2340
10404SOL    HW236060   4.747   8.950   4.416 -0.3591  0.5782 -0.9564
10405SOL     OW36061   4.070   9.187   4.992 -0.3601 -0.6952 -0.0815
10405SOL    HW136062   4.052   9.273   4.954  0.7280  0.0185  0.9605
10405SOL    HW236063   4.071   9.202   5.087  2.9572 -1.1598  0.0631
10406SOL     OW36064   2.233   8.968   4.788  0.0785  0.3896 -0.0848
10406SOL    HW136065   2.274   9.006   4.866  1.4852  1.2184 -1.1722
10406SOL    HW236066   2.253   9.031   4.718 -0.5266 -0.6848 -1.2554
10407SOL     OW36067   2.730   8.951   6.707  0.3307 -0.3330 -0.1128
10407SOL    HW136068   2.773   8.980   6.626  2.9011  0.0961  1.3017
10407SOL    HW236069   2.796   8.898   6.751 -0.9752 -0.4904  1.7549
10408SOL     OW36070   1.495   8.180   6.676  0.0891  0.2562  0.9092
10408SOL    HW136071   1.409   8.204   6.641  0.5502  0.9067  0.1984
10408SOL    HW236072   1.550   8.167   6.598  0.0725 -2.4314  1.2279
10409SOL     OW36073   2.728   9.419   3.283  0.1209 -0.1119 -0.0650
10409SOL    HW136074   2.731   9.510   3.252 -0.0706 -0.0311  0.1510
10409SOL    HW236075   2.734   9.426   3.378  1.2442 -0.3942 -0.1080
10410SOL     OW36076   4.127   0.157   7.455 -0.4014 -0.3739 -0.0533
10410SOL    HW136077   4.151   0.162   7.547 -0.3773 -1.3644  0.0139
10410SOL    HW236078   4.099   0.245   7.432  1.9661  0.5333  0.2338
10411SOL     OW36079   2.510   8.278   3.269 -0.2908  0.0419 -0.1713
10411SOL    HW136080   2.520   8.269   3.174  1.0998  0.4009 -0.0794
10411SOL    HW236081   2.510   8.372   3.284 -0.8337 -0.0074  0.1683
10412SOL     OW36082   3.309   7.301   4.079 -0.0946  0.2733 -0.2209
10412SOL    HW136083   3.293   7.391   4.051 -0.9940  0.0972 -0.3005
10412SOL    HW236084   3.254   7.289   4.156  0.5483 -0.0006  0.2085
10413SOL     OW36085   2.999   8.104   1.965  0.0358  0.1637 -0.0632
10413SOL    HW136086   2.937   8.159   1.918 -0.2315  1.2645  1.4819
10413SOL    HW236087   2.946   8.033   2.001 -0.1130  0.4202  0.2255
10414SOL     OW36088   1.430   0.231   2.068 -0.2649  0.6218 -0.5202
10414SOL    HW136089   1.378   0.285   2.127  1.2134  1.2882  0.2385
10414SOL    HW236090   1.397   0.142   2.081 -0.1591  0.7901  1.1261
10415SOL     OW36091   2.712   8.194   5.381  0.5745  0.5472 -0.0568
10415SOL    HW136092   2.624   8.195   5.342  0.4278 -1.3368  0.1509
10415SOL    HW236093   2.771   8.186   5.306  0.4659  0.0946 -0.0968
10416SOL     OW36094   5.266   1.111   2.579 -0.1189 -0.1048  0.1968
10416SOL    HW136095   5.200   1.042   2.572  1.2250 -1.2841 -2.1415
10416SOL    HW236096   5.316   1.089   2.657 -0.7055 -0.8283  0.3833
10417SOL     OW36097   3.171   0.227   7.871  0.0799 -0.0874 -0.1931
10417SOL    HW136098   3.141   0.214   7.781  0.9797 -1.7717 -0.2839
10417SOL    HW236099   3.229   0.153   7.888  0.1901  0.3815  1.6727
10418SOL     OW36100   3.833   8.193   4.703 -0.1796 -0.5966  0.7519
10418SOL    HW136101   3.790   8.243   4.772  0.5110  2.8715 -1.0940
10418SOL    HW236102   3.779   8.208   4.625  0.8916 -1.5127 -0.2092
10419SOL     OW36103   3.103   6.942   1.661  0.0085 -0.0713  0.5235
10419SOL    HW136104   3.148   7.023   1.686 -0.5830  0.5837 -0.4462
10419SOL    HW236105   3.145   6.915   1.579 -0.1058 -0.4883  0.6000
10420SOL     OW36106   3.358   8.269   4.550  0.1267  0.4318  0.1251
10420SOL    HW136107   3.297   8.333   4.513 -0.3097 -0.0282  0.0386
10420SOL    HW236108   3.302   8.207   4.598  0.7355  1.5911  2.4958
10421SOL     OW36109   3.731   7.250   5.079  0.0593  0.0681 -0.3592
10421SOL    HW136110   3.793   7.309   5.123 -0.5692 -0.4963  1.3353
10421SOL    HW236111   3.786   7.178   5.047  0.8785  1.5632 -2.6621
10422SOL     OW36112   0.966   9.026   1.675 -0.8516  0.1925 -0.1158
10422SOL    HW136113   0.886   9.050   1.629 -1.1933 -0.4021  0.1618
10422SOL    HW236114   1.000   8.951   1.626 -0.5017  0.3969 -0.1905
10423SOL     OW36115   9.647   8.232   2.518  0.1114 -0.1714 -0.2865
10423SOL    HW136116   9.727   8.182   2.534  0.4846  0.7591  0.9135
10423SOL    HW236117   9.603   8.234   2.602  0.3371  1.8859 -0.1805
10424SOL     OW36118   1.960   5.641   3.630 -0.2469  0.2451 -1.0191
10424SOL    HW136119   2.017   5.586   3.684 -2.1708 -1.8743 -1.0112
10424SOL    HW236120   1.968   5.605   3.542 -0.3822  0.9557 -1.3280
10425SOL     OW36121   3.330   0.372   6.474  0.6235  0.3855 -0.0762
10425SOL    HW136122   3.289   0.416   6.399  0.9514 -1.5087 -1.4689
10425SOL    HW236123   3.403   0.323   6.435 -0.1626 -1.9476  1.1874
10426SOL     OW36124   3.140   6.359   3.423  0.2268 -0.2149  0.3316
10426SOL    HW136125   3.079   6.340   3.351  0.4380 -1.0703  0.3732
10426SOL    HW236126   3.094   6.330   3.502  1.0093 -1.6770  0.2807
10427SOL     OW36127   4.191   7.997   4.854 -0.4742 -0.5816 -0.6744
10427SOL    HW136128   4.133   7.977   4.781 -3.7287 -2.0695  2.0436
10427SOL    HW236129   4.146   8.068   4.901 -0.4203 -2.0495  1.7563
10428SOL     OW36130   2.769   9.051   5.505 -0.1534  0.2829 -0.0817
10428SOL    HW136131   2.745   9.127   5.451  0.6089  1.2077  0.8433
10428SOL    HW236132   2.690   8.996   5.506 -0.7195  1.0562 -0.7636
10429SOL     OW36133   1.839   7.875   4.640  0.1844  0.2031  0.5045
10429SOL    HW136134   1.792   7.918   4.569  1.0253 -0.3938 -0.4399
10429SOL    HW236135   1.931   7.894   4.622  0.5532 -1.6808  0.2540
10430SOL     OW36136   5.876   9.707   3.811 -0.1269  0.2867  0.0772
10430SOL    HW136137   5.876   9.713   3.716  0.6239 -1.2077 -0.0361
10430SOL    HW236138   5.809   9.770   3.839 -0.5731  0.5124 -1.4378
10431SOL     OW36139   1.373   7.230   7.566  0.1080  0.3500 -0.0390
10431SOL    HW136140   1.375   7.201   7.475  2.3991  0.9020 -0.2091
10431SOL    HW236141   1.410   7.156   7.616  1.7739  1.1945  0.0396
10432SOL     OW36142   4.205   8.845   5.218  0.1242  0.4607 -0.2177
10432SOL    HW136143   4.129   8.793   5.193  1.3279 -1.4172 -0.2055
10432SOL    HW236144   4.237   8.802   5.298  1.0906  1.3212 -0.1258
10433SOL     OW36145   5.897   0.309   4.139 -0.3178  0.4001 -0.6134
10433SOL    HW136146   5.812   0.264   4.133 -0.3982  0.4818 -0.1217
10433SOL    HW236147   5.922   0.323   4.048  0.1340 -1.4499 -0.8230
10434SOL     OW36148   4.832   6.922   5.927  0.2924 -0.6984  0.3553
10434SOL    HW136149   4.796   7.011   5.923 -0.1849 -0.6921  3.0134
10434SOL    HW236150   4.785   6.874   5.859 -1.3072  0.4730  0.5712
10435SOL     OW36151   2.574   0.981   2.429 -0.4423 -0.2763 -0.0648
10435SOL    HW136152   2.613   0.944   2.351 -0.3114  0.1297 -0.1948
10435SOL    HW236153   2.504   1.039   2.396  0.0040  0.3600  0.0830
10436SOL     OW36154   2.668   7.376   3.217  0.0788 -0.2572  0.6105
10436SOL    HW136155   2.595   7.341   3.166 -0.4328 -0.9719  1.7994
10436SOL    HW236156   2.690   7.305   3.278  0.1299  0.8796  1.9397
10437SOL     OW36157   2.205   8.289   2.265 -0.3665 -0.8254  0.2723
10437SOL    HW136158   2.223   8.267   2.174 -0.6836 -0.5993  0.1528
10437SOL    HW236159   2.242   8.216   2.316 -0.2724 -0.9947 -0.0403
10438SOL     OW36160   1.061   8.441   2.336  0.2427 -0.0125 -0.1741
10438SOL    HW136161   1.084   8.348   2.325  1.5671  0.0817  1.4231
10438SOL    HW236162   0.977   8.439   2.382  0.3896 -0.4459  0.0911
10439SOL     OW36163   3.124   6.988   2.300  0.1216  0.3081  0.1846
10439SOL    HW136164   3.190   6.953   2.240  0.0613  0.4685  0.0223
10439SOL    HW236165   3.132   7.083   2.290 -1.7869  0.3362 -1.6766
10440SOL     OW36166   2.777   9.342   6.127 -0.7337  0.8756  0.0929
10440SOL    HW136167   2.856   9.323   6.177 -1.9525 -0.4585  1.6371
10440SOL    HW236168   2.806   9.401   6.058  1.8582 -0.5953 -0.2131
10441SOL     OW36169   2.988   8.370   4.820 -0.0812  0.1178  0.1275
10441SOL    HW136170   2.897   8.362   4.847  0.3166  1.2508  2.0093
10441SOL    HW236171   3.038   8.338   4.895  1.1020 -0.3950 -0.8319
10442SOL     OW36172   4.936   8.882   1.752 -0.1909  0.6789  0.1298
10442SOL    HW136173   4.909   8.899   1.842 -0.1825  0.7410  0.1210
10442SOL    HW236174   4.859   8.906   1.699 -0.7746 -0.8850  0.2292
10443SOL     OW36175   5.653   7.886   6.558  0.0490 -0.2356  0.3416
10443SOL    HW136176   5.570   7.842   6.575 -0.5464  0.6630 -0.1480
10443SOL    HW236177   5.629   7.978   6.546  1.2780  0.2920  1.6306
10444SOL     OW36178   1.825   6.704   4.835 -0.2573  0.0006 -0.2723
10444SOL    HW136179   1.809   6.759   4.912  1.2715 -0.6673  0.5592
10444SOL    HW236180   1.831   6.615   4.870  1.4872 -0.2007 -0.9888
10445SOL     OW36181   2.560   8.976   5.936 -0.6689 -0.5033  0.3123
10445SOL    HW136182   2.543   8.902   5.878  3.2540 -0.3698 -1.3093
10445SOL    HW236183   2.577   8.936   6.021  0.9523 -1.4749 -0.4332
10446SOL     OW36184   3.469   0.406   4.913  0.3373  0.3017 -0.3163
10446SOL    HW136185   3.400   0.434   4.853  0.7865  0.0785 -0.9488
10446SOL    HW236186   3.551   0.435   4.872  0.6569  0.1677  0.1993
10447SOL     OW36187   2.759   8.862   5.113 -0.7746 -0.0449  0.1077
10447SOL    HW136188   2.754   8.945   5.066 -0.2374 -0.9251 -1.5699
10447SOL    HW236189   2.793   8.800   5.049  0.7993 -1.1347  1.9126
10448SOL     OW36190   3.727   0.304   4.360  0.1405 -0.2939  0.3081
10448SOL    HW136191   3.786   0.308   4.284 -0.1833 -2.5744 -0.1311
10448SOL    HW236192   3.682   0.220   4.351  0.4405 -0.8784  3.2770
10449SOL     OW36193   2.667   9.385   2.147  0.0127 -0.1748 -0.0448
10449SOL    HW136194   2.601   9.388   2.078  1.1065  0.1091 -1.1071
10449SOL    HW236195   2.619   9.355   2.224 -1.3902  0.1823 -0.7388
10450SOL     OW36196   3.576   6.381   3.551  0.1822 -0.0610 -0.9373
10450SOL    HW136197   3.629   6.460   3.541  0.5925 -0.3199 -0.8216
10450SOL    HW236198   3.546   6.384   3.642 -2.4009  1.5742 -1.7323
10451SOL     OW36199   2.970   7.497   4.996  0.0419  0.0831 -0.1357
10451SOL    HW136200   3.016   7.519   5.076 -0.6760 -0.0480  0.3287
10451SOL    HW236201   3.018   7.541   4.926 -1.0541  2.7578  0.6737
10452SOL     OW36202   3.325   7.458   3.486 -0.2555 -0.5392 -0.0357
10452SOL    HW136203   3.306   7.439   3.578  0.5299 -0.0695  0.2294
10452SOL    HW236204   3.417   7.432   3.475  0.0197  0.5532 -0.3707
10453SOL     OW36205   1.031   5.098   3.755 -0.0940 -0.1345  0.0172
10453SOL    HW136206   0.998   5.067   3.671  0.1385  0.5660 -0.3405
10453SOL    HW236207   1.029   5.021   3.812 -1.3392 -0.3402 -0.2949
10454SOL     OW36208   4.684   7.301   4.741 -0.0187  0.0876 -0.1742
10454SOL    HW136209   4.756   7.319   4.802  1.4948  2.4585 -2.4770
10454SOL    HW236210   4.727   7.284   4.657 -2.1201  1.7451 -1.6801
10455SOL     OW36211   4.644   6.740   6.239  0.4460  0.0515 -0.0765
10455SOL    HW136212   4.557   6.761   6.273  0.3579 -1.0271  0.3855
10455SOL    HW236213   4.672   6.820   6.195 -1.4240 -0.0920 -1.6335
10456SOL     OW36214   2.422   8.960   5.274 -0.5047 -0.1084 -0.1122
10456SOL    HW136215   2.397   8.974   5.183  1.2467 -0.1183 -0.6361
10456SOL    HW236216   2.407   9.044   5.317 -0.9916 -0.0004 -0.4966
10457SOL     OW36217   4.775   7.984   4.948  0.1418  0.2893  0.2088
10457SOL    HW136218   4.749   8.046   5.015 -1.7024 -0.1544 -0.0587
10457SOL    HW236219   4.702   7.981   4.886  0.8071 -1.0293 -0.5846
10458SOL     OW36220   2.516   8.514   3.520 -0.3002 -0.3305  0.1931
10458SOL    HW136221   2.536   8.570   3.445 -0.6602 -0.2345  0.1661
10458SOL    HW236222   2.600   8.502   3.564 -0.3764  1.1423  0.8257
10459SOL     OW36223   0.482   7.710   4.370 -0.0422 -0.2609 -0.6295
10459SOL    HW136224   0.465   7.684   4.280  0.9542  0.8669 -1.1665
10459SOL    HW236225   0.539   7.786   4.363  1.1148 -0.9167  0.9666
10460SOL     OW36226   1.794   6.444   4.215 -0.0769  0.9468 -0.3646
10460SOL    HW136227   1.883   6.411   4.208  0.0569  0.8907  1.2916
10460SOL    HW236228   1.745   6.397   4.147  0.5061 -1.2895  0.6996
10461SOL     OW36229   4.596   6.812   3.423  0.1477  0.6438 -0.5260
10461SOL    HW136230   4.560   6.870   3.356  1.4970 -0.7451 -2.5924
10461SOL    HW236231   4.689   6.803   3.400  0.4448 -0.6920  0.9424
10462SOL     OW36232   3.278   9.591   4.806  0.3345 -0.2768 -0.3904
10462SOL    HW136233   3.306   9.519   4.749 -0.9663 -0.4175 -0.8956
10462SOL    HW236234   3.305   9.670   4.759 -0.2732 -0.4038 -0.9788
10463SOL     OW36235   3.709   9.120   3.523  0.2555  1.0048 -0.0517
10463SOL    HW136236   3.655   9.192   3.554  0.6811  1.2431  0.1485
10463SOL    HW236237   3.777   9.111   3.590 -0.6284 -0.5365  0.6917
10464SOL     OW36238   4.679   7.788   3.188  0.0975 -0.2426  0.3219
10464SOL    HW136239   4.650   7.714   3.135  0.1017 -0.4000  0.5387
10464SOL    HW236240   4.608   7.852   3.181  0.7698  0.3934 -1.1522
10465SOL     OW36241   2.787   9.117   0.673 -0.3176  0.1442  0.4001
10465SOL    HW136242   2.721   9.069   0.624 -2.0116  1.2176  1.4832
10465SOL    HW236243   2.783   9.080   0.761  0.9860 -0.1774  0.3399
10466SOL     OW36244   0.642   9.850   4.172  0.0453  0.6861  0.6548
10466SOL    HW136245   0.623   9.864   4.265  1.1519  0.2637  0.9487
10466SOL    HW236246   0.555   9.841   4.132 -0.4463 -2.0678  2.0879
10467SOL     OW36247   0.828   9.004   2.560 -0.0097  0.1541  0.1460
10467SOL    HW136248   0.767   8.945   2.604  0.2479 -0.5770 -0.4723
10467SOL    HW236249   0.774   9.053   2.498  0.1739 -1.2372 -1.1632
10468SOL     OW36250   4.587   8.993   6.505  0.1479 -0.0197 -0.6400
10468SOL    HW136251   4.548   9.032   6.427 -2.0593 -1.1604 -0.1675
10468SOL    HW236252   4.626   9.068   6.551 -0.3979  0.9867 -1.7420
10469SOL     OW36253   2.377   7.337   5.455  0.1968 -0.0082  0.5793
10469SOL    HW136254   2.420   7.420   5.434 -1.2362  1.7273  3.7002
10469SOL    HW236255   2.448   7.276   5.472  1.2843  0.4074 -2.1519
10470SOL     OW36256   2.649   7.989   6.073  0.0620 -0.3176  0.5516
10470SOL    HW136257   2.671   8.080   6.052  1.6179 -0.8976 -0.5273
10470SOL    HW236258   2.724   7.938   6.042 -0.4632 -1.9199  1.7572
10471SOL     OW36259   3.316   9.177   5.358  0.3736 -0.2669  0.4729
10471SOL    HW136260   3.333   9.185   5.452 -0.4754 -0.9940  0.7125
10471SOL    HW236261   3.224   9.151   5.353 -0.7424  3.3754 -0.7226
10472SOL     OW36262   3.557   7.294   3.641  0.0759  0.0151 -0.5860
10472SOL    HW136263   3.505   7.213   3.645 -0.0171 -0.1737 -3.3744
10472SOL    HW236264   3.554   7.319   3.548  1.3173  2.4374 -0.0415
10473SOL     OW36265   1.359   6.796   5.070 -0.7543  0.4387 -0.0753
10473SOL    HW136266   1.422   6.725   5.060 -0.7813  0.4871 -0.6116
10473SOL    HW236267   1.310   6.774   5.149  0.8325  1.0988  1.1463
10474SOL     OW36268   2.507   8.635   6.702 -0.1686  0.3930  0.3637
10474SOL    HW136269   2.530   8.549   6.667 -2.5620 -0.4151  0.6011
10474SOL    HW236270   2.564   8.646   6.778  1.7783  0.0922 -0.9724
10475SOL     OW36271   3.259   7.564   2.640  0.0344 -0.3878  0.5597
10475SOL    HW136272   3.164   7.573   2.648 -0.6105 -1.6612 -3.3731
10475SOL    HW236273   3.286   7.639   2.587  1.3403  0.0753  1.8086
10476SOL     OW36274   3.540   0.472   3.826  0.4753 -0.0556 -0.0191
10476SOL    HW136275   3.477   0.475   3.898 -0.4588 -2.3655 -0.6735
10476SOL    HW236276   3.597   0.548   3.841 -1.5015  1.2240  1.4530
10477SOL     OW36277   3.213   9.072   4.621  0.2134 -0.3215  0.3041
10477SOL    HW136278   3.136   9.018   4.606  2.0628 -2.8911 -0.6083
10477SOL    HW236279   3.230   9.066   4.715  1.4000 -3.0000  0.0179
10478SOL     OW36280   3.487   8.045   4.790  0.5308  0.3307  0.4009
10478SOL    HW136281   3.477   7.953   4.766  0.5839  0.5234 -0.3940
10478SOL    HW236282   3.531   8.085   4.715 -2.5703  1.7191 -0.8581
10479SOL     OW36283   3.168   9.111   3.926 -0.4172  0.7507  0.0659
10479SOL    HW136284   3.250   9.147   3.959 -1.0160  2.8191 -0.5483
10479SOL    HW236285   3.183   9.098   3.832 -0.6205  0.6537  0.0447
10480SOL     OW36286   4.902   9.186   4.887 -0.1537  0.0336  0.2013
10480SOL    HW136287   4.925   9.122   4.954 -0.4199  0.0563  0.3167
10480SOL    HW236288   4.948   9.157   4.809 -1.2764 -1.0163 -0.0919
10481SOL     OW36289   4.388   9.339   4.477  0.1004 -0.3601 -0.2496
10481SOL    HW136290   4.344   9.336   4.562 -1.6828  0.8769 -1.0819
10481SOL    HW236291   4.453   9.408   4.486 -0.3325  0.0217  0.0200
10482SOL     OW36292   3.978   5.716   3.870 -0.2702 -0.2891  0.0345
10482SOL    HW136293   4.039   5.732   3.942 -0.3990 -0.0092  0.0834
10482SOL    HW236294   4.030   5.728   3.791  0.2112 -1.8939  0.0677
10483SOL     OW36295   4.341   8.099   7.399  0.1784  0.1055 -0.1788
10483SOL    HW136296   4.338   8.139   7.486 -3.9237  0.9843 -0.5482
10483SOL    HW236297   4.291   8.018   7.408  2.1649 -1.3355 -1.1689
10484SOL     OW36298   2.721   9.253   4.206 -0.1361 -0.4621 -0.0699
10484SOL    HW136299   2.690   9.333   4.162  0.7242 -1.0595 -1.8924
10484SOL    HW236300   2.680   9.256   4.292 -1.7190  0.9512 -0.7861
10485SOL     OW36301   0.735   6.200   6.292 -0.1124 -0.2872 -0.0245
10485SOL    HW136302   0.667   6.242   6.239 -0.4429 -0.8870 -0.0856
10485SOL    HW236303   0.767   6.129   6.237  0.4459 -0.1161  0.0757
10486SOL     OW36304   2.423   4.379   6.097  0.7021 -0.1154 -0.5890
10486SOL    HW136305   2.449   4.319   6.026  0.9566 -0.2310 -0.4023
10486SOL    HW236306   2.490   4.366   6.164 -0.4148 -1.1966  0.3603
10487SOL     OW36307   2.468   8.091   4.022  0.4293 -0.3784  0.4881
10487SOL    HW136308   2.444   8.184   4.016  0.3809 -0.4868 -2.2574
10487SOL    HW236309   2.550   8.085   3.974 -0.5360 -2.0073 -1.0982
10488SOL     OW36310   2.999   7.547   3.652  0.1239  0.3696  0.2511
10488SOL    HW136311   3.084   7.592   3.655 -0.5818  1.6848  2.3396
10488SOL    HW236312   2.944   7.604   3.598 -0.3883  1.3760  1.7896
10489SOL     OW36313   1.462   5.757   4.802 -0.2085 -0.1477 -0.1952
10489SOL    HW136314   1.393   5.819   4.780  0.0015  0.0555 -0.2812
10489SOL    HW236315   1.535   5.811   4.831  0.0255 -0.3431 -0.4114
10490SOL     OW36316   1.485   8.701   2.356 -0.1722  0.9103 -0.3027
10490SOL    HW136317   1.408   8.652   2.327  0.1090 -0.0192  0.4687
10490SOL    HW236318   1.476   8.705   2.452  0.0199  2.0287 -0.3130
10491SOL     OW36319   3.129   8.090   6.212  1.0446 -0.2382  0.0311
10491SOL    HW136320   3.053   8.148   6.201  1.3155  0.2323  0.5805
10491SOL    HW236321   3.198   8.131   6.159  0.7358 -1.0304 -1.0170
10492SOL     OW36322   0.494   8.707   4.590  0.4144 -0.1771 -0.0545
10492SOL    HW136323   0.448   8.774   4.642  0.9771 -0.2557  0.5473
10492SOL    HW236324   0.494   8.629   4.645  3.6344  0.5466  1.1694
10493SOL     OW36325   2.276   0.227   6.918  0.2061  0.1354 -0.7249
10493SOL    HW136326   2.227   0.192   6.993 -2.8994  1.1108 -2.1302
10493SOL    HW236327   2.306   0.149   6.871 -0.7014 -0.5363 -0.2363
10494SOL     OW36328   2.559   6.514   5.199  0.6894 -0.4363  0.1481
10494SOL    HW136329   2.544   6.566   5.278  1.5131 -0.3846  0.2806
10494SOL    HW236330   2.608   6.437   5.229  2.1064  0.1837 -0.4665
10495SOL     OW36331   1.299   7.412   5.078 -0.2353 -0.4109 -0.7715
10495SOL    HW136332   1.266   7.330   5.042 -1.2686  0.1812 -1.1991
10495SOL    HW236333   1.237   7.436   5.146  1.6904 -1.5155  1.5243
10496SOL     OW36334   0.193   7.083   6.278  0.1708  0.2811 -0.0934
10496SOL    HW136335   0.152   7.134   6.208 -1.5097 -0.0514  0.5906
10496SOL    HW236336   0.171   6.992   6.257  2.4938 -0.1745 -0.8865
10497SOL     OW36337   3.728   7.771   7.652 -0.3392  0.0674  0.2099
10497SOL    HW136338   3.821   7.753   7.666 -0.0602  1.2810  0.0336
10497SOL    HW236339   3.683   7.724   7.722  0.2762 -1.6314 -0.4606
10498SOL     OW36340   4.103   8.682   5.655 -0.0662 -0.0534  0.2503
10498SOL    HW136341   4.061   8.755   5.609  0.3921  0.5021  0.6861
10498SOL    HW236342   4.195   8.709   5.663  0.1629 -0.8008  0.1906
10499SOL     OW36343   3.954   7.203   2.077 -0.0138  0.1685  0.4303
10499SOL    HW136344   4.014   7.267   2.115 -1.6002  1.6469  0.5727
10499SOL    HW236345   3.962   7.126   2.134 -0.1040  1.2534  1.9620
10500SOL     OW36346   1.482   8.056   1.878  0.6200  0.3437  0.1759
10500SOL    HW136347   1.418   8.099   1.935  0.7033  1.8222 -0.7985
10500SOL    HW236348   1.439   8.054   1.792  1.5202  0.5253 -0.2849
10501SOL     OW36349   3.071   6.300   4.831  0.4250 -0.0348 -0.0451
10501SOL    HW136350   2.994   6.338   4.874  0.3117 -1.7595  1.3738
10501SOL    HW236351   3.145   6.348   4.867  0.2612 -0.9011  1.5057
10502SOL     OW36352   4.137   6.022   4.103 -0.5579  0.8303  0.1249
10502SOL    HW136353   4.155   6.077   4.026  0.1382  1.9329  1.0433
10502SOL    HW236354   4.221   6.018   4.149 -0.9612  0.1647  0.8154
10503SOL     OW36355   1.657   8.561   3.938 -0.4380  0.5700  0.1509
10503SOL    HW136356   1.614   8.491   3.889 -1.2250  1.1677 -0.0418
10503SOL    HW236357   1.609   8.640   3.913 -0.1458  1.0473  1.0583
10504SOL     OW36358   2.657   7.462   5.707  0.1395  0.0021  0.2809
10504SOL    HW136359   2.625   7.507   5.785 -0.1186 -0.4438  0.4361
10504SOL    HW236360   2.621   7.373   5.714 -0.4776  0.1608 -0.7050
10505SOL     OW36361   0.921   8.528   6.279 -0.6087  0.2204  0.0255
10505SOL    HW136362   0.909   8.516   6.374  0.3419  1.8216  0.3834
10505SOL    HW236363   0.832   8.528   6.243 -0.9804 -0.4311  0.8934
10506SOL     OW36364   4.940   9.144   3.057 -0.0111 -0.0499  0.0194
10506SOL    HW136365   4.914   9.082   3.125 -0.1289  0.1829  0.1869
10506SOL    HW236366   5.036   9.138   3.056 -0.0514 -0.7766 -0.4788
10507SOL     OW36367   1.951   8.163   4.590 -0.1649 -0.4330 -0.4376
10507SOL    HW136368   2.036   8.151   4.548  0.4807 -0.4110  0.8348
10507SOL    HW236369   1.961   8.128   4.678 -0.8112  1.4922  0.4801
10508SOL     OW36370   0.833   8.836   5.216  0.0713  0.1090  0.3611
10508SOL    HW136371   0.842   8.831   5.311  2.4658  1.9012  0.3231
10508SOL    HW236372   0.907   8.786   5.182 -0.9715 -0.8241 -0.6031
10509SOL     OW36373   2.795   8.145   2.967 -0.6486 -0.0107  0.1949
10509SOL    HW136374   2.842   8.137   3.051 -2.1331 -1.2339  0.9471
10509SOL    HW236375   2.765   8.236   2.966  0.0261  0.2325  0.6172
10510SOL     OW36376   3.908   7.772   5.030 -0.4632 -0.0723 -0.5949
10510SOL    HW136377   3.925   7.702   4.967 -1.0718  1.2753 -2.3156
10510SOL    HW236378   3.989   7.778   5.081 -0.7624 -2.7075  0.3599
10511SOL     OW36379   4.583   7.962   7.400 -0.4370  0.2831  0.1853
10511SOL    HW136380   4.559   7.886   7.346  0.2399 -0.1085  0.4107
10511SOL    HW236381   4.511   8.024   7.389 -0.5878 -0.0348 -0.7043
10512SOL     OW36382   5.267   9.008   4.320 -0.4741  0.1469  0.6118
10512SOL    HW136383   5.338   9.072   4.326 -0.5267  0.3807 -0.8931
10512SOL    HW236384   5.253   8.996   4.226 -0.4915 -2.0379  0.8233
10513SOL     OW36385   2.315   8.949   4.441 -0.6841 -0.6103  0.0354
10513SOL    HW136386   2.240   9.003   4.416 -0.3140 -0.2960 -0.3962
10513SOL    HW236387   2.355   8.923   4.358  1.8281  2.1670  0.2344
10514SOL     OW36388   1.215   0.454   5.966  0.0492  0.0340  0.2353
10514SOL    HW136389   1.137   0.486   5.922  2.1372  2.3148 -2.1819
10514SOL    HW236390   1.231   0.518   6.036  0.6609  0.6049 -0.4094
10515SOL     OW36391   3.646   0.351   5.412  0.0073  0.7853 -0.5829
10515SOL    HW136392   3.720   0.411   5.421  0.3925  0.1013  0.9973
10515SOL    HW236393   3.581   0.384   5.474  0.2491 -0.4496  0.3458
10516SOL     OW36394   4.949   6.899   6.179  0.2044 -0.4189  0.0691
10516SOL    HW136395   5.004   6.823   6.157 -0.7425 -1.5002  1.2545
10516SOL    HW236396   4.874   6.891   6.119  0.9091  0.5721 -0.9690
10517SOL     OW36397   1.633   6.618   4.400  0.0152 -0.2131 -0.4076
10517SOL    HW136398   1.696   6.590   4.334  0.6854 -0.8787  0.5004
10517SOL    HW236399   1.600   6.702   4.367 -0.1163 -0.8086 -1.8870
10518SOL     OW36400   2.253   8.828   4.078 -0.3168 -0.4794  1.2249
10518SOL    HW136401   2.170   8.813   4.122 -1.2942 -0.9612 -0.6715
10518SOL    HW236402   2.271   8.921   4.091 -2.1364  0.0767  0.1125
10519SOL     OW36403   5.339   8.241   3.027 -0.2124  0.1828 -0.6983
10519SOL    HW136404   5.407   8.208   2.969 -0.9370 -0.8185 -0.9949
10519SOL    HW236405   5.281   8.167   3.042 -0.0450  0.4028  1.3330
10520SOL     OW36406   1.221   1.455   2.421  0.2548 -0.0172 -0.2014
10520SOL    HW136407   1.200   1.516   2.350 -0.4899  0.7271  0.6334
10520SOL    HW236408   1.313   1.434   2.408  0.2389  0.4279 -1.1485
10521SOL     OW36409   2.414   1.141   5.139  0.1529 -0.0922 -0.5910
10521SOL    HW136410   2.504   1.112   5.127 -0.2871 -1.8148  0.0583
10521SOL    HW236411   2.422   1.226   5.182  1.4590 -0.3215 -0.3438
10522SOL     OW36412   2.239   8.636   4.940  0.2930 -0.2964 -0.0259
10522SOL    HW136413   2.236   8.635   4.844  1.0340 -0.3815 -0.0540
10522SOL    HW236414   2.170   8.697   4.965  0.2793 -0.0540 -0.6273
10523SOL     OW36415   3.292   7.648   5.574  0.3227  0.1202 -0.7046
10523SOL    HW136416   3.223   7.582   5.583  0.1529 -0.1073 -3.0053
10523SOL    HW236417   3.250   7.730   5.601  0.2695 -0.5075  1.3153
10524SOL     OW36418   3.143   0.089   4.094 -0.0301  0.1074  0.2917
10524SOL    HW136419   3.232   0.074   4.128  0.4096  2.5226  0.4197
10524SOL    HW236420   3.088   0.087   4.172  0.2574  0.7995  0.5202
10525SOL     OW36421   1.721   3.398   3.096 -0.3470  0.5592  0.5034
10525SOL    HW136422   1.737   3.304   3.104 -2.6161  0.0684 -0.0588
10525SOL    HW236423   1.772   3.424   3.020  1.7842  0.2184  1.7355
10526SOL     OW36424   9.289   7.791   5.670 -0.0713 -0.0798  0.2585
10526SOL    HW136425   9.361   7.854   5.681  0.3166 -0.5186  0.2361
10526SOL    HW236426   9.331   7.712   5.635 -0.6986 -0.0277 -0.6673
10527SOL     OW36427   3.165   8.975   5.100 -0.7064 -1.0098 -0.3522
10527SOL    HW136428   3.113   9.019   5.168  1.7892 -0.6529  1.4719
10527SOL    HW236429   3.157   8.882   5.122  1.1286 -0.8266  1.3451
10528SOL     OW36430   5.014   6.649   5.995 -0.0729 -0.7524  0.0263
10528SOL    HW136431   4.946   6.702   5.954 -0.9494  0.0815  2.3846
10528SOL    HW236432   4.966   6.583   6.046  0.9446 -1.6042 -0.0713
10529SOL     OW36433   5.216   8.173   4.135 -0.4466 -0.3142 -0.9879
10529SOL    HW136434   5.298   8.215   4.108 -0.8248  1.5354  0.5032
10529SOL    HW236435   5.148   8.234   4.109 -0.9598  0.5890  2.0552
10530SOL     OW36436   2.838   7.500   6.039 -0.1250 -0.2340 -0.2951
10530SOL    HW136437   2.810   7.434   6.104  1.0427 -0.3149  0.1465
10530SOL    HW236438   2.919   7.465   6.004 -0.6122 -0.0579 -1.6422
10531SOL     OW36439   2.503   8.968   7.186  0.2657 -0.3287 -0.3391
10531SOL    HW136440   2.534   8.966   7.277 -0.7296  0.0057  0.0141
10531SOL    HW236441   2.461   8.883   7.173 -0.0349 -0.1802 -0.3328
10532SOL     OW36442   5.619   8.217   1.634 -0.6186  0.4692  0.4758
10532SOL    HW136443   5.612   8.247   1.544 -1.7716  1.5897  0.8982
10532SOL    HW236444   5.548   8.263   1.680  0.0458  0.0539  1.9842
10533SOL     OW36445   3.062   1.284   5.168  0.5607  0.0374  0.2736
10533SOL    HW136446   3.122   1.225   5.122  1.2423  1.8878 -1.3737
10533SOL    HW236447   3.119   1.350   5.208 -0.1689 -0.4751  2.2622
10534SOL     OW36448   5.345   4.981   2.046  0.0246  0.0837  0.3361
10534SOL    HW136449   5.428   4.938   2.028  0.7843 -0.2305  3.9267
10534SOL    HW236450   5.352   5.066   2.002  1.8239 -0.3259 -0.2301
10535SOL     OW36451   2.250   5.563   3.033 -0.4869  0.5649 -0.1225
10535SOL    HW136452   2.202   5.622   3.091 -1.2132 -0.5175  0.4252
10535SOL    HW236453   2.209   5.477   3.047  0.4981 -0.0638 -0.9246
10536SOL     OW36454   1.307   9.404   5.583  0.3196 -0.2180 -0.5965
10536SOL    HW136455   1.237   9.435   5.640 -0.6071 -1.5519 -0.9376
10536SOL    HW236456   1.276   9.424   5.494  0.7597 -0.0638 -0.7162
10537SOL     OW36457   1.499   8.394   3.686  0.5004 -0.0191 -0.1112
10537SOL    HW136458   1.417   8.380   3.732  1.2688  0.0310  1.3194
10537SOL    HW236459   1.493   8.484   3.653  0.4657  0.4015  1.0190
10538SOL     OW36460   2.720   8.833   4.430  0.5806 -0.2505  0.3029
10538SOL    HW136461   2.633   8.811   4.398  0.7635 -0.6086  0.0373
10538SOL    HW236462   2.710   8.919   4.470 -0.0835 -0.6764  1.0711
10539SOL     OW36463   1.617   8.218   4.674  0.2153 -0.1162 -0.0553
10539SOL    HW136464   1.645   8.148   4.733 -2.1679 -0.8835  0.2767
10539SOL    HW236465   1.600   8.293   4.732 -0.7865 -0.4413  0.0916
10540SOL     OW36466   4.329   7.105   4.456 -0.0349 -0.2503  0.8052
10540SOL    HW136467   4.342   7.193   4.493 -1.2867  0.1521  0.3385
10540SOL    HW236468   4.417   7.073   4.439  0.4397  1.0704  0.6378
10541SOL     OW36469   4.284   0.178   6.703  0.1943 -0.2010  0.2552
10541SOL    HW136470   4.189   0.166   6.705  0.1945 -0.1725  0.4519
10541SOL    HW236471   4.316   0.106   6.648  0.0178  0.0688 -0.2126
10542SOL     OW36472   3.063   8.260   2.900  0.0610  0.1447 -0.5684
10542SOL    HW136473   3.028   8.348   2.906 -0.4214 -0.1475  1.3268
10542SOL    HW236474   3.053   8.223   2.988  0.2565 -1.7972 -1.3076
10543SOL     OW36475   0.835   8.673   5.727  0.0770 -0.6037  0.0864
10543SOL    HW136476   0.894   8.728   5.778 -0.4850  0.9076 -0.8340
10543SOL    HW236477   0.758   8.661   5.783  1.1619 -2.5710  1.2860
10544SOL     OW36478   1.667   6.802   6.600 -0.5467 -0.0722 -0.2051
10544SOL    HW136479   1.689   6.804   6.507 -0.9167 -0.9091 -0.3198
10544SOL    HW236480   1.638   6.712   6.616 -1.8577  0.4228  0.3924
10545SOL     OW36481   5.032   7.552   5.024  0.5603  0.1704 -0.1474
10545SOL    HW136482   5.079   7.634   5.014  0.1680  0.3475 -0.5310
10545SOL    HW236483   4.940   7.578   5.036  0.6608 -0.1211  1.5079
10546SOL     OW36484   2.456   7.191   3.849 -0.3990  0.4961 -0.3674
10546SOL    HW136485   2.546   7.160   3.837  0.5734  1.7708  2.5669
10546SOL    HW236486   2.411   7.118   3.892 -0.3079  0.4330 -0.3809
10547SOL     OW36487   1.945   6.750   2.405  0.3102 -0.0320  0.4554
10547SOL    HW136488   1.991   6.813   2.460  0.2224 -0.9675  1.6357
10547SOL    HW236489   1.932   6.796   2.322  0.5999  1.3478  1.1462
10548SOL     OW36490   4.669   8.714   2.558  0.3193  0.3211 -0.2811
10548SOL    HW136491   4.756   8.742   2.588  0.6036 -0.9342  0.1109
10548SOL    HW236492   4.673   8.724   2.463  2.1647 -2.9190 -0.7071
10549SOL     OW36493   1.193   8.759   3.951 -0.2887  0.4414 -0.6318
10549SOL    HW136494   1.117   8.704   3.968  0.6084 -0.5022  0.5202
10549SOL    HW236495   1.160   8.849   3.957 -1.7527  0.0730 -2.4105
10550SOL     OW36496   5.114   8.645   4.038 -0.1275  0.4476  0.3322
10550SOL    HW136497   5.082   8.735   4.044 -0.5695  0.2553  1.0047
10550SOL    HW236498   5.183   8.648   3.972  0.0595  1.3344  0.5528
10551SOL     OW36499   2.015   7.328   5.496  0.3153  0.4987  0.4792
10551SOL    HW136500   1.946   7.294   5.439  0.6225 -0.2546  0.5454
10551SOL    HW236501   1.998   7.422   5.500 -1.4607  0.1819  1.4865
10552SOL     OW36502   4.275   7.251   5.319  0.6602  0.1092  0.3371
10552SOL    HW136503   4.236   7.333   5.349 -0.9633  0.0916 -1.5184
10552SOL    HW236504   4.261   7.190   5.391  0.9376  1.1601  1.3127
10553SOL     OW36505   1.276   8.162   4.753 -0.8562  0.1449 -0.2154
10553SOL    HW136506   1.223   8.241   4.741 -2.5937 -1.0061 -0.5212
10553SOL    HW236507   1.330   8.181   4.829  0.9124  2.6856 -1.9502
10554SOL     OW36508   3.898   0.251   3.445 -0.0658  0.3852  0.3655
10554SOL    HW136509   3.984   0.292   3.453 -0.5469  1.9417 -1.5801
10554SOL    HW236510   3.840   0.307   3.496 -0.1951  0.2892  0.3237
10555SOL     OW36511   3.230   9.207   6.960  0.1013 -0.3310  0.1389
10555SOL    HW136512   3.220   9.238   6.871  2.1415  0.0219 -0.0131
10555SOL    HW236513   3.272   9.121   6.951  1.8637  0.4241  0.7626
10556SOL     OW36514   2.459   8.177   5.901  0.4293 -0.4785 -0.5839
10556SOL    HW136515   2.435   8.247   5.840  0.3360 -1.3359 -1.5786
10556SOL    HW236516   2.546   8.200   5.932  0.2758  0.2253 -0.6517
10557SOL     OW36517   3.511   8.705   4.064  0.5261 -0.8033 -0.4055
10557SOL    HW136518   3.501   8.750   4.148  0.6500 -0.4355 -0.5825
10557SOL    HW236519   3.472   8.765   4.000 -1.8843 -2.1610 -0.3429
10558SOL     OW36520   3.008   0.106   3.140 -0.2180 -0.1050  0.3704
10558SOL    HW136521   3.101   0.089   3.124 -0.5764 -1.3274 -0.5880
10558SOL    HW236522   3.000   0.110   3.235  0.7702 -0.2961  0.4678
10559SOL     OW36523   3.957   8.279   6.679  0.4393  0.1264 -0.4497
10559SOL    HW136524   3.996   8.347   6.734  0.4060  0.2643 -0.5933
10559SOL    HW236525   3.862   8.293   6.687  0.4486  0.5325 -1.0186
10560SOL     OW36526   4.114   7.492   5.360 -0.5589 -0.3086 -0.0398
10560SOL    HW136527   4.032   7.478   5.313 -0.6475 -0.7557  0.2380
10560SOL    HW236528   4.177   7.513   5.292 -0.5670 -1.4684 -0.4349
10561SOL     OW36529   1.872   8.414   4.919 -0.0340  0.1549 -0.4999
10561SOL    HW136530   1.888   8.477   4.988  0.8408 -0.6153  0.0209
10561SOL    HW236531   1.784   8.434   4.888 -0.0505  1.1423  0.1542
10562SOL     OW36532   2.448   7.583   5.352 -0.0914  0.4843 -0.1662
10562SOL    HW136533   2.488   7.652   5.406  1.1837 -1.0939  1.0197
10562SOL    HW236534   2.469   7.608   5.262  0.5369  1.5288  0.2418
10563SOL     OW36535   2.959   7.921   7.015 -0.5184  1.0494  0.2413
10563SOL    HW136536   2.965   7.994   7.077  1.6788 -0.1141  1.5422
10563SOL    HW236537   3.027   7.939   6.950  1.0633 -0.4237  1.3762
10564SOL     OW36538   2.491   8.308   4.998 -0.6063 -0.0593 -0.0123
10564SOL    HW136539   2.518   8.392   5.034 -0.9871 -0.2252  0.6795
10564SOL    HW236540   2.411   8.286   5.047 -0.5826 -0.7544 -0.2821
10565SOL     OW36541   3.372   7.456   4.489  0.5826  0.2795 -0.2345
10565SOL    HW136542   3.383   7.551   4.495  1.7705  0.1506  0.0153
10565SOL    HW236543   3.440   7.427   4.428  0.5508 -0.4494  0.0543
10566SOL     OW36544   3.698   0.758   4.263  0.2586  0.0027 -0.1145
10566SOL    HW136545   3.777   0.812   4.265 -0.3704  0.9258  0.4520
10566SOL    HW236546   3.675   0.744   4.355  0.1882 -0.9180 -0.2582
10567SOL     OW36547   2.494   6.211   3.730 -0.2742 -0.1782 -0.1196
10567SOL    HW136548   2.544   6.150   3.676 -0.7121 -0.9970  0.3824
10567SOL    HW236549   2.527   6.198   3.819 -1.2483 -0.6167  0.1925
10568SOL     OW36550   3.902   9.485   4.021 -0.1479 -0.1859  0.5336
10568SOL    HW136551   3.986   9.532   4.019  0.0534 -0.5030  1.1728
10568SOL    HW236552   3.899   9.446   4.109  0.1834 -2.2701 -0.3254
10569SOL     OW36553   0.831   8.797   6.534 -0.5782  0.5404  0.0326
10569SOL    HW136554   0.841   8.703   6.550  1.0455  0.5593 -0.6408
10569SOL    HW236555   0.879   8.839   6.606  0.3805  0.7813 -0.7215
10570SOL     OW36556   3.388   0.688   4.019 -0.3216 -0.0858 -0.3233
10570SOL    HW136557   3.419   0.776   3.999  0.4851 -0.0613  0.9330
10570SOL    HW236558   3.297   0.688   3.991 -0.0663  0.8265 -1.2446
10571SOL     OW36559   2.498   8.587   5.014 -0.4897 -0.2991 -0.0557
10571SOL    HW136560   2.547   8.646   4.958 -1.5927 -0.9770 -1.7972
10571SOL    HW236561   2.406   8.605   4.994 -0.8577 -2.9462 -1.0578
10572SOL     OW36562   1.587   7.911   5.013  0.5788 -0.0392  0.7200
10572SOL    HW136563   1.629   7.990   4.979  2.6548 -1.3864 -0.0304
10572SOL    HW236564   1.553   7.866   4.936 -0.1742 -0.1301  1.0952
10573SOL     OW36565   0.925   7.995   6.953 -0.0700  0.3401  0.5830
10573SOL    HW136566   0.895   8.071   7.001  0.0134  0.8705 -0.1915
10573SOL    HW236567   0.852   7.973   6.894  0.0617  0.0651  0.5192
10574SOL     OW36568   1.798   7.258   1.715  0.4163  0.1491  0.3095
10574SOL    HW136569   1.753   7.338   1.688  0.1219 -0.1503 -0.1021
10574SOL    HW236570   1.858   7.239   1.643  1.4291  0.7099  0.9876
10575SOL     OW36571   2.721   7.384   2.312  0.3193  0.1025 -0.0543
10575SOL    HW136572   2.785   7.438   2.359 -0.1758  0.4890  0.1789
10575SOL    HW236573   2.638   7.428   2.325 -0.1757 -0.9593  0.5192
10576SOL     OW36574   2.373   6.323   5.580 -0.1279 -0.4057 -0.1754
10576SOL    HW136575   2.429   6.358   5.510 -0.1549  0.3351  0.1654
10576SOL    HW236576   2.284   6.336   5.547 -0.1261 -0.7774 -0.3355
10577SOL     OW36577   0.425   5.811   5.198  0.5219  0.6491 -0.2929
10577SOL    HW136578   0.504   5.842   5.154  0.2323  0.3792 -1.0112
10577SOL    HW236579   0.449   5.726   5.234  0.2689  0.0729 -1.4201
10578SOL     OW36580   3.310   5.870   7.129 -0.3869 -0.0461 -0.1809
10578SOL    HW136581   3.246   5.941   7.119 -0.2132  0.0993 -0.2831
10578SOL    HW236582   3.319   5.858   7.223 -0.2469  0.2279 -0.1565
10579SOL     OW36583   3.659   6.790   5.304 -0.8573  0.3004 -0.0709
10579SOL    HW136584   3.677   6.719   5.242 -0.4607  0.6487 -0.3662
10579SOL    HW236585   3.653   6.868   5.249  1.6630  0.9830  0.4679
10580SOL     OW36586   1.357   8.739   7.277  0.2379 -0.2951  0.4270
10580SOL    HW136587   1.291   8.780   7.332  0.4803  0.0743  0.4440
10580SOL    HW236588   1.313   8.663   7.239  0.1894 -0.8074  1.4643
10581SOL     OW36589   3.455   6.135   4.675  0.4546 -0.0977 -0.1651
10581SOL    HW136590   3.454   6.052   4.724  0.1618  1.1665  2.0978
10581SOL    HW236591   3.499   6.196   4.733 -4.6152  2.9285  1.1612
10582SOL     OW36592   4.036   9.055   5.749 -0.0599  0.0296 -0.1441
10582SOL    HW136593   4.033   9.017   5.661 -0.1970 -1.1728  0.3500
10582SOL    HW236594   4.127   9.046   5.777 -0.0960  0.0492 -0.0179
10583SOL     OW36595   2.901   5.131   6.259  0.3279  0.7884  0.1410
10583SOL    HW136596   2.992   5.158   6.273  1.0137 -1.9962  1.8300
10583SOL    HW236597   2.905   5.070   6.186 -0.3029  1.1332 -0.1900
10584SOL     OW36598   0.968   7.764   7.593  0.0443 -0.4823 -0.5652
10584SOL    HW136599   0.921   7.762   7.676  0.4618 -0.1348 -0.3120
10584SOL    HW236600   0.901   7.752   7.526 -0.2981 -0.7413 -0.1765
10585SOL     OW36601   2.014   7.201   6.841 -0.3848 -0.0218  0.2386
10585SOL    HW136602   2.104   7.227   6.861  0.2360 -0.2631 -1.9609
10585SOL    HW236603   2.008   7.110   6.870 -0.0511  0.1197  0.7580
10586SOL     OW36604   1.991   9.032   6.668  0.6942  0.1111  0.1744
10586SOL    HW136605   1.979   9.111   6.720 -0.5063  1.3802 -1.8896
10586SOL    HW236606   1.904   9.013   6.633  0.8322 -2.4833  1.0047
10587SOL     OW36607   2.420   0.952   7.462  0.2472  0.2435  0.0822
10587SOL    HW136608   2.481   0.994   7.523 -1.2009 -0.1318  1.8776
10587SOL    HW236609   2.472   0.884   7.420  1.1424  0.0617  1.4068
10588SOL     OW36610   1.725   0.428   7.710  0.0931  0.1468  0.0178
10588SOL    HW136611   1.757   0.517   7.728 -1.8804  1.3854 -2.0289
10588SOL    HW236612   1.630   0.436   7.709 -0.1685 -2.2019  0.5568
10589SOL     OW36613   2.396   7.637   4.847 -0.1817  0.4926  0.1630
10589SOL    HW136614   2.316   7.639   4.794 -0.2065  0.7347  0.2046
10589SOL    HW236615   2.435   7.724   4.834 -0.1575  0.5321  0.4921
10590SOL     OW36616   0.928   7.804   6.191  0.0014  0.3712 -0.2374
10590SOL    HW136617   1.016   7.830   6.165 -0.4730  1.2803 -1.0045
10590SOL    HW236618   0.878   7.803   6.109 -0.8060  0.2978  0.2448
10591SOL     OW36619   3.604   7.326   6.852  0.1636 -0.1264  0.7833
10591SOL    HW136620   3.668   7.397   6.851  0.2523 -0.2045 -0.4147
10591SOL    HW236621   3.569   7.324   6.763 -0.5940 -0.9086  1.0876
10592SOL     OW36622   4.585   8.666   5.486 -0.0824  0.1220  0.5717
10592SOL    HW136623   4.650   8.649   5.417 -1.0508  2.0054 -0.9241
10592SOL    HW236624   4.633   8.655   5.568  0.8948 -3.0999 -0.3125
10593SOL     OW36625   2.308   9.232   6.970 -0.3107  0.0609 -0.0870
10593SOL    HW136626   2.271   9.264   7.052 -0.1844 -1.7512  0.7358
10593SOL    HW236627   2.232   9.204   6.919 -0.3622 -4.3053  1.8764
10594SOL     OW36628   0.739   8.955   7.687 -0.3345  0.0547  0.1970
10594SOL    HW136629   0.756   8.938   7.595  1.0253 -0.7290  0.5628
10594SOL    HW236630   0.692   9.039   7.688 -0.1569  0.1906 -1.1840
10595SOL     OW36631   4.596   9.021   4.982 -0.2019  0.2811 -0.5814
10595SOL    HW136632   4.659   8.955   4.952  0.0700  0.1040  0.3495
10595SOL    HW236633   4.510   8.985   4.957 -0.1878 -1.2692  1.3840
10596SOL     OW36634   1.073   7.551   6.090 -0.4420  0.0046  0.3606
10596SOL    HW136635   0.991   7.504   6.076  1.2838 -2.9409 -0.8613
10596SOL    HW236636   1.079   7.562   6.185 -1.2705 -1.6836  0.6411
10597SOL     OW36637   2.155   7.570   5.366 -0.2243 -0.5961 -0.0321
10597SOL    HW136638   2.201   7.486   5.357 -0.5859 -0.8849  0.7024
10597SOL    HW236639   2.224   7.636   5.365  0.0419 -0.8683 -0.9371
10598SOL     OW36640   0.426   6.543   7.988  0.1961 -0.2937  0.1358
10598SOL    HW136641   0.457   6.621   7.942  0.7872  0.2052  1.3523
10598SOL    HW236642   0.353   6.512   7.934 -0.5763  1.5472  0.0362
10599SOL     OW36643   4.362   8.666   8.101 -0.2995 -0.0821 -0.1481
10599SOL    HW136644   4.362   8.681   8.196 -0.9753  1.9736 -0.4168
10599SOL    HW236645   4.448   8.697   8.073  0.4291 -1.9307 -0.0879
10600SOL     OW36646   2.250   8.654   6.826 -0.0529 -0.0390  0.5061
10600SOL    HW136647   2.320   8.624   6.767 -1.1810 -1.0126 -0.3774
10600SOL    HW236648   2.230   8.742   6.795 -0.9744 -0.7174 -0.9392
10601SOL     OW36649   3.025   0.344   7.152  0.2580 -0.8986 -0.0166
10601SOL    HW136650   3.046   0.251   7.139 -2.0881 -1.9268  2.6080
10601SOL    HW236651   3.009   0.377   7.064  0.4767 -3.1692 -0.9889
10602SOL     OW36652   0.067   0.083   6.869  0.1518 -0.5754 -0.0353
10602SOL    HW136653   0.106   0.165   6.840 -0.0956 -0.2654  0.4868
10602SOL    HW236654   0.022   0.049   6.792  0.8786 -0.6039 -0.4636
10603SOL     OW36655   3.621   8.851   8.548 -0.0377  0.0136 -0.4642
10603SOL    HW136656   3.606   8.775   8.492  1.8294  0.2335 -1.3351
10603SOL    HW236657   3.621   8.926   8.489  0.9907  0.3594 -0.0565
10604SOL     OW36658   2.938   8.795   6.923 -0.6215 -0.2276 -0.2380
10604SOL    HW136659   3.027   8.823   6.943 -1.3683  1.2734  1.3049
10604SOL    HW236660   2.898   8.781   7.009 -1.8147 -1.1114 -0.9033
10605SOL     OW36661   2.748   8.680   9.583 -0.4337 -0.2359 -0.1422
10605SOL    HW136662   2.771   8.649   9.495  0.3918  0.9768 -0.3752
10605SOL    HW236663   2.771   8.773   9.583  0.1000 -0.3316  1.5247
10606SOL     OW36664   2.756   7.899   7.771 -0.5432 -0.3231  0.1766
10606SOL    HW136665   2.793   7.970   7.719 -1.6579 -0.9029 -1.5250
10606SOL    HW236666   2.709   7.845   7.707 -0.1598 -2.3223  1.4779
10607SOL     OW36667   4.379   8.701   8.410 -0.5130 -0.6094  0.1238
10607SOL    HW136668   4.286   8.711   8.430 -0.8319  0.8747 -1.7441
10607SOL    HW236669   4.403   8.783   8.368  1.4591 -1.2727 -0.1517
10608SOL     OW36670   4.769   5.931   7.827  0.0493 -0.7908  0.4138
10608SOL    HW136671   4.726   5.845   7.835  3.4795 -2.7072  0.0779
10608SOL    HW236672   4.781   5.942   7.733 -0.5662  0.2300  0.4413
10609SOL     OW36673   2.535   8.641   8.038 -0.0069 -0.3934  0.0408
10609SOL    HW136674   2.539   8.549   8.012 -0.0825 -0.8899  1.6454
10609SOL    HW236675   2.613   8.654   8.093 -0.1562  0.4201  0.0808
10610SOL     OW36676   5.018   7.852   6.608 -0.5682  0.1672 -0.0258
10610SOL    HW136677   4.929   7.889   6.612 -1.6723 -2.3453  3.0639
10610SOL    HW236678   5.066   7.898   6.677  0.4089  1.0603 -1.2565
10611SOL     OW36679   2.665   7.222   8.056  0.0071  0.2993 -0.4774
10611SOL    HW136680   2.580   7.184   8.079  0.8716 -1.9624 -0.7783
10611SOL    HW236681   2.683   7.285   8.125 -1.5613  0.2572 -0.0005
10612SOL     OW36682   0.804   7.965   5.508  0.0278 -0.1405 -0.1489
10612SOL    HW136683   0.793   7.871   5.493 -0.0510 -0.0225 -0.8569
10612SOL    HW236684   0.778   7.978   5.599  2.1988 -1.1574  0.6852
10613SOL     OW36685   4.175   9.178   7.475  0.1483 -0.0190 -0.0792
10613SOL    HW136686   4.161   9.084   7.469  0.5817 -0.0094 -1.8570
10613SOL    HW236687   4.245   9.188   7.541 -0.2996 -0.8758  0.5417
10614SOL     OW36688   5.205   9.823   6.755 -0.1259 -0.0259 -0.2235
10614SOL    HW136689   5.222   9.853   6.844 -1.2183  0.1239 -0.0581
10614SOL    HW236690   5.110   9.820   6.748 -0.0524 -1.3793 -0.9411
10615SOL     OW36691   0.462   5.451   7.898 -0.4453  0.4598 -0.4929
10615SOL    HW136692   0.445   5.478   7.988  0.9797 -0.9862  0.2542
10615SOL    HW236693   0.381   5.409   7.869 -0.3159 -0.7346  0.7837
10616SOL     OW36694   2.260   7.108   7.744  0.3699  0.1716  0.1873
10616SOL    HW136695   2.164   7.115   7.736  0.0825  1.3704  3.4115
10616SOL    HW236696   2.294   7.164   7.674 -1.2309 -0.2373 -0.9980
10617SOL     OW36697   3.953   8.516   4.155  0.5626  0.1796  0.1732
10617SOL    HW136698   4.032   8.462   4.158  0.2167 -0.2756  2.4623
10617SOL    HW236699   3.887   8.466   4.203 -0.4795  1.5485  0.2529
10618SOL     OW36700   4.497   9.531   6.136 -0.3674  0.2861 -0.4661
10618SOL    HW136701   4.402   9.523   6.147 -0.3272 -1.8470 -1.1727
10618SOL    HW236702   4.511   9.524   6.042  0.4733  1.0393 -0.4086
10619SOL     OW36703   1.645   9.634   5.130  0.0479  0.1144 -0.1633
10619SOL    HW136704   1.574   9.600   5.075 -0.4802 -1.6576  1.4984
10619SOL    HW236705   1.704   9.560   5.142  0.4467  0.6137  1.1608
10620SOL     OW36706   5.558   6.799   6.145  0.0184  0.8651 -0.0175
10620SOL    HW136707   5.530   6.724   6.093  2.9395 -0.1407 -0.3225
10620SOL    HW236708   5.536   6.875   6.091 -3.3256  0.3682  0.4508
10621SOL     OW36709   2.874   6.887   4.749 -0.8216  0.3270 -0.2668
10621SOL    HW136710   2.863   6.795   4.772  1.3316  0.1253  0.1724
10621SOL    HW236711   2.787   6.925   4.762 -1.9469 -1.7652 -1.1818
10622SOL     OW36712   1.216   8.292   8.066 -0.1965 -0.7186 -0.2044
10622SOL    HW136713   1.173   8.373   8.037  0.7832 -0.5979 -1.3962
10622SOL    HW236714   1.195   8.286   8.159 -0.9829  0.4705 -0.2836
10623SOL     OW36715   1.190   8.189   5.751 -0.2751  0.8353  0.1091
10623SOL    HW136716   1.246   8.247   5.699  1.6003  0.3751  1.4856
10623SOL    HW236717   1.211   8.211   5.842  0.7387 -2.1152  0.6880
10624SOL     OW36718   3.260   0.078   6.241  0.1379  0.1806  0.3045
10624SOL    HW136719   3.319   0.107   6.172  0.5111  2.0140  1.3258
10624SOL    HW236720   3.314   0.071   6.319 -0.4495 -1.0012  0.6381
10625SOL     OW36721   6.675   7.972   5.951 -0.5144  0.5832 -0.3825
10625SOL    HW136722   6.726   7.921   6.012 -0.0966  1.5554  0.1066
10625SOL    HW236723   6.712   8.060   5.956 -2.3539  1.3917  0.1726
10626SOL     OW36724   1.596   8.017   2.944 -0.1717  0.4929  0.2512
10626SOL    HW136725   1.516   8.061   2.973  0.3882  0.3494  2.1745
10626SOL    HW236726   1.582   8.001   2.850 -2.8359 -0.4312  0.6982
10627SOL     OW36727   1.802   7.786   6.319  0.1100  0.3511  0.6841
10627SOL    HW136728   1.744   7.859   6.298  1.5887  1.5333  0.4857
10627SOL    HW236729   1.873   7.827   6.370  0.5646 -1.0984  1.2585
10628SOL     OW36730   3.699   9.435   7.069  0.0051 -0.3006  0.4130
10628SOL    HW136731   3.755   9.373   7.115  1.5417  1.8284  1.6128
10628SOL    HW236732   3.648   9.477   7.138  0.8279  1.4851 -0.0085
10629SOL     OW36733   3.396   1.048   4.051 -0.0921 -0.2608 -0.2108
10629SOL    HW136734   3.340   1.004   3.987  0.4171  0.1492 -0.9465
10629SOL    HW236735   3.426   1.127   4.007 -1.6719  1.3155  1.3723
10630SOL     OW36736   1.566   0.561   7.191 -0.2414  0.5547 -0.0174
10630SOL    HW136737   1.658   0.550   7.213  0.2712  3.0814 -0.5518
10630SOL    HW236738   1.566   0.601   7.104 -1.6016  3.5476  1.1979
10631SOL     OW36739   4.325   1.883   6.207 -0.4611  1.0938 -0.0884
10631SOL    HW136740   4.272   1.814   6.168 -0.6393  0.2562  1.5124
10631SOL    HW236741   4.353   1.937   6.134  0.2403 -1.0558 -1.5186
10632SOL     OW36742   2.199   1.465   7.315  0.0381  0.6397  0.3972
10632SOL    HW136743   2.175   1.419   7.234  0.5878 -1.3536  1.3057
10632SOL    HW236744   2.294   1.478   7.308  0.3774 -1.0438  1.4017
10633SOL     OW36745   3.221   6.180   5.403 -0.5554  0.2269 -0.1306
10633SOL    HW136746   3.292   6.223   5.356 -0.4449 -0.5603 -0.7007
10633SOL    HW236747   3.263   6.106   5.449 -0.4248  1.6688  2.2608
10634SOL     OW36748   1.217   0.193   4.981 -0.1098 -0.4936 -0.1547
10634SOL    HW136749   1.127   0.219   4.961 -0.2422 -1.7051 -1.2897
10634SOL    HW236750   1.244   0.252   5.052 -1.5196  0.4008 -0.3211
10635SOL     OW36751   2.881   1.337   5.992  0.4186 -0.1170  0.4551
10635SOL    HW136752   2.962   1.384   5.973  0.1265  0.4145  0.5064
10635SOL    HW236753   2.904   1.245   5.980  0.5575  0.1126 -1.3242
10636SOL     OW36754   1.949   6.591   8.042 -0.4678  0.2942 -0.6020
10636SOL    HW136755   2.009   6.584   7.967  2.6114  0.4170  1.6695
10636SOL    HW236756   2.003   6.625   8.113 -2.9967 -0.6362  1.9677
10637SOL     OW36757   3.022   7.062   8.802  0.2983  0.6696 -0.0624
10637SOL    HW136758   3.050   7.022   8.720  3.1751  0.3258  0.9826
10637SOL    HW236759   2.934   7.096   8.783 -0.5947 -2.3823 -2.2311
10638SOL     OW36760   4.339   7.650   5.529  0.0954  0.0821  0.1449
10638SOL    HW136761   4.406   7.594   5.567  0.4972  0.8364  0.5835
10638SOL    HW236762   4.371   7.739   5.544 -0.6667  0.4380 -0.2662
10639SOL     OW36763   1.786   6.022   7.964 -0.2591 -0.6849  0.0146
10639SOL    HW136764   1.694   6.049   7.974  0.2412  1.2306 -0.0549
10639SOL    HW236765   1.783   5.948   7.903 -1.6208  0.7771 -1.8238
10640SOL     OW36766   1.888   8.527   8.259  0.4613 -0.5871 -0.1827
10640SOL    HW136767   1.795   8.507   8.272  0.3680 -0.8265 -1.1633
10640SOL    HW236768   1.893   8.622   8.264  0.1274 -0.5613 -0.3154
10641SOL     OW36769   3.513   9.198   6.234 -0.0154 -0.2949  0.5726
10641SOL    HW136770   3.581   9.262   6.256  0.5598 -0.4036 -0.7942
10641SOL    HW236771   3.431   9.246   6.243  0.3485  0.3534  0.5031
10642SOL     OW36772   3.075   6.484   6.007 -0.2626  0.3048 -0.0322
10642SOL    HW136773   3.003   6.539   6.039 -1.9424 -0.2703 -2.5144
10642SOL    HW236774   3.145   6.545   5.989 -0.1883  0.9363  2.0909
10643SOL     OW36775   2.282   7.434   5.862  0.1046 -0.9102  0.0954
10643SOL    HW136776   2.259   7.347   5.829  0.0623 -1.5223  1.6729
10643SOL    HW236777   2.369   7.423   5.899 -0.5221 -0.6990  1.7198
10644SOL     OW36778   2.113   9.408   5.815  0.1493 -0.2107 -0.4204
10644SOL    HW136779   2.180   9.407   5.884 -1.1285 -1.5001  0.8753
10644SOL    HW236780   2.080   9.497   5.816 -0.6502 -0.4699  1.5164
10645SOL     OW36781   1.121   7.042   8.879  0.6490  0.1718 -0.2476
10645SOL    HW136782   1.131   7.039   8.974 -1.4127 -0.5672  0.0054
10645SOL    HW236783   1.060   7.114   8.864 -0.1942 -0.6483 -0.8613
10646SOL     OW36784   4.457   8.340   7.041  0.0255  0.0223  0.0150
10646SOL    HW136785   4.506   8.284   6.980  1.2166 -0.0943  1.0249
10646SOL    HW236786   4.373   8.296   7.053  0.6805 -1.2023  0.2524
10647SOL     OW36787   3.876   2.042   6.532  0.1530 -0.3665  0.5272
10647SOL    HW136788   3.867   1.960   6.483 -3.7153  0.5281 -0.6225
10647SOL    HW236789   3.813   2.034   6.604  0.8214  1.0262  1.3037
10648SOL     OW36790   6.022   9.677   8.530 -0.3005 -0.3127  0.1228
10648SOL    HW136791   6.010   9.659   8.437  2.0747 -1.3083 -0.0840
10648SOL    HW236792   6.052   9.767   8.533  2.3769 -1.0779 -0.4747
10649SOL     OW36793   4.227   6.992   6.060  0.8608 -0.1414 -0.5877
10649SOL    HW136794   4.171   7.005   5.984 -0.2890 -0.8724  0.1004
10649SOL    HW236795   4.263   7.079   6.079  0.7658  0.1375 -1.6492
10650SOL     OW36796   1.382   8.937   7.562 -0.3408  0.6169  0.5023
10650SOL    HW136797   1.407   8.990   7.487  2.4982  1.8358  2.1627
10650SOL    HW236798   1.322   8.992   7.612 -0.4981  0.6690  0.2582
10651SOL     OW36799   3.420   5.782   7.726 -0.3848  0.8885  0.0373
10651SOL    HW136800   3.437   5.876   7.720 -0.0032  0.7270 -2.2376
10651SOL    HW236801   3.464   5.745   7.650 -0.8440 -1.1084  0.6819
10652SOL     OW36802   1.716   9.216   9.067  0.5621 -0.7280 -0.8835
10652SOL    HW136803   1.787   9.169   9.111  2.3324  1.3786 -1.3122
10652SOL    HW236804   1.759   9.261   8.994 -0.7729  2.1870 -0.0315
10653SOL     OW36805   2.187   8.258   6.995 -0.7014  0.0608 -0.9226
10653SOL    HW136806   2.125   8.329   7.010  0.9181  1.6236 -1.3015
10653SOL    HW236807   2.180   8.239   6.901  0.0019  0.8479 -1.1414
10654SOL     OW36808   0.512   6.091   9.521 -0.5581 -0.9253 -0.4020
10654SOL    HW136809   0.492   6.056   9.608 -1.3185  0.2454 -0.0784
10654SOL    HW236810   0.430   6.132   9.493  0.6059  1.7763 -0.1478
10655SOL     OW36811   2.733   9.329   6.407  0.6606 -0.2536  0.0954
10655SOL    HW136812   2.777   9.343   6.323 -1.1241  0.8852 -0.6980
10655SOL    HW236813   2.692   9.412   6.427  0.8982 -0.5602  2.0510
10656SOL     OW36814   2.626   9.284   5.399 -0.0953  0.2514 -0.1107
10656SOL    HW136815   2.614   9.345   5.472 -0.3301 -1.5511  1.4314
10656SOL    HW236816   2.537   9.261   5.373 -0.0390 -0.8134  0.5680
10657SOL     OW36817   3.343   8.577   3.162  0.4058  0.1955 -1.0777
10657SOL    HW136818   3.302   8.538   3.239  0.2616  0.5210 -0.9897
10657SOL    HW236819   3.285   8.555   3.090  1.2247 -1.2830 -1.3337
10658SOL     OW36820   2.168   8.302   6.701 -0.1762 -0.2327  0.2289
10658SOL    HW136821   2.263   8.316   6.701 -0.0171 -1.1958  0.7783
10658SOL    HW236822   2.132   8.384   6.670  0.9239 -0.4635 -1.8576
10659SOL     OW36823   4.467   7.788   6.208 -0.6388 -0.0939  0.2883
10659SOL    HW136824   4.434   7.771   6.297  0.1467  0.7125  0.7503
10659SOL    HW236825   4.431   7.874   6.186  0.1094  0.2223  0.2911
10660SOL     OW36826   3.459   7.122   6.942 -0.1763  0.2233  0.1007
10660SOL    HW136827   3.457   7.146   7.035  1.0823  1.4716 -0.1459
10660SOL    HW236828   3.517   7.188   6.902 -0.4812 -0.4469 -1.5209
10661SOL     OW36829   0.093   6.625   7.240  0.3887 -0.1360  0.8322
10661SOL    HW136830   0.009   6.583   7.224 -0.7221  2.4866 -0.8344
10661SOL    HW236831   0.135   6.570   7.307 -1.7200 -2.6731  0.2374
10662SOL     OW36832   1.448   8.662   8.464  0.7814  0.2025 -0.1029
10662SOL    HW136833   1.429   8.641   8.555 -0.4195 -0.2003 -0.4170
10662SOL    HW236834   1.515   8.730   8.468  0.8796  0.0580  1.0651
10663SOL     OW36835   4.272   9.156   5.818  0.2591  0.6158 -0.1473
10663SOL    HW136836   4.354   9.141   5.772  1.7642 -1.7755  2.9703
10663SOL    HW236837   4.267   9.252   5.826  3.1074  0.8341  0.0844
10664SOL     OW36838   3.678   0.499   8.403 -0.7114 -0.6064 -0.2364
10664SOL    HW136839   3.598   0.549   8.415  1.2170  2.0300  3.5180
10664SOL    HW236840   3.673   0.428   8.467 -0.7041 -1.5223 -1.2039
10665SOL     OW36841   3.730   0.178   6.969 -0.1913  0.3544 -0.0213
10665SOL    HW136842   3.718   0.129   7.051 -0.4490 -0.3235 -0.4549
10665SOL    HW236843   3.796   0.243   6.990  1.4828 -1.3017  0.1185
10666SOL     OW36844   3.299   1.091   7.074 -0.2008 -0.0710  0.2199
10666SOL    HW136845   3.305   1.013   7.130 -0.0031  0.5765  1.1181
10666SOL    HW236846   3.299   1.056   6.985 -1.7435 -1.2031  0.6198
10667SOL     OW36847   2.653   7.494   6.773  0.3343 -0.5134 -0.5916
10667SOL    HW136848   2.723   7.556   6.750  0.4818 -0.8829 -1.1687
10667SOL    HW236849   2.585   7.510   6.708 -0.9572  1.1334  1.0435
10668SOL     OW36850   2.883   6.015   7.919 -0.1477  0.3083  0.1230
10668SOL    HW136851   2.942   6.089   7.933  0.2974  0.1512 -0.8302
10668SOL    HW236852   2.860   5.985   8.007  1.0475  0.4851  0.5099
10669SOL     OW36853   2.054   8.511   7.004 -0.4447 -0.0387 -0.0110
10669SOL    HW136854   2.039   8.557   7.087 -1.8335 -0.8078  0.1991
10669SOL    HW236855   2.123   8.561   6.961 -0.0992  0.7066  1.3555
10670SOL     OW36856   0.926   6.564   7.354 -0.6058 -0.1840  0.5515
10670SOL    HW136857   0.994   6.577   7.420  0.0459 -2.4801  0.3882
10670SOL    HW236858   0.964   6.600   7.274 -1.0312  1.7468  1.1517
10671SOL     OW36859   2.180   7.297   3.830  0.3402 -0.0852 -0.9363
10671SOL    HW136860   2.274   7.281   3.843  0.4255  0.5193 -0.7694
10671SOL    HW236861   2.139   7.269   3.911  0.4254  0.0147 -0.8581
10672SOL     OW36862   2.557   8.824   7.828 -0.3767  0.4241  0.7403
10672SOL    HW136863   2.576   8.750   7.771  0.2958  1.0867  0.0805
10672SOL    HW236864   2.508   8.786   7.902 -2.2067 -0.3033 -0.7533
10673SOL     OW36865   1.500   7.154   4.752 -0.0254 -0.2640 -0.2129
10673SOL    HW136866   1.506   7.102   4.672  1.1740 -1.4530  0.5983
10673SOL    HW236867   1.556   7.230   4.736 -1.5917  0.7098 -1.3125
10674SOL     OW36868   2.135   0.500   2.728  0.4693 -0.3981 -0.0583
10674SOL    HW136869   2.207   0.561   2.708 -1.7390  2.6767  0.5539
10674SOL    HW236870   2.150   0.425   2.670  4.4236 -0.2286  0.4715
10675SOL     OW36871   1.639   1.418   5.784  0.0779  0.7374 -0.3997
10675SOL    HW136872   1.660   1.475   5.858  0.3536  0.8936 -0.5961
10675SOL    HW236873   1.693   1.340   5.798 -2.1192 -0.6137  1.2316
10676SOL     OW36874   0.933   8.086   6.476 -0.2005 -0.3273 -0.3237
10676SOL    HW136875   0.992   8.092   6.551 -0.5764  1.8254 -0.1478
10676SOL    HW236876   0.845   8.092   6.513 -0.3782  1.6046 -0.9472
10677SOL     OW36877   2.792   7.452   8.202 -0.0107  0.2450  0.0787
10677SOL    HW136878   2.721   7.515   8.211 -0.8352 -0.3219 -1.9679
10677SOL    HW236879   2.861   7.500   8.157 -0.2033  0.0105 -0.4719
10678SOL     OW36880   1.927   0.458   5.180 -0.2122  0.1156 -0.2947
10678SOL    HW136881   1.890   0.535   5.224  1.3621  0.4292  0.5717
10678SOL    HW236882   1.858   0.392   5.185 -0.5790  0.5789  1.5264
10679SOL     OW36883   1.608   5.798   8.268 -0.0344 -0.0943 -0.0812
10679SOL    HW136884   1.543   5.802   8.198 -1.4911 -0.6492  1.1974
10679SOL    HW236885   1.690   5.827   8.226 -0.5037 -1.8255 -2.3851
10680SOL     OW36886   3.515   8.197   5.433  0.3056  0.2942 -0.8213
10680SOL    HW136887   3.436   8.245   5.459 -0.6072 -1.0576 -0.9438
10680SOL    HW236888   3.501   8.109   5.468  1.5921 -0.0801 -1.1956
10681SOL     OW36889   1.642   9.028   7.133 -0.0977 -0.5394 -0.0979
10681SOL    HW136890   1.729   9.003   7.163  0.1376 -0.1113 -0.4003
10681SOL    HW236891   1.657   9.102   7.074 -0.8444  1.2262  1.7849
10682SOL     OW36892   1.814   8.989   4.965  0.6113 -0.4563  0.2130
10682SOL    HW136893   1.793   9.003   5.057  1.8394 -0.2165  0.4835
10682SOL    HW236894   1.750   9.041   4.917  1.9135  2.0868  1.0576
10683SOL     OW36895   1.958   8.825   4.683 -0.1260 -0.1781  0.3162
10683SOL    HW136896   1.909   8.859   4.608  0.5991  1.0977  0.4000
10683SOL    HW236897   2.002   8.747   4.649  0.2918  0.4527 -0.6243
10684SOL     OW36898   1.515   4.510   6.337  0.6191 -0.6729 -0.0570
10684SOL    HW136899   1.475   4.589   6.372 -0.5145 -0.9618 -0.6608
10684SOL    HW236900   1.444   4.446   6.336  0.2506 -0.4192 -3.7558
10685SOL     OW36901   1.891   7.150   8.972  0.5720 -0.7953  0.0350
10685SOL    HW136902   1.926   7.174   8.886 -0.1337  1.6272  0.3617
10685SOL    HW236903   1.801   7.180   8.971 -0.2328 -2.9501  0.8103
10686SOL     OW36904   2.848   7.606   6.481 -0.6564  0.2379  0.0425
10686SOL    HW136905   2.917   7.553   6.520 -0.6580 -1.0282 -1.5617
10686SOL    HW236906   2.886   7.694   6.475 -0.2615  0.2219  1.7709
10687SOL     OW36907   2.536   7.385   4.042  0.0496  0.5825 -0.1940
10687SOL    HW136908   2.588   7.327   4.097  0.7580  1.0350 -0.3818
10687SOL    HW236909   2.500   7.329   3.974 -1.7123 -0.2112  1.2862
10688SOL     OW36910   3.822   5.987   8.609  0.5142  0.1183 -0.6461
10688SOL    HW136911   3.860   6.070   8.638  0.5234 -0.5111  1.2393
10688SOL    HW236912   3.728   5.997   8.625  0.6734 -0.7399  0.9974
10689SOL     OW36913   3.645   8.887   6.274  0.0619 -0.1300  0.3579
10689SOL    HW136914   3.642   8.914   6.366 -1.2372  0.7663  0.0834
10689SOL    HW236915   3.578   8.820   6.267  0.1377 -0.1740  0.0596
10690SOL     OW36916   3.660   9.162   7.555  0.5215 -0.7125  0.7911
10690SOL    HW136917   3.716   9.163   7.632  1.1778  3.1086  0.4324
10690SOL    HW236918   3.720   9.169   7.480 -0.2666  1.0243  0.2742
10691SOL     OW36919   1.931   7.515   6.920  0.4636 -0.0108 -0.3262
10691SOL    HW136920   1.879   7.595   6.919  1.9235  1.0187 -2.7792
10691SOL    HW236921   2.021   7.544   6.937  1.0264 -1.0939 -1.2568
10692SOL     OW36922   3.956   8.792   0.199 -0.2300  0.5329  0.0378
10692SOL    HW136923   3.962   8.859   0.131 -1.8334 -1.5927 -2.4040
10692SOL    HW236924   3.942   8.710   0.151  0.1707 -1.3873  2.8968
10693SOL     OW36925   5.199   1.784   7.936  0.2165 -0.5018 -0.1709
10693SOL    HW136926   5.187   1.754   7.846 -0.2959 -2.5727  0.5275
10693SOL    HW236927   5.124   1.841   7.953  1.3009  1.4689 -1.5990
10694SOL     OW36928   1.635   8.239   6.433  0.6649 -0.0604 -0.2911
10694SOL    HW136929   1.652   8.276   6.347  0.0982  0.0911 -0.3413
10694SOL    HW236930   1.669   8.305   6.494 -0.6303  0.7205 -0.3736
10695SOL     OW36931   4.286   8.959   7.729 -0.4871 -0.2410  0.3917
10695SOL    HW136932   4.257   9.050   7.737  0.0526  0.0321 -0.6058
10695SOL    HW236933   4.353   8.961   7.660  0.2182 -1.2375  1.0254
10696SOL     OW36934   4.154   8.959   3.991 -0.1022  0.2663 -0.0469
10696SOL    HW136935   4.169   8.872   4.029  1.1303  0.5761  0.2296
10696SOL    HW236936   4.185   9.019   4.058  0.4139  0.8736 -0.8147
10697SOL     OW36937   1.939   8.445   7.687  0.2558 -0.0171  0.3081
10697SOL    HW136938   2.014   8.480   7.639  0.0393 -1.5835 -1.2957
10697SOL    HW236939   1.869   8.509   7.673  0.4443 -0.0368 -0.8084
10698SOL     OW36940   1.551   8.198   7.356  0.0192  0.1341  0.4434
10698SOL    HW136941   1.495   8.147   7.298  1.3686 -0.6169 -0.2568
10698SOL    HW236942   1.629   8.143   7.368  0.4798  0.9956  1.6379
10699SOL     OW36943   1.355   8.957   7.111 -0.0989  0.2274 -0.7828
10699SOL    HW136944   1.316   8.889   7.165 -0.6738  1.1493  0.0021
10699SOL    HW236945   1.437   8.919   7.079  0.3646 -0.2867  0.9084
10700SOL     OW36946   2.135   7.863   6.215  0.5279  0.0593  0.3367
10700SOL    HW136947   2.119   7.777   6.176 -0.9811  0.9519 -1.1626
10700SOL    HW236948   2.213   7.895   6.169  1.0854 -0.4576  0.8881
10701SOL     OW36949   3.272   5.496   6.780 -0.7822 -0.3650 -0.3120
10701SOL    HW136950   3.292   5.409   6.814 -0.5265 -0.1981 -0.0295
10701SOL    HW236951   3.307   5.556   6.846  1.3939  0.0212 -1.7469
10702SOL     OW36952   1.413   7.102   5.563  0.5526  0.2699 -0.4484
10702SOL    HW136953   1.345   7.140   5.508  1.1968  0.4482 -1.1534
10702SOL    HW236954   1.424   7.164   5.635 -2.0697 -1.1800  1.3617
10703SOL     OW36955   8.910   0.256   6.652  0.1361  0.0485 -0.2895
10703SOL    HW136956   8.866   0.171   6.655  1.2867 -0.5899 -0.8697
10703SOL    HW236957   8.953   0.263   6.738 -0.4366  0.3210 -0.0193
10704SOL     OW36958   1.723   9.687   5.472  0.4668  0.2647  0.3660
10704SOL    HW136959   1.785   9.745   5.428  0.6378  0.1681  0.4778
10704SOL    HW236960   1.714   9.613   5.412 -0.3954  0.7851 -0.1722
10705SOL     OW36961   4.337   9.524   7.829 -0.6560 -0.0619 -0.1255
10705SOL    HW136962   4.312   9.599   7.883  1.9557  1.1767 -0.4883
10705SOL    HW236963   4.349   9.561   7.742 -1.1349 -1.2899 -0.7237
10706SOL     OW36964   2.028   0.201   9.354 -0.8006 -0.3166 -0.3507
10706SOL    HW136965   1.986   0.281   9.322  0.6595  0.9677  0.8228
10706SOL    HW236966   2.068   0.226   9.436 -0.9475 -2.4851  0.4466
10707SOL     OW36967   9.782   8.293   7.954  0.7751 -0.7170  0.0458
10707SOL    HW136968   9.811   8.345   7.879  3.5309 -0.0766  1.4084
10707SOL    HW236969   9.781   8.356   8.027 -0.4543 -1.6088  0.8226
10708SOL     OW36970   1.374   7.107   7.304  0.3496 -0.5501  0.1778
10708SOL    HW136971   1.410   7.144   7.223 -1.5729 -0.8562 -0.8684
10708SOL    HW236972   1.448   7.062   7.344  1.4908  0.0682 -1.1351
10709SOL     OW36973   3.001   8.404   5.859  0.3488 -0.1633  0.1498
10709SOL    HW136974   2.935   8.424   5.926  0.0644 -1.0415  0.1443
10709SOL    HW236975   2.951   8.370   5.785  0.7577 -0.2277 -0.1029
10710SOL     OW36976   5.844   6.322   7.076  0.0664  0.0212  0.0255
10710SOL    HW136977   5.833   6.294   7.167  0.3102 -0.1572  0.0015
10710SOL    HW236978   5.938   6.338   7.068 -0.0719  0.9262  0.0645
10711SOL     OW36979   2.401   9.015   7.455 -0.1672  1.0353  0.1424
10711SOL    HW136980   2.392   9.034   7.548  0.2500 -0.5086  0.5251
10711SOL    HW236981   2.468   9.077   7.424  1.5469 -0.0793  1.4399
10712SOL     OW36982   1.539   9.198   6.434 -0.4257 -0.0210  0.3381
10712SOL    HW136983   1.534   9.293   6.438 -2.2883 -0.0397 -0.3484
10712SOL    HW236984   1.557   9.179   6.341 -0.3898 -0.3328  0.4064
10713SOL     OW36985   3.489   8.185   7.742 -0.3667 -0.9195  0.1521
10713SOL    HW136986   3.560   8.187   7.678  0.4528  2.1508  0.9843
10713SOL    HW236987   3.412   8.212   7.693 -0.1561 -0.5590  0.0146
10714SOL     OW36988   0.481   9.680   5.591  0.2545 -0.5572  0.8363
10714SOL    HW136989   0.392   9.717   5.590  0.3165 -0.4017  1.2306
10714SOL    HW236990   0.530   9.736   5.530  0.6273  0.7126  2.2430
10715SOL     OW36991   3.475   6.077   7.768  0.3699  1.3374 -0.6822
10715SOL    HW136992   3.404   6.124   7.810 -1.5532 -0.3549 -1.8295
10715SOL    HW236993   3.510   6.138   7.703 -1.0269  1.7393 -1.0888
10716SOL     OW36994   3.382   8.165   7.311  0.7463  0.4473 -0.6387
10716SOL    HW136995   3.326   8.228   7.266 -1.0303 -0.7236 -0.1761
10716SOL    HW236996   3.413   8.211   7.389 -0.6254  0.7350 -0.2400
10717SOL     OW36997   4.205   8.430   5.620 -0.0237  0.1265  0.1294
10717SOL    HW136998   4.158   8.512   5.637  0.1796 -0.0077  1.4718
10717SOL    HW236999   4.250   8.411   5.703 -0.5701 -1.6575  0.0518
10718SOL     OW37000   2.888   1.070   5.965 -0.0369  1.0638  0.4016
10718SOL    HW137001   2.829   1.051   5.892  1.4400  0.4298 -0.6598
10718SOL    HW237002   2.859   1.010   6.035  0.6360 -0.7867 -0.8250
10719SOL     OW37003   2.225   8.590   6.120  0.4040  0.0268 -0.5759
10719SOL    HW137004   2.171   8.655   6.166 -0.2522 -0.4818 -0.6226
10719SOL    HW237005   2.227   8.620   6.029  2.6801  1.7007 -0.0630
10720SOL     OW37006   1.692   9.296   8.017  0.2797  0.4211 -0.5425
10720SOL    HW137007   1.682   9.372   7.960  1.2258  0.5421 -0.5548
10720SOL    HW237008   1.658   9.325   8.102  0.6739  0.8684 -0.5353
10721SOL     OW37009   2.887   9.800   8.099 -0.1005  0.3683  0.3290
10721SOL    HW137010   2.917   9.790   8.189 -1.3861 -0.7384  0.6730
10721SOL    HW237011   2.815   9.737   8.090 -0.7948  1.2924 -1.1131
10722SOL     OW37012   9.515   8.700   6.946 -0.3700  0.0985 -0.3339
10722SOL    HW137013   9.585   8.638   6.929  1.4939  1.7633  0.8607
10722SOL    HW237014   9.537   8.777   6.892 -0.9235  0.8859  0.5328
10723SOL     OW37015   2.228   1.199   7.436  0.4272 -0.5403 -0.1891
10723SOL    HW137016   2.322   1.209   7.421  0.5706 -1.3725  0.1054
10723SOL    HW237017   2.202   1.282   7.477  1.1693 -0.5611  0.3507
10724SOL     OW37018   4.444   8.014   4.988 -0.1213  0.1688  0.1544
10724SOL    HW137019   4.500   7.967   4.926 -0.4266 -0.1628  0.1255
10724SOL    HW237020   4.358   8.016   4.946 -0.0006  1.2016 -0.0671
10725SOL     OW37021   8.928   9.828   8.216 -0.6292  0.0012  0.0640
10725SOL    HW137022   8.993   9.886   8.178  1.6782 -2.3331  0.2155
10725SOL    HW237023   8.852   9.836   8.159  1.4336 -0.6917 -3.0033
10726SOL     OW37024   3.010   8.616   3.815 -0.0959  0.2508 -0.0143
10726SOL    HW137025   2.954   8.688   3.846 -1.8816 -0.3491 -1.6890
10726SOL    HW237026   2.962   8.537   3.839  0.9843 -0.3425  0.2169
10727SOL     OW37027   2.601   0.243   8.194 -0.3622 -0.4526 -0.1116
10727SOL    HW137028   2.660   0.250   8.269  1.2329 -1.9500 -1.1570
10727SOL    HW237029   2.576   0.150   8.192 -0.3697 -0.4363 -1.4114
10728SOL     OW37030   3.005   7.436   7.911 -0.3403  0.2985  1.1744
10728SOL    HW137031   3.026   7.528   7.922  0.5036  0.1328  0.9875
10728SOL    HW237032   3.044   7.393   7.987 -0.8152  0.1064  1.3135
10729SOL     OW37033   3.207   9.564   6.193  0.4341  0.7521 -0.3680
10729SOL    HW137034   3.287   9.585   6.145 -1.2654  0.2189 -3.7633
10729SOL    HW237035   3.150   9.640   6.178 -0.6959 -0.1103 -0.5769
10730SOL     OW37036   1.872   7.075   4.833 -0.2382  0.2935 -0.7288
10730SOL    HW137037   1.854   6.987   4.800  1.1360 -0.3171  0.0463
10730SOL    HW237038   1.791   7.101   4.877 -0.3030 -1.0817  0.0337
10731SOL     OW37039   2.452   6.197   6.612  0.6993  0.9076 -0.1815
10731SOL    HW137040   2.479   6.114   6.651  3.0032  1.7431  0.1330
10731SOL    HW237041   2.386   6.173   6.547 -0.2132 -0.9363  1.3376
10732SOL     OW37042   2.768   9.814   5.061  0.7254 -0.0602  0.1266
10732SOL    HW137043   2.723   9.800   4.978  0.3653  0.1735  0.2784
10732SOL    HW237044   2.861   9.815   5.038  0.6199  0.2122 -0.3001
10733SOL     OW37045   1.815   9.388   7.432 -0.0578  0.4169  0.2553
10733SOL    HW137046   1.840   9.439   7.509 -2.5438  1.7010  0.2835
10733SOL    HW237047   1.774   9.309   7.468  0.2821  0.2216  0.2205
10734SOL     OW37048   2.122   8.250   5.981  0.2071 -0.0294  0.3060
10734SOL    HW137049   2.055   8.207   5.928 -0.5324  1.6250 -0.1445
10734SOL    HW237050   2.075   8.293   6.052  0.6584  1.6778 -0.3611
10735SOL     OW37051   2.691   8.190   7.313 -0.0005 -0.2388  0.4975
10735SOL    HW137052   2.747   8.147   7.248 -0.2626 -2.2072  1.4896
10735SOL    HW237053   2.607   8.202   7.269  0.2470 -0.2603  0.0157
10736SOL     OW37054   3.077   8.014   7.698  0.4936 -0.5103  0.5902
10736SOL    HW137055   3.017   7.976   7.634  0.9479  0.1240 -0.2387
10736SOL    HW237056   3.141   7.945   7.716 -0.3801 -1.1485  1.3869
10737SOL     OW37057   4.213   8.180   7.986 -0.2635  0.9113  0.1730
10737SOL    HW137058   4.223   8.168   8.080  1.1435  2.1247  0.1962
10737SOL    HW237059   4.128   8.224   7.976 -1.3822 -0.9830  0.6729
10738SOL     OW37060   1.913   8.118   5.872  0.1541 -0.0737 -0.1896
10738SOL    HW137061   1.950   8.044   5.826  0.8636  0.3258 -0.2748
10738SOL    HW237062   1.908   8.090   5.964  0.2704 -0.2814 -0.2470
10739SOL     OW37063   2.208   6.710   7.266  0.2381  0.0899 -0.1299
10739SOL    HW137064   2.200   6.688   7.173 -1.3311  0.9040 -0.2382
10739SOL    HW237065   2.123   6.687   7.303 -1.1332  4.3657  0.0069
10740SOL     OW37066   2.846   7.945   7.522  0.2258  0.0605  0.6072
10740SOL    HW137067   2.804   7.974   7.440  0.2840 -2.1029 -0.2602
10740SOL    HW237068   2.932   7.913   7.495  1.4084  1.8658  1.9796
10741SOL     OW37069   1.193   8.001   6.149  0.0179 -0.5062 -0.5618
10741SOL    HW137070   1.218   8.082   6.104 -1.3126  0.9945  1.2485
10741SOL    HW237071   1.270   7.944   6.139  1.0453  0.9987 -1.7949
10742SOL     OW37072   2.721   7.066   7.640 -0.6078  0.2102 -0.5985
10742SOL    HW137073   2.634   7.035   7.665 -0.2592 -0.1450  0.2162
10742SOL    HW237074   2.745   7.127   7.709 -0.2051  0.3067 -0.8207
10743SOL     OW37075   1.647   5.938   4.926  0.2217 -0.1975 -0.6935
10743SOL    HW137076   1.682   5.893   5.003  0.8239 -3.5348 -2.7060
10743SOL    HW237077   1.579   5.995   4.961  0.4003 -1.6090  2.2962
10744SOL     OW37078   0.385   8.016   5.301  0.5620  0.0225  0.5261
10744SOL    HW137079   0.374   8.110   5.285 -0.6828 -0.2223 -0.1607
10744SOL    HW237080   0.423   8.011   5.389  1.6341  1.1914  0.1627
10745SOL     OW37081   2.705   7.597   7.580 -0.3525 -0.9161 -0.7599
10745SOL    HW137082   2.659   7.677   7.555 -1.3274 -0.6815  1.4813
10745SOL    HW237083   2.637   7.541   7.616  0.8366 -1.1487  1.3084
10746SOL     OW37084   3.310   9.360   7.450 -0.8704 -0.1592 -0.2559
10746SOL    HW137085   3.373   9.411   7.501 -1.7955  1.2821 -0.4954
10746SOL    HW237086   3.294   9.281   7.503  0.4695 -0.1467  0.1962
10747SOL     OW37087   1.684   5.283   8.392 -0.2281  0.5068 -0.3065
10747SOL    HW137088   1.659   5.228   8.318  0.8787 -1.1253  0.4686
10747SOL    HW237089   1.676   5.372   8.359 -0.0245 -0.1575 -2.3086
10748SOL     OW37090   3.735   0.622   7.747 -0.1845  0.7691  0.3196
10748SOL    HW137091   3.812   0.592   7.796 -0.2954  0.1916  0.1571
10748SOL    HW237092   3.770   0.683   7.683  0.4271 -0.8785 -0.9893
10749SOL     OW37093   2.475   9.175   4.431  0.3948 -0.4655 -0.1977
10749SOL    HW137094   2.443   9.253   4.386  0.3058 -0.5631 -0.3050
10749SOL    HW237095   2.406   9.110   4.417  0.3742 -0.5020  0.0666
10750SOL     OW37096   2.818   6.845   6.556  0.0324 -0.1943  0.1037
10750SOL    HW137097   2.768   6.860   6.635 -1.6358  0.1096 -0.9649
10750SOL    HW237098   2.752   6.830   6.488  1.3723  0.3763 -1.3950
10751SOL     OW37099   2.939   6.938   9.628 -0.5935 -0.4576  0.0453
10751SOL    HW137100   3.020   6.896   9.597  0.8738  2.5620 -0.6161
10751SOL    HW237101   2.938   6.921   9.722  0.4764 -1.0697 -0.0342
10752SOL     OW37102   3.145   7.975   6.801 -0.0133  0.1619  0.8630
10752SOL    HW137103   3.208   7.981   6.729 -0.1830  0.1767  0.7141
10752SOL    HW237104   3.118   8.065   6.816  1.7810  0.4906  2.5380
10753SOL     OW37105   2.176   8.505   7.567 -0.3843 -0.6388  0.3997
10753SOL    HW137106   2.247   8.442   7.578  1.1070  0.9019 -0.0979
10753SOL    HW237107   2.201   8.580   7.620 -1.1664  0.3275 -0.5442
10754SOL     OW37108   3.826   9.622   8.530  0.1761  0.1207  0.3096
10754SOL    HW137109   3.796   9.708   8.557 -0.6441 -0.2278  0.5375
10754SOL    HW237110   3.772   9.561   8.580  1.5249 -0.5389  1.0297
10755SOL     OW37111   4.344   9.377   7.199  0.0851 -0.0563  0.2591
10755SOL    HW137112   4.422   9.385   7.254  0.4153  0.7987 -0.3015
10755SOL    HW237113   4.377   9.390   7.110 -0.8880  1.8946  0.1280
10756SOL     OW37114   2.420   8.591   5.282 -0.2458 -0.0957  0.0486
10756SOL    HW137115   2.512   8.600   5.257  0.3139  0.2306  2.0898
10756SOL    HW237116   2.372   8.603   5.200  1.4796  0.4265 -0.9370
10757SOL     OW37117   2.904   6.044   5.124 -0.4664  0.5208  0.5829
10757SOL    HW137118   2.924   5.970   5.182  0.8910  0.0487 -0.4462
10757SOL    HW237119   2.934   6.121   5.173  0.0018  0.2013  0.8009
10758SOL     OW37120   3.222   7.116   2.659 -0.0899  0.2301  0.1813
10758SOL    HW137121   3.209   7.171   2.582 -2.2033 -0.3638  0.0719
10758SOL    HW237122   3.135   7.084   2.682  0.7533 -1.1823  1.6592
10759SOL     OW37123   4.710   9.640   6.896  0.2495  0.7441  0.3745
10759SOL    HW137124   4.736   9.554   6.863 -0.0312  0.6945  0.2773
10759SOL    HW237125   4.615   9.634   6.907  0.2597  0.9641  0.5998
10760SOL     OW37126   9.742   8.362   6.266 -0.4410 -0.4327 -0.2443
10760SOL    HW137127   9.786   8.419   6.203 -0.3488  0.9677  1.0139
10760SOL    HW237128   9.799   8.286   6.274 -0.3833 -0.5736 -1.7106
10761SOL     OW37129   9.002   8.819   7.975  0.1838  0.3511 -0.1234
10761SOL    HW137130   8.934   8.865   7.925 -0.3877  0.8202  1.0469
10761SOL    HW237131   9.081   8.871   7.961 -0.2130  1.0875  0.3013
10762SOL     OW37132   2.681   9.691   7.815  0.4731 -0.1872 -0.2860
10762SOL    HW137133   2.612   9.756   7.797  1.9226  1.4049 -0.3987
10762SOL    HW237134   2.690   9.693   7.911  1.6559  1.0819 -0.3919
10763SOL     OW37135   2.929   5.777   4.208  0.6968  0.1841 -0.0730
10763SOL    HW137136   2.884   5.779   4.124  0.0927  1.0447  0.2500
10763SOL    HW237137   2.859   5.791   4.273  1.2348  0.1470  0.5274
10764SOL     OW37138   1.764   7.736   6.911 -0.6908 -0.5028 -0.3289
10764SOL    HW137139   1.738   7.816   6.866  1.3005 -0.1085 -0.8791
10764SOL    HW237140   1.727   7.745   6.999 -0.1360  1.2480 -0.2370
10765SOL     OW37141   4.943   8.642   6.848  0.1350 -0.2998 -0.1329
10765SOL    HW137142   4.991   8.613   6.770  1.2937 -0.4977  0.6433
10765SOL    HW237143   4.896   8.564   6.877 -0.8713 -0.0547 -1.0105
10766SOL     OW37144   3.467   7.893   5.842  0.1230 -0.0635  0.1731
10766SOL    HW137145   3.509   7.846   5.914 -1.0687 -1.0475  0.2443
10766SOL    HW237146   3.389   7.842   5.821 -0.1175  0.7820 -1.1215
10767SOL     OW37147   2.415   7.279   6.648 -0.6135 -0.4408  0.0302
10767SOL    HW137148   2.444   7.213   6.585 -0.6113  0.6526 -1.1532
10767SOL    HW237149   2.444   7.245   6.733  0.9556 -1.1112 -0.7340
10768SOL     OW37150   1.390   7.308   7.067 -0.5907  0.0075 -0.3779
10768SOL    HW137151   1.308   7.312   7.019 -0.3210  0.7683 -0.7963
10768SOL    HW237152   1.382   7.377   7.134  0.1052  0.8016 -1.0880
10769SOL     OW37153   2.449   8.519   7.014 -0.2609 -0.1124  0.0171
10769SOL    HW137154   2.530   8.567   7.001  0.9539 -2.4635 -1.9164
10769SOL    HW237155   2.391   8.549   6.943 -0.4080  0.2279  0.2787
10770SOL     OW37156   3.313   9.630   7.261 -0.3112  0.0563  0.1264
10770SOL    HW137157   3.311   9.573   7.185  1.4636 -1.0047  0.7940
10770SOL    HW237158   3.236   9.605   7.312 -0.3382 -0.7459 -0.2878
10771SOL     OW37159   3.447   9.293   5.935  0.0937 -0.1637 -0.5029
10771SOL    HW137160   3.445   9.229   6.007 -0.3793  0.1974 -0.1961
10771SOL    HW237161   3.478   9.242   5.859 -1.3453 -1.0347 -0.5391
10772SOL     OW37162   3.310   7.057   3.944  0.0427  0.2640  0.2510
10772SOL    HW137163   3.332   7.129   4.003 -1.3938 -0.2221  1.4469
10772SOL    HW237164   3.308   6.980   4.001 -0.4901 -0.3643 -0.6038
10773SOL     OW37165   3.461   8.035   6.890 -0.6794 -0.2739 -0.2982
10773SOL    HW137166   3.437   8.110   6.835 -1.9335  0.1713  0.8223
10773SOL    HW237167   3.556   8.043   6.900 -0.6615  0.5965 -1.0017
10774SOL     OW37168   1.522   7.471   4.271  0.1394 -0.7339  0.4863
10774SOL    HW137169   1.610   7.476   4.308  0.5581 -2.3401 -0.1758
10774SOL    HW237170   1.468   7.436   4.342  0.2725 -0.7712  0.5701
10775SOL     OW37171   3.022   9.100   4.830  0.3562 -0.2514  0.0175
10775SOL    HW137172   2.992   9.036   4.766  2.0641 -0.9424 -0.1443
10775SOL    HW237173   3.064   9.048   4.899 -2.1160  0.4039  2.1560
10776SOL     OW37174   1.759   5.996   5.585  0.0799 -0.6345 -0.0212
10776SOL    HW137175   1.799   6.015   5.500  0.4813 -1.1007  0.0625
10776SOL    HW237176   1.665   6.004   5.569  0.1100 -1.4887 -0.7037
10777SOL     OW37177   0.558   0.620   9.635  0.3445 -0.4124  0.1390
10777SOL    HW137178   0.604   0.557   9.691  0.4020 -2.2051 -1.8044
10777SOL    HW237179   0.626   0.652   9.575 -0.3506 -0.9635 -0.9593
10778SOL     OW37180   0.579   9.043   9.012  0.6737  0.6246 -0.1297
10778SOL    HW137181   0.556   9.026   8.921  0.1167 -1.4392  0.3418
10778SOL    HW237182   0.669   9.013   9.021  0.3455 -0.2789  0.2505
10779SOL     OW37183   2.800   7.117   6.866 -0.3610  0.6174  0.0500
10779SOL    HW137184   2.739   7.190   6.872 -0.2246  0.7363 -0.0225
10779SOL    HW237185   2.746   7.040   6.887 -1.0429  0.4599 -2.0368
10780SOL     OW37186   5.226   0.696   6.247  0.5902  0.1124 -0.7703
10780SOL    HW137187   5.177   0.614   6.243 -2.2026  1.7290 -1.9867
10780SOL    HW237188   5.174   0.758   6.197  2.5006  2.7282  0.2649
10781SOL     OW37189   3.753   8.697   0.370  0.4187  0.5449 -0.2361
10781SOL    HW137190   3.809   8.742   0.305  1.9108 -0.0615  0.5762
10781SOL    HW237191   3.706   8.768   0.414  1.3963  1.1845 -0.1883
10782SOL     OW37192   4.176   0.400   7.848 -0.2338 -0.1014 -0.0770
10782SOL    HW137193   4.261   0.356   7.842  1.0385  2.3588 -2.7214
10782SOL    HW237194   4.132   0.378   7.766 -0.8809  0.9530 -0.0301
10783SOL     OW37195   3.639   8.343   8.290 -0.0662 -0.3607  0.6750
10783SOL    HW137196   3.733   8.328   8.303  0.2797 -0.8252 -1.9085
10783SOL    HW237197   3.629   8.438   8.294  0.4794 -0.3156  1.1070
10784SOL     OW37198   2.947   9.818   1.013  0.6250 -0.0617 -0.5096
10784SOL    HW137199   2.995   9.771   1.080  1.6125 -0.0804 -1.2101
10784SOL    HW237200   2.874   9.760   0.991  2.2888 -1.7172 -1.9583
10785SOL     OW37201   2.226   8.847   8.593  0.6099 -0.2161 -0.3398
10785SOL    HW137202   2.305   8.794   8.602 -0.2923 -1.5262  0.2836
10785SOL    HW237203   2.203   8.840   8.500  1.2417  0.2207 -0.5352
10786SOL     OW37204   2.257   8.619   9.146 -0.1146  0.3577 -0.0075
10786SOL    HW137205   2.243   8.663   9.062 -0.2370 -3.4927 -2.2496
10786SOL    HW237206   2.169   8.602   9.179 -0.2589 -1.4480 -1.1565
10787SOL     OW37207   2.763   7.738   8.299  0.0206  0.3511 -0.1061
10787SOL    HW137208   2.859   7.731   8.297  0.0443  0.8224 -0.6956
10787SOL    HW237209   2.744   7.824   8.261 -0.6575  0.1262 -0.2881
10788SOL     OW37210   2.110   6.683   8.972  0.1110  0.1098  0.0366
10788SOL    HW137211   2.129   6.591   8.953 -1.8784 -0.7887  1.8457
10788SOL    HW237212   2.183   6.731   8.934  0.4255 -2.0587 -2.3736
10789SOL     OW37213   2.517   6.769   9.771  0.2576  0.0709  0.2992
10789SOL    HW137214   2.520   6.751   9.677  0.4828  0.3500  0.2525
10789SOL    HW237215   2.556   6.856   9.780 -0.9882  0.6346  0.4903
10790SOL     OW37216   1.915   9.738   7.125  0.0233  0.2909 -0.6664
10790SOL    HW137217   1.996   9.720   7.076 -0.4202  0.3441 -1.4289
10790SOL    HW237218   1.878   9.815   7.083  0.2122  1.0250  0.4875
10791SOL     OW37219   4.349   7.470   8.681  0.4727 -0.6224  0.4945
10791SOL    HW137220   4.432   7.516   8.673  0.0614 -0.1276 -1.1867
10791SOL    HW237221   4.353   7.428   8.767  1.7560  0.7582  1.1454
10792SOL     OW37222   3.493   9.047   7.191  0.1806  0.1137 -0.2443
10792SOL    HW137223   3.444   9.065   7.272  0.0968  1.1622 -0.5039
10792SOL    HW237224   3.575   9.096   7.202  1.3762 -1.9131  0.3392
10793SOL     OW37225   1.414   7.584   9.546 -0.1250  0.0533 -0.2904
10793SOL    HW137226   1.401   7.637   9.467 -1.8063 -1.5232 -1.1449
10793SOL    HW237227   1.350   7.617   9.608 -0.5672 -0.3586 -0.5158
10794SOL     OW37228   4.518   9.406   9.740 -0.3537  0.3827 -0.2356
10794SOL    HW137229   4.496   9.441   9.653 -0.0588 -0.4513 -0.6522
10794SOL    HW237230   4.475   9.321   9.743  0.9377 -0.2872 -0.1884
10795SOL     OW37231   4.026   9.826   8.001 -0.3864 -0.2547 -0.0432
10795SOL    HW137232   4.114   9.836   8.037 -1.3744  1.7509  1.9950
10795SOL    HW237233   4.040   9.814   7.907  2.0275  1.2450  0.0518
10796SOL     OW37234   1.741   8.270   7.593  0.0870 -0.0285 -0.2668
10796SOL    HW137235   1.748   8.285   7.498  2.1129  0.2970 -0.1044
10796SOL    HW237236   1.805   8.329   7.631 -1.7498  0.9490  1.4698
10797SOL     OW37237   0.737   9.345   7.561 -0.2382 -0.0486 -0.1872
10797SOL    HW137238   0.655   9.394   7.569 -0.6603 -0.6649 -0.6168
10797SOL    HW237239   0.774   9.346   7.649 -0.1495  1.1781 -0.2209
10798SOL     OW37240   1.651   0.046   7.284  0.2776  0.0126  0.1469
10798SOL    HW137241   1.671  -0.047   7.295  1.0643  0.2581  0.9301
10798SOL    HW237242   1.682   0.068   7.196 -0.3136 -0.5524 -0.2137
10799SOL     OW37243   4.798   8.305   8.355 -0.2584 -0.4370  0.5333
10799SOL    HW137244   4.760   8.346   8.432 -0.5772  4.0577 -1.6858
10799SOL    HW237245   4.724   8.262   8.312 -0.5758 -0.8467  1.4678
10800SOL     OW37246   3.575   9.750   8.141 -0.2981 -0.0414 -0.4393
10800SOL    HW137247   3.653   9.766   8.195 -0.2505 -2.1597  0.2121
10800SOL    HW237248   3.567   9.655   8.139 -1.2954  0.0383 -2.8209
10801SOL     OW37249   1.901   9.233   0.540 -0.0928 -0.1515  0.2685
10801SOL    HW137250   1.903   9.262   0.631  0.0974 -0.2700  0.3026
10801SOL    HW237251   1.993   9.223   0.515 -0.1120  0.8368 -0.2486
10802SOL     OW37252   2.360   0.155   7.518  0.9081 -0.3795 -0.4192
10802SOL    HW137253   2.291   0.150   7.453  1.0343 -0.6066 -0.5389
10802SOL    HW237254   2.322   0.203   7.591  0.6796 -0.3608 -0.5514
10803SOL     OW37255   0.435   8.891   0.999  0.2055  0.5091 -0.0985
10803SOL    HW137256   0.436   8.986   0.995 -1.3668  0.5442 -0.2774
10803SOL    HW237257   0.507   8.863   0.943  1.3031  1.5873  0.7219
10804SOL     OW37258   0.309   0.296   9.000 -0.0811  0.4953  0.1659
10804SOL    HW137259   0.377   0.230   9.014 -0.2680 -0.2987 -2.2013
10804SOL    HW237260   0.272   0.312   9.087  1.4021 -0.9454  1.1091
10805SOL     OW37261   3.147   0.058   8.131  0.2022  0.1510 -0.4133
10805SOL    HW137262   3.193   0.033   8.051  0.7127  0.5531 -0.2525
10805SOL    HW237263   3.141  -0.024   8.181 -0.6578 -0.2307 -1.1147
10806SOL     OW37264   3.007   6.874   8.114  0.4754  0.1528 -0.5118
10806SOL    HW137265   3.024   6.803   8.053  2.1885 -0.1848  0.3171
10806SOL    HW237266   2.919   6.905   8.090 -0.2307 -2.0580 -1.0380
10807SOL     OW37267   2.833   2.329   8.342  0.0379 -0.0685  0.3186
10807SOL    HW137268   2.746   2.342   8.306  0.5902  2.2577 -0.3405
10807SOL    HW237269   2.817   2.289   8.428 -1.7002  0.6114  0.3568
10808SOL     OW37270   1.994   9.685   7.841 -0.1791 -0.8442 -0.2403
10808SOL    HW137271   1.920   9.742   7.860  0.5550 -0.0309  0.2711
10808SOL    HW237272   2.071   9.740   7.856  0.7257 -2.8577  3.9613
10809SOL     OW37273   5.259   7.361   7.174 -0.2170 -0.1202  0.8289
10809SOL    HW137274   5.180   7.352   7.226 -0.2139 -2.0245  0.5774
10809SOL    HW237275   5.242   7.308   7.095  1.5536 -1.2089  1.1188
10810SOL     OW37276   3.319   0.775   6.380  0.0807  0.3315  0.2291
10810SOL    HW137277   3.389   0.839   6.368  0.1870  0.2566  0.4379
10810SOL    HW237278   3.316   0.761   6.475 -0.2737  0.3976  0.2248
10811SOL     OW37279   2.210   7.090   9.576  0.2699  0.2082  0.1306
10811SOL    HW137280   2.244   7.130   9.497 -2.9551 -0.2969 -1.7133
10811SOL    HW237281   2.239   6.999   9.572  0.2207  0.2157 -0.4431
10812SOL     OW37282   2.768   8.955   9.684 -0.9033  0.1074 -0.3207
10812SOL    HW137283   2.716   8.934   9.761  1.2538  1.8077  1.7333
10812SOL    HW237284   2.763   9.050   9.676  0.1629  0.1062 -1.3572
10813SOL     OW37285   0.999   8.694   9.741  0.4830 -0.1682 -0.0489
10813SOL    HW137286   0.934   8.673   9.808 -0.6863  2.1800 -0.3603
10813SOL    HW237287   1.022   8.786   9.757  2.1519 -0.3173 -1.2757
10814SOL     OW37288   2.104   8.340   0.482 -0.3724  0.0742  0.9039
10814SOL    HW137289   2.118   8.433   0.470 -1.7572  0.3888  1.4772
10814SOL    HW237290   2.009   8.330   0.486 -0.2464 -1.3106  1.1926
10815SOL     OW37291   1.377   8.528   8.055 -0.3039  0.5806  0.7909
10815SOL    HW137292   1.396   8.434   8.056  1.0432  0.8235  0.9201
10815SOL    HW237293   1.285   8.535   8.079 -0.2772 -0.6808  1.3225
10816SOL     OW37294   5.075   4.681   8.170 -0.1027 -0.2575 -0.1522
10816SOL    HW137295   4.994   4.683   8.221 -0.5603  0.4981 -0.8851
10816SOL    HW237296   5.098   4.588   8.167 -1.6430 -0.6515 -1.0130
10817SOL     OW37297   3.007   8.814   8.476 -0.0224 -0.2339 -0.1685
10817SOL    HW137298   2.958   8.802   8.557 -1.3007 -1.3006 -1.0545
10817SOL    HW237299   3.041   8.903   8.482 -2.2075  0.6220  0.4437
10818SOL     OW37300   0.717   6.718   7.933 -0.6966 -0.2469  0.4420
10818SOL    HW137301   0.775   6.775   7.883 -1.2967  0.6404  0.7227
10818SOL    HW237302   0.630   6.736   7.898 -0.8772 -1.1055  0.4381
10819SOL     OW37303   4.060   1.929   7.886  0.2134  0.4665 -0.0318
10819SOL    HW137304   4.057   2.025   7.891  1.3204  0.6952 -2.3311
10819SOL    HW237305   4.152   1.909   7.870  0.2915 -1.1534  1.9709
10820SOL     OW37306   3.402   8.303   9.437 -0.0327  0.1238  0.6723
10820SOL    HW137307   3.396   8.340   9.525  1.2421 -1.4001  1.4572
10820SOL    HW237308   3.340   8.230   9.438 -0.3489  0.3766  0.1343
10821SOL     OW37309   4.353   8.168   6.565  0.8896 -0.5379  0.8372
10821SOL    HW137310   4.418   8.118   6.516  1.1450  1.7456 -1.3109
10821SOL    HW237311   4.355   8.255   6.527 -2.2082  0.1280  1.8903
10822SOL     OW37312   2.989   7.718   8.832  0.1896 -0.0203  0.1802
10822SOL    HW137313   2.957   7.766   8.908  1.1488  1.0820 -0.0846
10822SOL    HW237314   2.978   7.626   8.856 -0.2279  0.3103  1.3437
10823SOL     OW37315   3.471   6.112   7.363  0.2560  0.0337 -0.3386
10823SOL    HW137316   3.515   6.170   7.425  0.6567  1.0151 -1.4842
10823SOL    HW237317   3.536   6.097   7.295  0.3239 -2.2045  0.1735
10824SOL     OW37318   2.092   7.052   9.160  0.1067 -0.1880 -0.1485
10824SOL    HW137319   2.037   7.091   9.092 -1.8737 -0.2861  1.3122
10824SOL    HW237320   2.048   6.970   9.183  1.6548 -0.9869  0.1024
10825SOL     OW37321   4.710   8.320   6.039 -0.0246 -0.2235 -0.3985
10825SOL    HW137322   4.751   8.329   6.125  2.5365 -1.8194 -1.3584
10825SOL    HW237323   4.694   8.226   6.030 -1.7890  0.1049 -1.0574
10826SOL     OW37324   2.697   7.913   7.054 -0.1015  0.5559 -0.0142
10826SOL    HW137325   2.776   7.864   7.031  0.1622  0.8196  0.3127
10826SOL    HW237326   2.671   7.877   7.139  0.2369  1.1561  0.3431
10827SOL     OW37327   3.818   6.581   6.876 -0.2163 -0.0227  0.4103
10827SOL    HW137328   3.808   6.547   6.965 -0.0472 -1.8193 -0.2223
10827SOL    HW237329   3.745   6.545   6.827  1.3161 -1.5867 -0.8666
10828SOL     OW37330   2.060   9.213   7.486  0.1154 -0.1082  0.3230
10828SOL    HW137331   2.076   9.296   7.532  1.5772 -1.0480  1.6032
10828SOL    HW237332   2.147   9.182   7.462 -0.3716 -1.4629  0.2266
10829SOL     OW37333   1.014   8.418   0.051 -0.5241  0.3281 -0.2630
10829SOL    HW137334   0.923   8.446   0.042 -0.0134  1.4173 -2.6886
10829SOL    HW237335   1.065   8.494   0.022  1.0945 -1.0786 -1.2412
10830SOL     OW37336   4.443   2.530   8.905  0.1094  0.0636  0.3069
10830SOL    HW137337   4.519   2.490   8.863 -0.2125  0.0366 -0.2538
10830SOL    HW237338   4.372   2.521   8.841 -0.3077  0.3001  0.7285
10831SOL     OW37339   1.607   7.556   9.716  0.0258  0.4398  0.3242
10831SOL    HW137340   1.539   7.539   9.650 -2.2356  0.8764  2.3905
10831SOL    HW237341   1.612   7.651   9.721  0.4659  0.4096  0.5287
10832SOL     OW37342   4.727   7.446   8.004  0.0106  0.6329  0.4484
10832SOL    HW137343   4.652   7.505   7.996 -0.7903 -0.5562 -1.5851
10832SOL    HW237344   4.690   7.364   8.038  0.1308 -0.2833 -1.4727
10833SOL     OW37345   1.270   7.925   7.747  0.3366  0.1797 -0.2136
10833SOL    HW137346   1.315   7.860   7.800  0.0127 -0.3137 -0.5313
10833SOL    HW237347   1.270   8.004   7.800  0.7725 -0.0663  0.1601
10834SOL     OW37348   2.110   8.502   5.493 -0.5387  0.2569  0.0226
10834SOL    HW137349   2.132   8.428   5.550 -1.5401  0.1879  0.3448
10834SOL    HW237350   2.038   8.546   5.538  0.4438  1.8097  0.1523
10835SOL     OW37351   4.193   7.553   8.894 -0.1363 -0.0074 -0.1036
10835SOL    HW137352   4.122   7.596   8.847 -0.5052 -0.0946  0.3736
10835SOL    HW237353   4.272   7.597   8.862 -0.3055 -0.5671 -1.3677
10836SOL     OW37354   1.822   7.474   9.857  0.1206 -0.0836  0.1907
10836SOL    HW137355   1.752   7.496   9.796  0.8667  0.4019 -0.5160
10836SOL    HW237356   1.824   7.548   9.919  1.0848  0.7402 -0.7852
10837SOL     OW37357   9.414   7.518   0.292  0.0427  0.1988  0.3416
10837SOL    HW137358   9.399   7.460   0.217  0.3837  1.1900 -0.5255
10837SOL    HW237359   9.365   7.598   0.271 -0.4917  0.1970  1.5522
10838SOL     OW37360   2.929   7.271   9.125  0.1130  0.3996  0.2955
10838SOL    HW137361   2.923   7.308   9.037  1.5649  0.6350  0.2577
10838SOL    HW237362   2.971   7.340   9.177  1.5443 -0.6091  0.5596
10839SOL     OW37363   2.886   8.550   7.946 -0.3283  0.3530  0.2061
10839SOL    HW137364   2.845   8.473   7.905 -0.6447  0.1487  0.8955
10839SOL    HW237365   2.899   8.524   8.037  1.5616  0.3160 -0.0257
10840SOL     OW37366   0.632   7.192   9.799  0.0568 -0.2382  0.9879
10840SOL    HW137367   0.642   7.126   9.867  1.8618 -0.3327  0.6722
10840SOL    HW237368   0.718   7.234   9.793 -0.1521  0.0059 -0.9948
10841SOL     OW37369   2.219   8.872   7.315  0.8805 -0.1933 -0.4869
10841SOL    HW137370   2.287   8.930   7.349  0.7488  1.5504 -2.9120
10841SOL    HW237371   2.264   8.820   7.248  0.1154  0.1211 -1.2604
10842SOL     OW37372   2.364   6.541   8.767 -0.0562  0.1785  0.3987
10842SOL    HW137373   2.389   6.451   8.789  0.7618 -0.1074 -1.4724
10842SOL    HW237374   2.433   6.571   8.708 -2.0697  0.7585 -1.8355
10843SOL     OW37375   3.549   6.220   8.795  0.4956  0.1940 -0.9530
10843SOL    HW137376   3.517   6.154   8.734 -0.8148  1.4668 -1.7130
10843SOL    HW237377   3.565   6.297   8.741 -2.4762  1.9761  0.4165
10844SOL     OW37378   5.013   6.260   7.883  0.0767  0.5251 -0.8636
10844SOL    HW137379   4.975   6.348   7.881 -0.0509  0.4523 -2.1720
10844SOL    HW237380   5.045   6.245   7.794  3.7249  0.8097  0.2347
10845SOL     OW37381   2.914   8.824   8.036 -0.3183 -0.0839  0.4007
10845SOL    HW137382   2.930   8.750   7.977  0.8921  0.2123  0.3190
10845SOL    HW237383   2.828   8.806   8.074 -0.1589 -1.4156  0.2102
10846SOL     OW37384   3.858   9.038   8.140  0.6962 -0.0788 -0.0863
10846SOL    HW137385   3.918   8.981   8.187  0.2356  1.9289  3.1989
10846SOL    HW237386   3.787   8.980   8.111  2.4066 -1.8473 -0.9443
10847SOL     OW37387   4.009   0.518   9.219  0.2559  0.3179 -0.3188
10847SOL    HW137388   4.027   0.612   9.216  0.7750  0.2304  0.0727
10847SOL    HW237389   4.033   0.486   9.132  1.0962  0.3621 -0.1033
10848SOL     OW37390   3.332   6.767   5.106 -0.4857 -0.1010 -0.0614
10848SOL    HW137391   3.261   6.767   5.171 -1.8409 -0.6749 -1.4660
10848SOL    HW237392   3.292   6.805   5.028  0.8306 -0.2463 -0.8311
10849SOL     OW37393   1.725   7.494   9.469 -0.5824 -0.1601 -0.1188
10849SOL    HW137394   1.702   7.568   9.525  1.3217  0.0001  0.5164
10849SOL    HW237395   1.695   7.519   9.381 -0.6752  1.0093  0.2429
10850SOL     OW37396   1.937   5.264   1.966  0.4531 -0.1434  0.3767
10850SOL    HW137397   2.008   5.216   2.008  0.1621  0.6375  1.8346
10850SOL    HW237398   1.903   5.322   2.034  1.3962  2.8731 -1.5211
10851SOL     OW37399   4.062   6.088   8.962  0.1793  0.1258 -0.4561
10851SOL    HW137400   4.043   6.008   8.913 -1.4976 -0.2212  0.6697
10851SOL    HW237401   3.983   6.141   8.953  0.4145  0.6864  0.6270
10852SOL     OW37402   3.409   7.394   8.782 -0.0721 -0.2041 -0.7472
10852SOL    HW137403   3.503   7.377   8.779  0.2320  1.0481  0.5378
10852SOL    HW237404   3.374   7.322   8.834  0.7249  1.1098  1.7834
10853SOL     OW37405   3.000   8.279   7.734 -0.3461 -0.8562  0.0141
10853SOL    HW137406   2.925   8.285   7.793 -0.3057 -1.5268  0.1308
10853SOL    HW237407   3.041   8.195   7.754  1.1516  0.0272  0.7936
10854SOL     OW37408   2.741   6.285   7.668  0.3691 -0.6281 -0.6709
10854SOL    HW137409   2.801   6.332   7.610 -0.8260  0.1718 -1.2861
10854SOL    HW237410   2.773   6.305   7.757  0.8962 -0.0634 -0.9778
10855SOL     OW37411   3.740   7.017   0.226 -0.1210  0.4438 -0.1740
10855SOL    HW137412   3.663   7.068   0.199 -1.6089 -1.1120  0.9690
10855SOL    HW237413   3.738   6.939   0.170 -0.3528 -0.3878  0.9601
10856SOL     OW37414   3.065   8.374   6.413  0.0921  0.0221 -0.2865
10856SOL    HW137415   3.013   8.454   6.413 -0.1250 -0.1067 -1.4599
10856SOL    HW237416   3.156   8.405   6.415  0.0653  0.3845 -2.3482
10857SOL     OW37417   2.612   9.837   8.819 -0.0595 -0.1357  0.0360
10857SOL    HW137418   2.630   9.893   8.743  2.1608  1.1257  1.3589
10857SOL    HW237419   2.615   9.897   8.894  0.9555 -1.7670  1.3862
10858SOL     OW37420   2.618   9.369   8.461  0.2950 -0.7505 -0.1180
10858SOL    HW137421   2.708   9.372   8.492  0.1662 -0.5591  0.2392
10858SOL    HW237422   2.620   9.408   8.374  0.3708  0.2352  0.3235
10859SOL     OW37423   1.797   7.756   9.724 -0.2889  0.1157 -0.4157
10859SOL    HW137424   1.742   7.834   9.729 -1.5701 -0.5701 -2.5281
10859SOL    HW237425   1.824   7.739   9.814  0.4927  3.2770  0.0493
10860SOL     OW37426   2.288   9.588   1.130  0.0962  0.6013  0.6750
10860SOL    HW137427   2.329   9.673   1.111  3.0250 -0.6763  0.7088
10860SOL    HW237428   2.316   9.531   1.058 -2.6499 -0.1619  0.0969
10861SOL     OW37429   3.664   7.941   9.381  0.1173 -0.2103  0.0887
10861SOL    HW137430   3.752   7.908   9.401  0.8562  0.8437 -1.2669
10861SOL    HW237431   3.646   7.909   9.293  0.2457  1.7049 -0.6790
10862SOL     OW37432   2.796   8.151   8.953 -0.4031  0.0021  0.3913
10862SOL    HW137433   2.761   8.217   8.893  0.2639 -1.6540 -1.9331
10862SOL    HW237434   2.723   8.091   8.967 -0.3091 -0.0659  0.5919
10863SOL     OW37435   2.935   9.772   8.782 -0.4315  0.3033 -0.2004
10863SOL    HW137436   2.851   9.731   8.760 -1.0762  1.3676  0.1847
10863SOL    HW237437   2.915   9.866   8.788  0.7227  0.5434  0.2010
10864SOL     OW37438   2.180   9.250   0.569 -0.4439 -0.4033  0.0295
10864SOL    HW137439   2.258   9.226   0.520 -1.6520 -1.1613 -1.6387
10864SOL    HW237440   2.212   9.304   0.641  1.5304 -0.1478 -0.9678
10865SOL     OW37441   1.077   5.623   0.320  0.1849 -0.3254  0.0586
10865SOL    HW137442   1.110   5.662   0.401  1.6777 -0.8516 -0.2563
10865SOL    HW237443   1.042   5.538   0.347 -0.4699  0.0167  0.3179
10866SOL     OW37444   2.798   0.405   9.742  0.4911 -0.2717  0.6533
10866SOL    HW137445   2.853   0.335   9.777  1.8157 -0.2078 -1.1798
10866SOL    HW237446   2.712   0.364   9.733  0.8818 -1.2201  1.0040
10867SOL     OW37447   2.702   8.335   8.782  0.6836 -0.1895 -0.3229
10867SOL    HW137448   2.757   8.324   8.704  0.8624  1.4062 -0.4559
10867SOL    HW237449   2.617   8.363   8.748  0.4919 -0.3669  0.0084
10868SOL     OW37450   2.500   7.540   7.993  0.1673 -0.4492 -0.0633
10868SOL    HW137451   2.458   7.472   7.941 -0.1099  1.1536 -2.0572
10868SOL    HW237452   2.584   7.555   7.950 -1.6574  3.6957 -2.8282
10869SOL     OW37453   1.849   9.208   7.797  0.2813 -0.5436 -0.2210
10869SOL    HW137454   1.915   9.164   7.850  0.5147  0.8460  0.7180
10869SOL    HW237455   1.767   9.195   7.844  0.6644  1.6853  1.2410
10870SOL     OW37456   4.739   6.966   8.071 -0.0767 -0.3501 -0.5374
10870SOL    HW137457   4.666   6.937   8.125  0.4175 -0.7116 -0.0424
10870SOL    HW237458   4.706   7.043   8.024 -0.0826  0.9069  1.4148
10871SOL     OW37459   2.571   9.366   7.133  0.0096  0.0116  0.0469
10871SOL    HW137460   2.604   9.425   7.202 -0.5845 -0.9041  1.1533
10871SOL    HW237461   2.512   9.421   7.081  1.1548  0.9520 -0.3000
10872SOL     OW37462   2.835   6.288   1.914 -0.2602  1.1259  0.2504
10872SOL    HW137463   2.814   6.235   1.991  1.8178  0.6871  0.5810
10872SOL    HW237464   2.795   6.242   1.841  1.7304 -1.1636  0.4830
10873SOL     OW37465   3.625   8.678   9.845 -0.0358  0.2508 -0.4060
10873SOL    HW137466   3.650   8.676   9.753 -0.6036 -1.2766 -0.5501
10873SOL    HW237467   3.693   8.628   9.890 -1.3787 -1.7176 -0.4547
10874SOL     OW37468   3.725   9.447   8.817 -0.2393  0.2019  0.0698
10874SOL    HW137469   3.765   9.386   8.755  1.1799  1.1454  0.0167
10874SOL    HW237470   3.640   9.468   8.779 -0.5675 -1.3502 -0.1455
10875SOL     OW37471   3.063   7.725   7.863  0.6684 -0.0485 -0.3938
10875SOL    HW137472   3.007   7.699   7.791 -0.2345  1.9422 -0.4939
10875SOL    HW237473   3.139   7.765   7.821  0.9824 -0.4956 -0.2515
10876SOL     OW37474   0.965   7.285   8.936  0.7006 -0.0647  0.3978
10876SOL    HW137475   0.990   7.297   9.027  0.2590 -0.9243  0.6467
10876SOL    HW237476   1.024   7.342   8.886  2.3149 -1.0770  1.0537
10877SOL     OW37477   3.670   0.437   8.114  0.0999 -0.1702  0.0185
10877SOL    HW137478   3.750   0.390   8.091 -0.8449 -2.3892  0.9692
10877SOL    HW237479   3.687   0.472   8.202  0.2727  0.0272 -0.0905
10878SOL     OW37480   2.391   8.691   9.725  0.3273 -0.1031 -0.4983
10878SOL    HW137481   2.353   8.631   9.661  0.5142  0.1153 -0.8156
10878SOL    HW237482   2.480   8.658   9.739 -0.2267 -1.0943  0.8502
10879SOL     OW37483   0.298   9.057   0.561 -0.1975 -0.1170 -0.2232
10879SOL    HW137484   0.298   9.152   0.571  1.3850 -0.0425 -0.6445
10879SOL    HW237485   0.277   9.042   0.469  0.9859 -0.0860 -0.5164
10880SOL     OW37486   3.213   7.734   8.537 -0.3414 -0.4991 -0.2362
10880SOL    HW137487   3.263   7.691   8.606 -1.0186  1.3087  1.4875
10880SOL    HW237488   3.277   7.788   8.491 -0.1907 -0.3638  0.1295
10881SOL     OW37489   3.675   9.159   6.956 -0.4258 -0.3545  0.5053
10881SOL    HW137490   3.589   9.146   6.915  0.0778  0.7365 -1.0074
10881SOL    HW237491   3.667   9.244   6.999  0.2974  0.4605 -0.8873
10882SOL     OW37492   3.594   8.271   7.980 -0.0139  0.1505  0.3122
10882SOL    HW137493   3.556   8.251   7.894  1.3059  1.2081 -0.5568
10882SOL    HW237494   3.548   8.351   8.008  2.4889  2.3937 -1.4823
10883SOL     OW37495   3.910   8.255   8.674  0.4046  0.0635  0.6844
10883SOL    HW137496   3.908   8.351   8.669 -2.1852  0.0445 -1.4843
10883SOL    HW237497   3.899   8.226   8.583  0.3236 -2.2793  1.3711
10884SOL     OW37498   3.984   9.236   0.037  0.2871 -0.4371  0.5096
10884SOL    HW137499   4.007   9.233  -0.056  0.3395  1.1641  0.4376
10884SOL    HW237500   3.952   9.148   0.056  2.4278 -1.5206 -0.4387
10885SOL     OW37501   3.458   0.370   9.476  0.3105 -0.3080 -0.0216
10885SOL    HW137502   3.505   0.324   9.407 -0.3255 -2.2653  0.7983
10885SOL    HW237503   3.527   0.398   9.536  0.6515 -0.8252 -0.1650
10886SOL     OW37504   2.066   9.110   7.936 -0.1286 -0.3583 -0.1671
10886SOL    HW137505   2.160   9.116   7.956 -0.4476 -1.1241  1.6705
10886SOL    HW237506   2.056   9.024   7.895  0.1151  0.1653 -1.3724
10887SOL     OW37507   1.902   7.257   7.126 -0.2806  0.0181 -0.0114
10887SOL    HW137508   1.981   7.292   7.168  0.4423 -1.3603 -0.1724
10887SOL    HW237509   1.914   7.162   7.127 -1.2554 -0.1482 -1.3650
10888SOL     OW37510   3.362   8.015   8.672 -0.6389  0.7624 -0.1828
10888SOL    HW137511   3.412   7.933   8.673 -0.9848  0.5003 -1.6382
10888SOL    HW237512   3.379   8.053   8.586 -0.8861  1.9859  0.2808
10889SOL     OW37513   1.588   6.489   8.986 -0.0046  0.1527  0.4000
10889SOL    HW137514   1.662   6.455   8.936 -0.0031  0.0964  0.4409
10889SOL    HW237515   1.615   6.577   9.012 -0.8235  1.0102 -1.4706
10890SOL     OW37516   2.421   6.946   8.032 -0.1226 -0.1927  0.5970
10890SOL    HW137517   2.418   6.860   8.074  1.0309 -0.1671  0.7825
10890SOL    HW237518   2.438   7.007   8.104 -0.4956  0.1323  0.4080
10891SOL     OW37519   2.793   8.487   8.492  0.2638 -0.0845  0.1804
10891SOL    HW137520   2.801   8.561   8.552 -0.6314  0.9405 -0.9127
10891SOL    HW237521   2.870   8.433   8.508  2.7944  2.8204 -1.3070
10892SOL     OW37522   2.415   0.137   7.159  0.3100 -0.1476  0.2921
10892SOL    HW137523   2.437   0.227   7.132  0.9847 -0.2986  0.3163
10892SOL    HW237524   2.328   0.145   7.199 -0.0307  0.3394 -0.5262
10893SOL     OW37525   3.512   0.749   9.629 -0.0233  0.4494 -1.0365
10893SOL    HW137526   3.434   0.697   9.609  0.6908 -0.4494 -1.6000
10893SOL    HW237527   3.565   0.692   9.685  0.1256  1.1461 -0.4538
10894SOL     OW37528   3.050   8.749   8.818  0.3542 -0.3561  0.3685
10894SOL    HW137529   2.970   8.707   8.787 -0.3306 -0.1856  1.8055
10894SOL    HW237530   3.027   8.842   8.827  0.9719 -0.1610 -0.0319
10895SOL     OW37531   3.643   8.085   8.846 -0.4458  0.6343  0.0222
10895SOL    HW137532   3.718   8.106   8.790 -0.8808  0.5251 -0.6126
10895SOL    HW237533   3.566   8.112   8.795 -1.2310 -4.0102 -1.7492
10896SOL     OW37534   2.954   0.983   7.836  0.0709 -0.0764 -0.0443
10896SOL    HW137535   2.926   1.007   7.924 -1.0391 -0.9112 -0.1473
10896SOL    HW237536   2.965   1.066   7.790  1.5634  0.4281  1.1122
10897SOL     OW37537   2.907   4.688   9.287 -0.0629 -0.1264 -0.3474
10897SOL    HW137538   2.866   4.639   9.216 -0.2215  0.0017 -0.3458
10897SOL    HW237539   2.851   4.671   9.363  0.2119 -0.4122 -0.2103
10898SOL     OW37540   3.365   7.162   9.741 -0.0251 -0.5411  0.5255
10898SOL    HW137541   3.312   7.093   9.700 -0.6927  0.9660 -1.2772
10898SOL    HW237542   3.439   7.174   9.682 -1.2711  2.0420 -0.6694
10899SOL     OW37543   1.735   8.431   0.267  0.4478 -0.1088 -0.4122
10899SOL    HW137544   1.816   8.479   0.251 -0.1455  0.6342 -1.3023
10899SOL    HW237545   1.715   8.446   0.359  0.7174  0.6643 -0.4728
10900SOL     OW37546   2.969   8.996   8.829 -0.5322 -0.6302  0.4295
10900SOL    HW137547   2.971   9.086   8.862 -0.9556 -0.6752  0.5868
10900SOL    HW237548   2.899   8.996   8.763  0.5390 -0.4490 -0.7625
10901SOL     OW37549   2.993   8.905   6.628  0.0602  0.4290 -0.1370
10901SOL    HW137550   2.990   8.952   6.711  0.9034  1.1368 -0.4846
10901SOL    HW237551   2.964   8.970   6.563  2.5106  0.9828 -0.8078
10902SOL     OW37552   2.725   7.024   8.582 -0.4226 -0.3420  0.6490
10902SOL    HW137553   2.753   7.098   8.528 -0.1589 -0.7928  0.1550
10902SOL    HW237554   2.737   6.948   8.525  1.9847 -1.1153  2.0367
10903SOL     OW37555   1.648   8.115   8.873  0.1179  0.1972 -0.5097
10903SOL    HW137556   1.616   8.116   8.963 -0.1592 -4.4086 -0.3146
10903SOL    HW237557   1.569   8.120   8.818  0.1503  1.2840 -0.4697
10904SOL     OW37558   3.989   9.285   6.216 -0.2577  0.7615  0.1523
10904SOL    HW137559   3.932   9.297   6.140  1.4435 -0.2976 -1.3800
10904SOL    HW237560   4.070   9.332   6.194  0.6233 -0.3445  0.8534
10905SOL     OW37561   2.962   7.674   7.621  0.4450 -0.1661  0.7323
10905SOL    HW137562   2.871   7.675   7.592  1.1362 -1.8834 -1.8391
10905SOL    HW237563   3.009   7.726   7.555  1.5955 -1.1601  0.7271
10906SOL     OW37564   3.662   8.740   9.053 -0.4935 -0.1554  0.1523
10906SOL    HW137565   3.606   8.817   9.061  0.7233  0.6994  0.7110
10906SOL    HW237566   3.664   8.722   8.959  1.2720  2.1322 -0.3389
10907SOL     OW37567   0.731   8.309   9.433 -0.0679 -0.2301 -0.3240
10907SOL    HW137568   0.654   8.338   9.481  1.0525 -1.7945  2.6863
10907SOL    HW237569   0.757   8.384   9.380 -2.6714  0.8667 -0.1859
10908SOL     OW37570   2.329   9.171   6.380  0.4354  0.0196 -0.4666
10908SOL    HW137571   2.414   9.199   6.346  0.8134  1.3188  1.4273
10908SOL    HW237572   2.346   9.088   6.424  1.1905  1.1739  1.5501
10909SOL     OW37573   1.094   7.912   9.784  0.3424 -0.5422  0.1211
10909SOL    HW137574   1.030   7.981   9.764 -0.6300 -0.6714  2.4852
10909SOL    HW237575   1.179   7.951   9.761 -0.3822  0.4073 -1.1144
10910SOL     OW37576   3.254   0.776   7.540  0.0406  0.2914  0.1870
10910SOL    HW137577   3.199   0.842   7.496  0.0632 -0.7337 -1.4793
10910SOL    HW237578   3.265   0.809   7.629 -1.2897  1.7182 -0.1361
10911SOL     OW37579   2.926   7.066   5.997 -0.0528  0.2645 -0.7284
10911SOL    HW137580   2.973   7.023   5.926  1.1353 -0.0526  0.2086
10911SOL    HW237581   2.974   7.148   6.011  1.4932 -0.9042  1.4782
10912SOL     OW37582   1.732   4.608   0.258 -0.4917 -0.6875  0.0722
10912SOL    HW137583   1.718   4.562   0.340  1.0751 -1.9581 -0.3233
10912SOL    HW237584   1.675   4.684   0.263  0.4764 -0.0309  2.8884
10913SOL     OW37585   2.842   1.420   7.211 -0.1308 -0.0761  0.7312
10913SOL    HW137586   2.780   1.440   7.141  0.2349  1.4842  0.8053
10913SOL    HW237587   2.927   1.414   7.167 -0.2704 -2.1033  0.6454
10914SOL     OW37588   4.821   9.679   0.639  0.2559  0.9814  0.1921
10914SOL    HW137589   4.858   9.747   0.583  1.4832  0.1240 -0.0977
10914SOL    HW237590   4.733   9.663   0.603  1.2502 -0.0441 -2.0122
10915SOL     OW37591   2.135   8.336   9.119  0.4703 -0.0685  0.2297
10915SOL    HW137592   2.141   8.371   9.030  0.7173  1.8539  0.9567
10915SOL    HW237593   2.045   8.356   9.146  0.9272  1.0454  1.0268
10916SOL     OW37594   3.968   9.508   8.064 -0.1950  0.5616  0.2650
10916SOL    HW137595   3.896   9.537   8.009 -0.5497  0.7857  0.8393
10916SOL    HW237596   3.953   9.552   8.148  0.1453 -0.0405  0.6453
10917SOL     OW37597   0.764   8.255   0.140  0.4328  0.0694  0.1318
10917SOL    HW137598   0.710   8.289   0.069  0.1267  4.5456  2.1840
10917SOL    HW237599   0.836   8.210   0.096 -1.6880 -0.7588 -2.8126
10918SOL     OW37600   3.909   8.479   8.861  0.0697 -0.0392 -0.0012
10918SOL    HW137601   3.919   8.441   8.949  1.8821  3.1372  1.3687
10918SOL    HW237602   3.879   8.569   8.877  0.3046  0.5970 -2.6535
10919SOL     OW37603   3.246   7.802   8.189 -0.1123 -0.4067  0.3701
10919SOL    HW137604   3.316   7.867   8.197 -1.4966  1.0602  1.0873
10919SOL    HW237605   3.276   7.743   8.120  2.1271 -0.2311  1.1328
10920SOL     OW37606   1.930   7.054   8.484 -0.3595 -0.6182  0.3229
10920SOL    HW137607   1.922   6.977   8.539 -0.3539 -0.8396  0.0162
10920SOL    HW237608   1.862   7.044   8.417  0.1466 -0.7506 -0.1844
10921SOL     OW37609   3.338   7.820   7.032  0.6907  0.5051  0.0456
10921SOL    HW137610   3.429   7.790   7.031  1.0991  1.6879  0.2542
10921SOL    HW237611   3.334   7.888   6.965 -0.5960 -1.0139 -1.5167
10922SOL     OW37612   3.270   8.419   9.164 -0.0826 -0.2891 -0.0655
10922SOL    HW137613   3.336   8.488   9.172  2.5146 -2.2966 -2.1677
10922SOL    HW237614   3.295   8.354   9.230 -1.7560  0.1208  1.0498
10923SOL     OW37615   2.017   5.385   4.969  0.9058 -0.0341  0.3083
10923SOL    HW137616   2.058   5.349   4.891 -0.6344 -0.9575 -0.1083
10923SOL    HW237617   2.000   5.309   5.025 -1.1941  0.1393 -0.0167
10924SOL     OW37618   1.879   5.922   9.807  0.2625  0.4131 -0.1709
10924SOL    HW137619   1.800   5.908   9.755 -0.3518  3.3904 -0.1883
10924SOL    HW237620   1.928   5.988   9.758  1.7178  0.2147  0.9613
10925SOL     OW37621   1.422   7.737   9.292 -0.2947  0.2144  0.3015
10925SOL    HW137622   1.332   7.710   9.272 -0.0484 -0.1530 -0.3411
10925SOL    HW237623   1.460   7.759   9.207  0.3973 -0.1824  0.5032
10926SOL     OW37624   0.793   8.951   8.466  0.4168 -0.0672 -0.0681
10926SOL    HW137625   0.884   8.920   8.472 -0.0897 -1.7416 -0.4628
10926SOL    HW237626   0.755   8.900   8.394 -0.0449  2.7622 -2.0163
10927SOL     OW37627   3.715   5.720   8.826 -0.1769 -0.2857 -0.2462
10927SOL    HW137628   3.629   5.741   8.790 -1.4224 -0.3350  2.5045
10927SOL    HW237629   3.731   5.787   8.893  0.8148 -1.6496  0.9493
10928SOL     OW37630   0.961   7.291   8.385 -0.2070  0.5118 -0.5727
10928SOL    HW137631   0.868   7.275   8.368 -1.0809  1.7327  2.4053
10928SOL    HW237632   0.979   7.244   8.466  0.9744  2.5211  0.4142
10929SOL     OW37633   4.113   7.073   8.779 -0.3581 -0.2193 -0.3467
10929SOL    HW137634   4.141   7.090   8.689 -0.6751  0.9392 -0.2348
10929SOL    HW237635   4.132   7.154   8.826 -0.0534 -0.8649  0.6794
10930SOL     OW37636   3.485   8.604   9.227 -0.2830  0.2368 -0.2015
10930SOL    HW137637   3.459   8.672   9.289  0.0064  1.6005 -1.5253
10930SOL    HW237638   3.513   8.651   9.149  0.1765 -1.4013 -1.0853
10931SOL     OW37639   1.622   8.104   9.292 -0.5263  0.3099  0.5557
10931SOL    HW137640   1.530   8.077   9.295  0.0936 -1.8802  1.7623
10931SOL    HW237641   1.618   8.199   9.279 -2.9181  0.1272 -0.6666
10932SOL     OW37642   5.715   5.629   8.313  0.2014 -0.0973 -0.0362
10932SOL    HW137643   5.792   5.592   8.357  1.6823  1.5267 -1.1509
10932SOL    HW237644   5.714   5.721   8.339  0.5843  0.6850 -2.5609
10933SOL     OW37645   9.506   9.516   9.115 -0.2121  0.1110 -0.3354
10933SOL    HW137646   9.450   9.589   9.086 -1.0131 -0.2908  0.1684
10933SOL    HW237647   9.524   9.466   9.035  1.3026  1.4657 -0.9074
10934SOL     OW37648   3.458   7.040   7.856 -0.5573  0.1796  0.3337
10934SOL    HW137649   3.407   7.107   7.902 -2.0256 -0.4191 -0.3523
10934SOL    HW237650   3.462   7.071   7.765  1.0770  0.6324  0.5209
10935SOL     OW37651   2.700   0.608   0.883 -0.1928  0.1070 -0.0305
10935SOL    HW137652   2.728   0.521   0.854  0.5968  0.9403 -1.9108
10935SOL    HW237653   2.774   0.642   0.933 -0.7879 -0.5572  1.3466
10936SOL     OW37654   1.325   7.029   9.386 -0.0499 -0.2053 -0.2192
10936SOL    HW137655   1.338   7.052   9.478  1.4656  1.2467 -0.7635
10936SOL    HW237656   1.322   7.112   9.340 -1.2146 -0.8936 -1.4721
10937SOL     OW37657   3.654   7.949   7.454 -0.1947 -0.9198 -0.4051
10937SOL    HW137658   3.699   8.033   7.452 -3.4221  0.9546 -1.7895
10937SOL    HW237659   3.657   7.922   7.546  0.4017  0.9874  0.1691
10938SOL     OW37660   1.795   8.112   7.880 -0.4912  0.5208 -0.6327
10938SOL    HW137661   1.777   8.204   7.900  3.1621  1.3845 -0.4594
10938SOL    HW237662   1.795   8.068   7.965  0.6773  1.0679 -0.3209
10939SOL     OW37663   2.557   9.463   7.736 -0.0037 -0.2537  0.5863
10939SOL    HW137664   2.562   9.548   7.779 -0.9410 -0.5628  1.3364
10939SOL    HW237665   2.474   9.425   7.766 -0.4587 -0.6947 -1.1024
10940SOL     OW37666   3.803   0.845   7.606  0.1015 -0.4275 -0.3099
10940SOL    HW137667   3.853   0.817   7.529 -0.6023  1.3689 -1.4971
10940SOL    HW237668   3.867   0.884   7.664  0.2059  1.7051 -1.7421
10941SOL     OW37669   3.442   1.440   7.416  0.5540 -0.7275 -0.1689
10941SOL    HW137670   3.481   1.360   7.381  0.7365 -0.6439 -0.1592
10941SOL    HW237671   3.517   1.495   7.438  0.4271 -0.3043 -0.7618
10942SOL     OW37672   0.404   9.400   7.401 -0.4037 -0.3622 -0.0291
10942SOL    HW137673   0.349   9.373   7.327  1.1792  0.2317 -1.4808
10942SOL    HW237674   0.391   9.494   7.409 -0.9236 -0.4889  0.7854
10943SOL     OW37675   3.673   9.182   9.217 -0.4760 -0.7554 -0.0799
10943SOL    HW137676   3.719   9.113   9.264  0.9668 -0.2232 -0.6224
10943SOL    HW237677   3.673   9.257   9.277  0.8332 -0.2625 -0.6551
10944SOL     OW37678   2.640   9.000   0.076 -0.3299  0.1923 -0.2696
10944SOL    HW137679   2.721   9.021   0.121 -0.5975  0.5955  0.0323
10944SOL    HW237680   2.617   9.081   0.029 -0.9952  0.3589  0.3262
10945SOL     OW37681   4.661   8.513   6.997  0.3685 -0.1014 -0.1199
10945SOL    HW137682   4.588   8.466   7.036 -0.5975  1.7289  0.3727
10945SOL    HW237683   4.723   8.444   6.971 -0.3835 -1.5519  1.7389
10946SOL     OW37684   3.865   1.520   7.748 -0.0137  0.1742 -0.1480
10946SOL    HW137685   3.937   1.570   7.710  2.0257 -1.2703  1.5352
10946SOL    HW237686   3.793   1.527   7.685  0.6836  3.7949 -0.7221
10947SOL     OW37687   4.732   6.462   7.624 -0.3355 -0.6264 -0.1030
10947SOL    HW137688   4.703   6.474   7.714 -2.2102 -0.2007 -0.7214
10947SOL    HW237689   4.752   6.551   7.593  0.0935 -0.7485 -0.1914
10948SOL     OW37690   2.697   0.320   7.919 -0.4319  0.1591  0.6026
10948SOL    HW137691   2.628   0.273   7.873  0.8629 -0.9585 -0.3088
10948SOL    HW237692   2.775   0.265   7.907  0.8575  1.8862  0.6257
10949SOL     OW37693   3.240   8.783   8.997 -0.4940 -0.0471 -0.5296
10949SOL    HW137694   3.182   8.760   9.069 -2.2359 -1.4029 -2.2371
10949SOL    HW237695   3.187   8.771   8.918  1.5605  0.5121 -2.1152
10950SOL     OW37696   2.306   0.104   1.319  0.1209  0.1161  0.0206
10950SOL    HW137697   2.217   0.087   1.286  0.6053  1.0097 -1.9233
10950SOL    HW237698   2.327   0.192   1.287  1.3992  0.2581  1.1694
10951SOL     OW37699   3.838   8.819   7.011 -0.4918 -0.3779 -0.0168
10951SOL    HW137700   3.823   8.896   6.956 -0.6487 -0.2414  0.2108
10951SOL    HW237701   3.867   8.751   6.951 -4.0950 -1.3510 -0.8850
10952SOL     OW37702   1.847   8.422   6.851  0.0598 -0.3009  0.5684
10952SOL    HW137703   1.919   8.446   6.910  1.3759 -0.4246 -0.9270
10952SOL    HW237704   1.841   8.327   6.857  0.7750 -0.4004 -0.1080
10953SOL     OW37705   2.098   7.623   9.261  0.1212  0.4968  0.3975
10953SOL    HW137706   2.067   7.541   9.221 -0.1472  1.7447 -2.1439
10953SOL    HW237707   2.050   7.630   9.343 -0.8628 -1.2133  0.0065
10954SOL     OW37708   3.625   7.793   9.163  0.3525 -0.0095  0.4337
10954SOL    HW137709   3.604   7.702   9.141 -1.6076  0.4554  0.1880
10954SOL    HW237710   3.628   7.837   9.078  0.5032  0.3140  0.6060
10955SOL     OW37711   1.486   8.115   5.934  0.4034 -0.0204  0.2331
10955SOL    HW137712   1.556   8.055   5.958  0.7167  0.4080  0.4027
10955SOL    HW237713   1.499   8.132   5.841 -0.7943 -1.6588 -0.2788
10956SOL     OW37714   1.502   9.609   7.558  0.5327 -0.1151  0.2777
10956SOL    HW137715   1.498   9.697   7.595  1.5107 -0.4413  1.2160
10956SOL    HW237716   1.590   9.578   7.580  0.1781 -1.3445  0.0154
10957SOL     OW37717   1.611   1.328   8.940  0.4479  0.6600  0.5552
10957SOL    HW137718   1.565   1.248   8.916 -1.5479  1.3961  1.6571
10957SOL    HW237719   1.647   1.361   8.858 -1.3844  0.2511 -0.4640
10958SOL     OW37720   3.117   8.306   8.051 -0.0493  0.2156  0.4310
10958SOL    HW137721   3.196   8.252   8.046 -0.2195 -0.0021  0.0810
10958SOL    HW237722   3.135   8.379   7.992 -0.2156  0.0248  0.1408
10959SOL     OW37723   3.281   1.768   9.235 -0.1889  0.1885 -0.0739
10959SOL    HW137724   3.222   1.810   9.298 -3.0660 -0.3048 -2.2136
10959SOL    HW237725   3.309   1.839   9.177  1.0569  0.3574  0.7188
10960SOL     OW37726   0.651   8.533   8.696  0.1810 -0.5626 -0.3943
10960SOL    HW137727   0.612   8.567   8.615  0.2478 -1.1635 -0.6877
10960SOL    HW237728   0.745   8.534   8.679  0.1298 -2.2526 -0.9876
10961SOL     OW37729   3.123   8.326   8.951  0.7298  0.0400  0.4494
10961SOL    HW137730   3.201   8.371   8.983 -0.3789  0.6093  2.5938
10961SOL    HW237731   3.054   8.349   9.014 -2.1495  2.4235 -3.1361
10962SOL     OW37732   9.826   7.326   9.161  0.5430  0.1870 -0.6260
10962SOL    HW137733   9.850   7.389   9.230  1.7404 -2.1794  1.2606
10962SOL    HW237734   9.738   7.296   9.186 -0.3321  1.5538 -1.9264
10963SOL     OW37735   2.623   9.211   7.412 -0.0650  0.1090 -0.0664
10963SOL    HW137736   2.556   9.277   7.431  0.8869  1.5484 -1.4170
10963SOL    HW237737   2.685   9.256   7.354  1.0331 -1.7672 -0.4348
10964SOL     OW37738   0.827   1.870   8.589  0.2209 -0.0548 -0.1737
10964SOL    HW137739   0.813   1.960   8.619 -2.5828 -0.0316 -1.2235
10964SOL    HW237740   0.757   1.820   8.631  1.2483 -1.6135 -0.2472
10965SOL     OW37741   4.277   7.344   0.538 -0.3750  0.4006  0.1961
10965SOL    HW137742   4.191   7.387   0.535 -0.1238  0.9953 -3.3406
10965SOL    HW237743   4.335   7.404   0.492  1.1201 -1.4987 -0.5206
10966SOL     OW37744   2.666   1.690   0.610  0.2572 -0.4962  0.3774
10966SOL    HW137745   2.732   1.620   0.610 -0.2856 -1.0550 -1.3387
10966SOL    HW237746   2.599   1.660   0.548 -0.4152  1.1630  0.2457
10967SOL     OW37747   1.219   7.314   9.713 -0.4968 -0.1268  0.4825
10967SOL    HW137748   1.152   7.276   9.656 -0.4777 -1.3745  1.2353
10967SOL    HW237749   1.173   7.380   9.764 -0.8217  0.0396 -0.0256
10968SOL     OW37750   3.673   5.003   6.733  0.1453 -0.0386 -0.1166
10968SOL    HW137751   3.645   5.067   6.668  1.0320  0.6666  0.1799
10968SOL    HW237752   3.712   4.932   6.681  2.5153  1.3308 -0.3383
10969SOL     OW37753   3.316   9.830   0.777  0.4205 -0.1547  0.0766
10969SOL    HW137754   3.285   9.779   0.852  0.0892 -0.6004 -0.3502
10969SOL    HW237755   3.411   9.817   0.777  0.4160 -0.1915  0.3877
10970SOL     OW37756   4.227   8.915   9.717  0.9607  0.0748 -0.7438
10970SOL    HW137757   4.239   8.961   9.800  2.4195  0.0153 -0.9066
10970SOL    HW237758   4.304   8.860   9.707  0.6350 -0.2073 -1.9625
10971SOL     OW37759   3.670   9.442   9.686 -0.2281  0.7513 -0.3493
10971SOL    HW137760   3.691   9.518   9.740 -0.8470  0.4348  0.3687
10971SOL    HW237761   3.635   9.478   9.605  1.6489  1.2505 -0.9627
10972SOL     OW37762   1.117   5.945   9.757 -0.0340 -0.0134 -0.7192
10972SOL    HW137763   1.156   6.029   9.783 -0.0418 -0.2725  0.1613
10972SOL    HW237764   1.105   5.898   9.839  0.2526 -1.0027 -1.2327
10973SOL     OW37765   0.346   7.309   8.948  0.0498 -0.4756  0.0705
10973SOL    HW137766   0.392   7.369   8.889 -1.6573 -1.0582 -1.9552
10973SOL    HW237767   0.370   7.222   8.917  0.3331 -0.8369  1.2542
10974SOL     OW37768   2.621   0.022   7.314  0.2579  0.4769  0.7470
10974SOL    HW137769   2.620   0.085   7.386  1.0714 -0.6762  1.8045
10974SOL    HW237770   2.533   0.028   7.276 -0.5551  0.3348  2.5397
10975SOL     OW37771   3.653   7.482   0.567  0.2341  0.0086 -0.7755
10975SOL    HW137772   3.607   7.565   0.554 -0.0548 -0.2655 -1.5557
10975SOL    HW237773   3.589   7.424   0.608  0.8196  0.5419  0.9641
10976SOL     OW37774   0.743   8.145   1.219 -0.1732  0.1931  0.0402
10976SOL    HW137775   0.816   8.149   1.157 -0.8620 -1.2629 -0.9058
10976SOL    HW237776   0.665   8.147   1.164 -0.8014 -0.6767  0.8767
10977SOL     OW37777   3.986   7.767   0.557 -0.4477 -0.1080  0.1167
10977SOL    HW137778   4.016   7.826   0.626  0.5026 -1.5593  0.9953
10977SOL    HW237779   3.897   7.798   0.536 -0.3029  1.0835  1.1465
10978SOL     OW37780   0.471   6.958   0.343 -0.0835 -0.1956 -0.1955
10978SOL    HW137781   0.424   7.025   0.393 -1.9928 -0.3340 -1.6734
10978SOL    HW237782   0.493   6.891   0.407 -0.8617  0.4568  0.7796
10979SOL     OW37783   3.939   9.439   0.997 -0.0092 -0.2316 -0.1074
10979SOL    HW137784   3.877   9.511   1.006  1.3397  0.9201  0.3149
10979SOL    HW237785   3.899   9.367   1.046 -0.9614  0.4998  0.2293
10980SOL     OW37786   3.000   9.255   7.488 -0.1886 -0.5677  0.3466
10980SOL    HW137787   2.936   9.303   7.541 -0.1461 -0.3987  0.2469
10980SOL    HW237788   2.966   9.166   7.484  0.3048 -0.8271  1.4871
10981SOL     OW37789   1.820   1.534   8.357 -0.2677 -0.3389  0.2730
10981SOL    HW137790   1.799   1.568   8.270 -0.7515  0.5102  0.7060
10981SOL    HW237791   1.748   1.565   8.412  1.0070  0.7604  1.3721
10982SOL     OW37792   2.686   7.443   1.078  0.4272  0.0937  0.1617
10982SOL    HW137793   2.606   7.414   1.034  0.9290  0.9628 -1.4214
10982SOL    HW237794   2.671   7.536   1.096 -0.2111 -0.4620  2.9589
10983SOL     OW37795   3.911   8.054   9.609 -0.0628  0.1248 -0.1863
10983SOL    HW137796   3.828   8.097   9.588 -0.1744 -0.4004 -0.8631
10983SOL    HW237797   3.960   8.120   9.658 -1.5722 -0.1355  1.8156
10984SOL     OW37798   3.904   7.242   8.998  0.0475  0.3065 -0.1762
10984SOL    HW137799   3.884   7.148   9.002  0.6706  0.1905  0.3603
10984SOL    HW237800   3.999   7.245   8.985 -0.1517  0.8510 -1.7187
10985SOL     OW37801   2.343   7.354   7.838  0.0921  0.1403 -0.9362
10985SOL    HW137802   2.321   7.266   7.807 -0.7092  0.0134 -0.0773
10985SOL    HW237803   2.267   7.408   7.812 -0.4974  0.0717  0.5582
10986SOL     OW37804   3.339   8.570   8.474  0.1995 -0.1637  0.1430
10986SOL    HW137805   3.263   8.594   8.420 -0.3703 -0.3196  0.8598
10986SOL    HW237806   3.302   8.515   8.543  0.7844  0.7204  1.1806
10987SOL     OW37807   2.050   6.121   9.604 -0.0976  0.4094 -0.3381
10987SOL    HW137808   1.985   6.190   9.589 -1.5833 -0.8255  0.1330
10987SOL    HW237809   2.055   6.075   9.520  1.0995  1.2101 -0.7369
10988SOL     OW37810   1.914   9.524   8.546 -0.0177 -0.2434  0.5548
10988SOL    HW137811   1.886   9.446   8.498 -0.2943  0.9683 -1.3374
10988SOL    HW237812   1.839   9.583   8.540  0.0886  0.0911  2.2088
10989SOL     OW37813   2.213   7.680   0.230 -0.3637  0.0483 -0.4897
10989SOL    HW137814   2.189   7.588   0.241 -0.0113  0.0414  0.3268
10989SOL    HW237815   2.148   7.728   0.281 -2.4639  0.5332 -3.3706
10990SOL     OW37816   4.383   9.028   8.414  0.1118 -0.1566 -0.1078
10990SOL    HW137817   4.385   9.078   8.496  0.8975 -0.9545  0.3806
10990SOL    HW237818   4.314   9.069   8.363 -1.0294 -0.1959  1.3167
10991SOL     OW37819   1.728   0.390   9.487  0.1710 -0.4131  0.0599
10991SOL    HW137820   1.691   0.457   9.544 -0.3027 -1.0918  0.5669
10991SOL    HW237821   1.699   0.415   9.399 -0.0965 -0.0157  0.2557
10992SOL     OW37822   0.922   0.498   8.780 -0.1638 -0.3753 -0.3504
10992SOL    HW137823   0.899   0.450   8.701 -1.0244 -1.1006  0.3187
10992SOL    HW237824   0.897   0.440   8.852 -1.2185  1.0392  0.4877
10993SOL     OW37825   3.774   7.849   8.925  0.5197 -0.5906 -0.2330
10993SOL    HW137826   3.842   7.895   8.974  1.8136 -3.1712  0.6200
10993SOL    HW237827   3.748   7.910   8.857 -0.2062  2.5569  2.6094
10994SOL     OW37828   3.088   7.207   9.439 -0.6811  0.0081 -0.5342
10994SOL    HW137829   3.120   7.122   9.410  0.8363  0.5913 -0.6814
10994SOL    HW237830   3.027   7.188   9.510  0.5674 -1.1541  0.2599
10995SOL     OW37831   3.128   8.247   9.653  0.1143 -0.2083  0.0707
10995SOL    HW137832   3.220   8.268   9.664 -0.1914  0.2331  2.2958
10995SOL    HW237833   3.087   8.275   9.735 -2.2380  0.8106 -1.3484
10996SOL     OW37834   4.058   9.410   0.404 -0.2643  0.0733 -0.1149
10996SOL    HW137835   3.977   9.363   0.382 -2.7947  3.6712  0.6780
10996SOL    HW237836   4.102   9.351   0.467 -2.7950 -1.5971  0.2684
10997SOL     OW37837   3.070   7.988   0.023 -0.2761  0.8191 -0.0616
10997SOL    HW137838   3.033   8.056   0.080 -2.5522  1.3706 -2.0390
10997SOL    HW237839   2.999   7.925   0.011  1.2920 -1.1471  0.4502
10998SOL     OW37840   2.092   6.795   9.274  0.0859 -0.1850 -0.7372
10998SOL    HW137841   2.043   6.754   9.345 -0.8047 -0.3258 -1.4094
10998SOL    HW237842   2.033   6.790   9.199  1.1587 -0.3955 -1.5877
10999SOL     OW37843   2.988   9.010   0.512 -0.2090 -0.1818 -0.3067
10999SOL    HW137844   2.986   9.076   0.443 -0.4672  0.8650  0.6735
10999SOL    HW237845   2.931   9.045   0.580 -0.0127 -1.2240  0.4150
11000SOL     OW37846   2.287   5.316   0.689 -0.1588 -0.1944  0.2302
11000SOL    HW137847   2.380   5.309   0.714  0.1748 -0.6251 -1.0505
11000SOL    HW237848   2.263   5.228   0.663 -0.5370  0.1898 -0.7541
11001SOL     OW37849   1.707   5.500   0.485 -0.1598  0.1726 -0.1109
11001SOL    HW137850   1.714   5.465   0.396 -1.0695  0.3478 -0.2567
11001SOL    HW237851   1.636   5.563   0.481  0.6940  1.2150  0.4213
11002SOL     OW37852   4.009   7.941   9.065 -0.3153  0.2174 -0.1043
11002SOL    HW137853   3.975   8.017   9.018 -2.6328  0.3030  1.5452
11002SOL    HW237854   4.095   7.925   9.026  0.5033  3.9440 -0.1942
11003SOL     OW37855   8.994   8.147   9.602  0.1803  0.6046  0.5620
11003SOL    HW137856   9.026   8.160   9.691  0.1393  2.0669  0.3905
11003SOL    HW237857   9.056   8.086   9.562 -0.3992 -0.8959  1.8940
11004SOL     OW37858   0.960   0.764   8.816 -0.4665 -0.6139 -0.2169
11004SOL    HW137859   0.945   0.681   8.770 -1.4939 -0.4451 -0.2140
11004SOL    HW237860   0.953   0.741   8.909 -0.0108 -0.6593 -0.1942
11005SOL     OW37861   2.554   7.961   8.909  0.0480  0.0168 -0.4264
11005SOL    HW137862   2.587   7.885   8.956  0.4690  0.6516  0.3329
11005SOL    HW237863   2.549   7.933   8.818  0.5902 -0.7847 -0.2178
11006SOL     OW37864   1.948   8.132   9.171 -0.3443  0.5160 -0.6363
11006SOL    HW137865   1.910   8.195   9.232  1.3954  1.2792 -0.2810
11006SOL    HW237866   1.893   8.054   9.179 -1.1997  1.2200  0.5696
11007SOL     OW37867   3.858   8.057   7.709 -0.0861 -0.4690 -0.5773
11007SOL    HW137868   3.835   7.971   7.743  1.8752 -1.0872 -0.7232
11007SOL    HW237869   3.903   8.101   7.782 -0.9749  0.4210 -0.5369
11008SOL     OW37870   2.740   9.557   8.735  0.0344 -0.1288 -0.2349
11008SOL    HW137871   2.816   9.548   8.677 -1.4046 -1.7093 -2.0193
11008SOL    HW237872   2.730   9.470   8.774 -0.1154  0.4320  1.0222
11009SOL     OW37873   2.731   9.055   8.114  0.6124 -0.2288  0.1561
11009SOL    HW137874   2.818   9.068   8.152  1.1210 -2.7284 -0.0060
11009SOL    HW237875   2.700   8.973   8.151 -1.3835  0.2168 -0.3908
11010SOL     OW37876   2.478   0.553   7.897  0.2287  0.5246  0.2919
11010SOL    HW137877   2.516   0.575   7.812  0.0365  0.8791  0.2953
11010SOL    HW237878   2.387   0.583   7.891 -0.1437 -0.5766  0.1844
11011SOL     OW37879   1.035   7.785   1.540 -0.7986  0.2325 -0.5468
11011SOL    HW137880   0.965   7.721   1.554  1.7089 -2.6709 -0.2805
11011SOL    HW237881   1.047   7.787   1.445  0.1271 -0.9433 -0.4749
11012SOL     OW37882   3.640   7.725   0.023 -0.5395  0.0279  0.3076
11012SOL    HW137883   3.626   7.816  -0.006  1.1402 -0.5662 -2.7839
11012SOL    HW237884   3.700   7.732   0.096 -1.6722  1.4471  1.1606
11013SOL     OW37885   3.778   7.555   6.807  0.4360  0.3601 -0.2320
11013SOL    HW137886   3.866   7.530   6.777 -0.3300 -0.7905 -1.6442
11013SOL    HW237887   3.760   7.637   6.762  0.3799  0.0408 -0.8066
11014SOL     OW37888   3.079   8.241   0.296 -0.0647 -0.3936  0.2765
11014SOL    HW137889   2.988   8.267   0.305 -0.3652 -1.3973  0.2817
11014SOL    HW237890   3.095   8.180   0.368  0.3182 -0.9572 -0.2592
11015SOL     OW37891   3.348   8.559   8.879 -0.1404  0.2229  0.6255
11015SOL    HW137892   3.439   8.583   8.863 -0.6072  1.6015 -0.1896
11015SOL    HW237893   3.309   8.637   8.919 -1.6894  0.8761 -1.9349
11016SOL     OW37894   1.605   6.842   7.685 -0.1927  0.0882 -0.2279
11016SOL    HW137895   1.524   6.878   7.649  0.9602  0.7397 -2.3280
11016SOL    HW237896   1.654   6.919   7.713  0.3750 -0.1890 -0.4560
11017SOL     OW37897   2.931   5.950   9.606 -0.6871  0.2701 -0.0979
11017SOL    HW137898   2.917   5.870   9.657  1.6149 -0.3096 -0.2698
11017SOL    HW237899   2.901   5.929   9.518  0.0451 -0.4714 -0.1755
11018SOL     OW37900   3.987   8.289   9.738 -0.2728  0.4996  0.6900
11018SOL    HW137901   3.939   8.314   9.658  1.4595 -1.1836 -0.9978
11018SOL    HW237902   4.044   8.364   9.755  1.3656 -0.1470 -1.4189
11019SOL     OW37903   2.241   9.600   8.363 -0.5706  0.3593  0.3656
11019SOL    HW137904   2.181   9.674   8.375 -0.3490  0.2127  2.8937
11019SOL    HW237905   2.305   9.610   8.433 -0.0514 -1.7859  0.2464
11020SOL     OW37906   2.264   7.468   0.861  0.0742  0.1246 -0.1599
11020SOL    HW137907   2.182   7.434   0.897 -0.4642  1.2001 -0.3274
11020SOL    HW237908   2.253   7.563   0.862  1.8934  0.3706  1.1619
11021SOL     OW37909   3.561   6.959   9.387 -0.1499 -0.5319 -0.8110
11021SOL    HW137910   3.635   6.923   9.437  1.4129  0.3978 -2.3632
11021SOL    HW237911   3.488   6.901   9.409 -0.3719  1.2195  4.5931
11022SOL     OW37912   3.578   8.099   0.864  0.4629 -0.5086  0.0605
11022SOL    HW137913   3.501   8.137   0.823  0.7051  0.0340  0.0962
11022SOL    HW237914   3.551   8.010   0.889 -0.1921 -0.2783  0.1970
11023SOL     OW37915   1.328   6.423   0.491 -0.4134 -0.4960 -0.0189
11023SOL    HW137916   1.364   6.488   0.551  1.7740 -0.2057 -1.5386
11023SOL    HW237917   1.279   6.474   0.426 -0.2722 -0.5440 -0.1632
11024SOL     OW37918   1.578   8.859   1.154  0.0001 -0.7260 -0.1431
11024SOL    HW137919   1.559   8.940   1.105  1.2212 -0.0828  0.3971
11024SOL    HW237920   1.643   8.814   1.102 -0.0049 -0.9059  0.0054
11025SOL     OW37921   2.423   7.384   9.531  0.4774  0.1403 -0.1781
11025SOL    HW137922   2.376   7.426   9.460  1.4028  1.7895  0.1299
11025SOL    HW237923   2.485   7.450   9.562  1.7989 -1.3496  0.5587
11026SOL     OW37924   0.667   8.068   8.438 -0.2508 -0.9841  0.1230
11026SOL    HW137925   0.631   8.123   8.508  1.3644 -0.4543  0.5647
11026SOL    HW237926   0.758   8.054   8.462  0.5360 -0.2906 -2.1891
11027SOL     OW37927   3.514   9.012   9.481 -0.0206 -0.0914  0.1050
11027SOL    HW137928   3.441   9.054   9.436  1.5968  2.4919 -0.3206
11027SOL    HW237929   3.535   9.071   9.554  0.1694 -1.9939  1.6647
11028SOL     OW37930   0.796   0.203   0.996  0.0139  1.0088 -0.2916
11028SOL    HW137931   0.742   0.165   1.065 -0.0373 -0.7617 -1.2496
11028SOL    HW237932   0.755   0.288   0.978  0.2362  1.6795  2.0400
11029SOL     OW37933   2.402   8.479   9.539 -0.1286 -0.1299  0.5279
11029SOL    HW137934   2.387   8.470   9.445 -1.0687  1.3491  0.4949
11029SOL    HW237935   2.371   8.397   9.577  1.0554 -1.1021 -0.4976
11030SOL     OW37936   4.335   1.575   9.210 -0.6187 -0.0875 -0.5770
11030SOL    HW137937   4.351   1.657   9.164 -2.1699  0.5526 -0.0516
11030SOL    HW237938   4.386   1.510   9.162  1.3530  1.2997 -0.4748
11031SOL     OW37939   3.143   0.450   0.900 -0.0672 -0.2211 -0.0623
11031SOL    HW137940   3.093   0.525   0.933  0.4217 -0.9232  2.4829
11031SOL    HW237941   3.086   0.375   0.913  0.5434 -0.6610  0.1109
11032SOL     OW37942   4.381   0.770   9.475  0.1701  0.1452  0.5126
11032SOL    HW137943   4.400   0.863   9.491 -0.4279  0.0969  1.6097
11032SOL    HW237944   4.286   0.764   9.478 -0.0539  0.0175 -2.7686
11033SOL     OW37945   3.283   8.429   0.415  0.0292  0.2787  0.5763
11033SOL    HW137946   3.279   8.336   0.437 -0.5575  0.3762  0.9150
11033SOL    HW237947   3.230   8.472   0.482 -2.0195  0.5573 -1.1161
11034SOL     OW37948   2.084   1.490   9.304 -0.0340 -0.0918  0.6423
11034SOL    HW137949   2.003   1.461   9.261  0.5274 -1.4799  0.4694
11034SOL    HW237950   2.080   1.585   9.299 -0.2350 -0.1572 -2.1138
11035SOL     OW37951   2.652   9.296   0.981  0.0442 -0.1466  0.7007
11035SOL    HW137952   2.725   9.327   0.927  0.7253 -0.9545  1.1369
11035SOL    HW237953   2.597   9.245   0.922 -0.1131  0.3722  0.3951
11036SOL     OW37954   1.334   9.180   9.681  0.5070 -0.1184 -0.2253
11036SOL    HW137955   1.376   9.237   9.615  0.4417  1.3797  0.9652
11036SOL    HW237956   1.254   9.226   9.704  0.1302 -1.0353  0.3319
11037SOL     OW37957   3.999   9.507   0.091 -0.0455 -0.0812  0.7198
11037SOL    HW137958   3.991   9.414   0.068 -0.5139 -0.1439  1.1270
11037SOL    HW237959   3.985   9.510   0.185  0.2203  0.3788  0.7486
11038SOL     OW37960   3.861   7.621   3.108  0.4811  0.2809 -0.2957
11038SOL    HW137961   3.892   7.712   3.103 -0.5276  0.9370  2.9591
11038SOL    HW237962   3.770   7.629   3.137  0.6523 -1.7984  0.9412
11039SOL     OW37963   3.040   9.193   0.780  0.6720 -0.3465  0.1987
11039SOL    HW137964   3.057   9.226   0.692  1.0018 -0.8429  0.0713
11039SOL    HW237965   2.946   9.177   0.781  0.6125 -0.0247  0.0486
11040SOL     OW37966   2.797   8.170   1.484  0.6167  0.4445 -0.0795
11040SOL    HW137967   2.781   8.146   1.392 -1.2300  1.1878  0.0093
11040SOL    HW237968   2.832   8.259   1.480  3.3574 -0.5406 -0.1657
11041SOL     OW37969   3.498   9.014   3.753 -0.5650  0.1255 -0.1389
11041SOL    HW137970   3.577   9.034   3.804 -0.4240 -1.8149  0.4891
11041SOL    HW237971   3.435   9.080   3.781  0.7810  1.7067 -0.6309
11042SOL     OW37972   3.014   9.600   1.174  0.3502  0.1759 -0.2636
11042SOL    HW137973   3.058   9.660   1.234  1.6503  1.1899 -2.1170
11042SOL    HW237974   3.028   9.513   1.212  1.6747  0.7231  0.5856
11043SOL     OW37975   2.747   8.489   0.835  0.1194  0.3077 -0.5642
11043SOL    HW137976   2.777   8.564   0.886  0.0301  0.3419 -0.5621
11043SOL    HW237977   2.715   8.527   0.753 -1.5118  0.4559  0.1008
11044SOL     OW37978   2.821   8.392   0.356  0.0014  0.8080  0.2582
11044SOL    HW137979   2.845   8.367   0.446  0.8106 -1.4999 -0.5166
11044SOL    HW237980   2.727   8.375   0.350  0.1820 -0.2604  0.3244
11045SOL     OW37981   4.691   0.902   9.117 -0.2124 -0.0858 -0.1713
11045SOL    HW137982   4.652   0.952   9.045 -0.8780  0.6858  0.7106
11045SOL    HW237983   4.623   0.841   9.144  0.6916 -1.7386 -1.4318
11046SOL     OW37984   1.809   0.310   0.034 -0.5580 -0.1601 -0.5097
11046SOL    HW137985   1.901   0.322   0.009  0.5015 -0.7372  2.7158
11046SOL    HW237986   1.781   0.396   0.066 -1.6964  0.4020 -2.7688
11047SOL     OW37987   3.594   9.402   1.028 -0.0915 -0.1449  0.4101
11047SOL    HW137988   3.508   9.382   1.066 -1.6353 -1.3244 -3.2314
11047SOL    HW237989   3.601   9.497   1.035 -1.6418 -0.0259  0.9006
11048SOL     OW37990   1.333   0.168   1.747 -0.4289 -0.1532 -0.1089
11048SOL    HW137991   1.399   0.110   1.709  0.4457 -0.7024  2.1244
11048SOL    HW237992   1.382   0.247   1.770 -1.3745  1.0641 -1.9887
11049SOL     OW37993   1.317   0.136   2.412  0.4615 -0.2093 -0.3467
11049SOL    HW137994   1.257   0.200   2.452 -0.9487 -1.3617 -0.5497
11049SOL    HW237995   1.401   0.181   2.410 -0.1602  1.1016  0.8787
11050SOL     OW37996   3.139   0.065   1.582  0.5323  0.2477 -0.1046
11050SOL    HW137997   3.174   0.119   1.652  3.1648 -1.4545  0.0422
11050SOL    HW237998   3.070   0.013   1.623 -0.4367  1.7572  0.2763
11051SOL     OW37999   0.196   9.477   2.649 -0.1865 -0.3323 -0.1022
11051SOL    HW138000   0.287   9.486   2.680 -0.3339 -1.0945  0.5610
11051SOL    HW238001   0.187   9.547   2.584  0.8313 -0.1517 -0.0716
11052SOL     OW38002   3.601   9.714   0.808  0.7030  0.0589 -0.1707
11052SOL    HW138003   3.591   9.688   0.900  1.3685  2.3455  0.6215
11052SOL    HW238004   3.688   9.752   0.804  0.2940  0.9073 -1.5033
11053SOL     OW38005   4.417   9.571   0.090 -0.4220  0.5360 -0.4533
11053SOL    HW138006   4.478   9.536   0.025  0.7601  0.2566  0.7646
11053SOL    HW238007   4.383   9.494   0.135  1.1932  0.7947  1.3552
11054SOL     OW38008   1.975   8.064   1.881 -0.2935  0.3019 -0.5115
11054SOL    HW138009   1.919   8.072   1.803 -0.1934  1.3900 -0.4950
11054SOL    HW238010   1.946   8.135   1.938 -1.5137 -1.4963  1.2229
11055SOL     OW38011   0.868   9.606   2.168  0.0507  0.4092 -0.3242
11055SOL    HW138012   0.818   9.604   2.087 -0.6921  0.6773  0.1127
11055SOL    HW238013   0.903   9.517   2.177 -1.7696 -0.2994  0.2077
11056SOL     OW38014   2.494   0.356   0.934 -0.3857 -0.3164  0.4278
11056SOL    HW138015   2.584   0.363   0.902 -0.6920  1.5939 -0.1340
11056SOL    HW238016   2.444   0.321   0.860 -0.3154 -0.2100  0.3302
11057SOL     OW38017   5.404   1.425   0.854 -0.1836 -0.3772  0.2846
11057SOL    HW138018   5.351   1.387   0.924  0.6040  0.5167  1.4062
11057SOL    HW238019   5.377   1.517   0.852 -0.2419 -0.4056 -0.6515
11058SOL     OW38020   4.287   2.118   8.214 -0.5204  0.3030 -0.0645
11058SOL    HW138021   4.210   2.165   8.183 -0.4156  0.8015  0.4239
11058SOL    HW238022   4.276   2.113   8.309  0.2992  0.8290  0.0686
11059SOL     OW38023   5.639   7.378   2.058  0.3786  0.1803  0.3118
11059SOL    HW138024   5.710   7.435   2.030 -0.1408  0.4893 -0.4072
11059SOL    HW238025   5.613   7.331   1.979  1.4198 -1.7789  1.0704
11060SOL     OW38026   0.142   0.344   9.216  0.0534  0.5673  0.8716
11060SOL    HW138027   0.068   0.310   9.165  0.3476  0.0685  0.7685
11060SOL    HW238028   0.120   0.325   9.307  0.3639 -0.2039  0.7913
11061SOL     OW38029   3.392   1.019   9.506  0.0914  0.2053  0.1656
11061SOL    HW138030   3.450   1.096   9.499  1.0852 -0.5004  0.4268
11061SOL    HW238031   3.451   0.947   9.527 -0.7013 -0.8259 -1.0004
11062SOL     OW38032   6.227   9.358   1.424 -0.4319  0.3512 -0.4720
11062SOL    HW138033   6.157   9.295   1.441 -1.3378  1.4754  0.1543
11062SOL    HW238034   6.273   9.366   1.508 -0.1503  0.3298 -0.6225
11063SOL     OW38035   3.751   9.642   0.007 -0.4766 -0.1430  0.5713
11063SOL    HW138036   3.830   9.609   0.050 -1.7313 -0.5155  2.7721
11063SOL    HW238037   3.783   9.706  -0.056  1.6782 -1.6772 -0.0127
11064SOL     OW38038   1.703   7.526   2.050 -0.0091  0.0771 -0.1461
11064SOL    HW138039   1.631   7.584   2.023 -1.3915  0.3849  3.5489
11064SOL    HW238040   1.782   7.577   2.034 -0.8542  1.1317 -1.1649
11065SOL     OW38041   1.663   9.676   2.811 -0.2833  0.0956  0.6232
11065SOL    HW138042   1.713   9.635   2.881  1.5058 -0.5708 -0.9484
11065SOL    HW238043   1.699   9.764   2.802 -0.3367  0.0948  0.3799
11066SOL     OW38044   2.955   9.085   8.532  0.2722  0.1501  0.2630
11066SOL    HW138045   2.993   9.154   8.585  1.4497 -0.3228  0.0690
11066SOL    HW238046   2.880   9.054   8.582 -1.1988  2.5150 -0.3115
11067SOL     OW38047   3.621   1.790   0.602 -0.0056  0.3276 -0.2123
11067SOL    HW138048   3.670   1.872   0.612 -0.8855  0.8086  0.3147
11067SOL    HW238049   3.573   1.802   0.520  0.7329 -0.1425 -0.7280
11068SOL     OW38050   3.754   9.455   0.262  0.3416 -0.4152  0.0626
11068SOL    HW138051   3.746   9.363   0.289  1.2288 -0.5634 -0.1388
11068SOL    HW238052   3.688   9.465   0.194 -0.5731 -0.5728  0.9076
11069SOL     OW38053   1.078   8.392   2.063 -0.0603  0.4063 -0.1180
11069SOL    HW138054   0.998   8.338   2.061 -0.6038  1.1410  1.0364
11069SOL    HW238055   1.075   8.437   2.147  2.1506 -0.3845  0.4505
11070SOL     OW38056   5.512   1.570   1.411  1.1579 -0.0282  0.3861
11070SOL    HW138057   5.440   1.522   1.453  1.0064  1.5118  2.0267
11070SOL    HW238058   5.590   1.539   1.455  1.1540  0.5215  0.7938
11071SOL     OW38059   6.125   8.884   4.433 -0.7701 -0.0725 -0.5057
11071SOL    HW138060   6.144   8.954   4.496 -1.2996  0.9552 -1.4661
11071SOL    HW238061   6.130   8.804   4.485  0.3103  0.6325  0.5159
11072SOL     OW38062   3.655   9.351   2.103  0.0375  0.1618  0.7501
11072SOL    HW138063   3.646   9.341   2.009  1.7065 -0.0086  0.5825
11072SOL    HW238064   3.676   9.444   2.115 -0.0458  0.1565  0.9345
11073SOL     OW38065   2.106   1.098   3.042 -0.1968 -0.0261  0.2321
11073SOL    HW138066   2.114   1.120   3.135  2.5182  1.3965 -0.2269
11073SOL    HW238067   2.197   1.085   3.013 -1.0631 -2.1144 -1.8736
11074SOL     OW38068   1.958   9.207   2.922 -0.2221 -0.2319  0.0755
11074SOL    HW138069   1.952   9.140   2.991  1.6106 -0.2105  0.2975
11074SOL    HW238070   1.869   9.242   2.915 -0.4600 -0.1557  2.5325
11075SOL     OW38071   1.679   8.514   0.887  0.4710  0.2135  0.0618
11075SOL    HW138072   1.632   8.445   0.840 -1.1841  0.6209  1.0315
11075SOL    HW238073   1.738   8.551   0.821 -1.2337  0.2772 -1.5388
11076SOL     OW38074   2.553   1.757   1.055  0.5166 -0.0394  0.1940
11076SOL    HW138075   2.521   1.678   1.011  1.7098 -0.2486 -0.3333
11076SOL    HW238076   2.561   1.822   0.985  1.4095 -0.0513  0.2703
11077SOL     OW38077   1.443   8.714   0.838 -0.2583  0.0328  0.1194
11077SOL    HW138078   1.441   8.791   0.895 -0.8337 -0.1994  0.4218
11077SOL    HW238079   1.531   8.715   0.800  0.4226 -0.2378  1.5988
11078SOL     OW38080   3.788   0.768   1.524  0.2448  0.2835  0.4428
11078SOL    HW138081   3.709   0.734   1.482  0.3653 -0.9801  1.1717
11078SOL    HW238082   3.756   0.818   1.599  0.1233 -0.4214  0.8727
11079SOL     OW38083   1.702   0.002   9.282  0.1913 -0.5167 -0.3980
11079SOL    HW138084   1.764   0.001   9.355  0.7110 -0.7477 -0.8336
11079SOL    HW238085   1.748  -0.044   9.212 -0.1906 -0.0475 -0.9612
11080SOL     OW38086   2.213   8.777   1.578  0.0796 -0.0216  0.1738
11080SOL    HW138087   2.306   8.775   1.558  0.4767  1.3144  1.6620
11080SOL    HW238088   2.170   8.741   1.500  1.8181 -0.5539 -0.5720
11081SOL     OW38089   1.198   0.003   8.921  0.2853  0.0299 -0.5417
11081SOL    HW138090   1.279  -0.033   8.958  0.3028  1.7483  1.3201
11081SOL    HW238091   1.135  -0.001   8.993  0.1836  3.1591 -0.3095
11082SOL     OW38092   1.144   0.269   1.080 -0.3150  0.1619 -0.2721
11082SOL    HW138093   1.213   0.328   1.049 -0.0983 -0.7572 -1.6072
11082SOL    HW238094   1.086   0.326   1.131  0.5168  1.2897 -0.5333
11083SOL     OW38095   2.924   0.765   3.431 -0.0704  0.2945 -0.6955
11083SOL    HW138096   2.986   0.695   3.452 -0.7372 -0.0023  0.3687
11083SOL    HW238097   2.847   0.719   3.397 -1.5888  0.1945  2.5188
11084SOL     OW38098   5.465   9.386   1.839  0.3573 -0.3273 -0.0096
11084SOL    HW138099   5.517   9.433   1.774 -0.1556  0.7734  0.3648
11084SOL    HW238100   5.391   9.443   1.857 -0.5845 -1.5377  0.0397
11085SOL     OW38101   3.081   9.520   9.601 -0.2185 -0.1925 -0.0843
11085SOL    HW138102   3.124   9.597   9.564  3.9164 -1.7408  0.9838
11085SOL    HW238103   3.047   9.473   9.525 -0.1450  1.1676 -1.0044
11086SOL     OW38104   4.056   2.017   0.999 -0.1775  0.2926  0.3807
11086SOL    HW138105   4.118   2.090   1.005  1.4324 -0.7628 -1.8446
11086SOL    HW238106   4.061   1.974   1.084  0.3585  1.6181  1.0428
11087SOL     OW38107   2.491   2.118   9.595  0.3887  0.6998 -0.3720
11087SOL    HW138108   2.447   2.082   9.673 -0.1704  0.0890 -0.9531
11087SOL    HW238109   2.512   2.041   9.542 -1.0628  1.2046 -1.7673
11088SOL     OW38110   2.701   8.105   1.226  0.3447  0.1612 -0.0329
11088SOL    HW138111   2.704   8.195   1.193 -0.0576  1.4937  3.2081
11088SOL    HW238112   2.619   8.070   1.190 -0.7760  1.9787  0.6105
11089SOL     OW38113   2.839   7.898   1.125  0.1528  0.1324  0.7917
11089SOL    HW138114   2.922   7.943   1.110  1.2121 -1.0208  2.7819
11089SOL    HW238115   2.791   7.954   1.185 -0.1089  0.3169  0.4186
11090SOL     OW38116   4.823   9.698   0.315 -0.3708  0.0349  0.1120
11090SOL    HW138117   4.866   9.764   0.370 -0.4572  0.4123 -0.2663
11090SOL    HW238118   4.841   9.727   0.226  1.3299 -1.5527 -0.1140
11091SOL     OW38119   3.267   8.925   2.604  0.7285 -0.1622 -0.4932
11091SOL    HW138120   3.263   9.014   2.639  1.1916  1.4659 -4.1036
11091SOL    HW238121   3.224   8.931   2.519  4.5216 -2.2721 -2.8491
11092SOL     OW38122   5.041   6.080   0.817  0.1401 -0.3353  0.2833
11092SOL    HW138123   4.946   6.076   0.811  0.1059 -1.4518  1.2725
11092SOL    HW238124   5.072   6.011   0.757  0.2898 -0.6947  0.7734
11093SOL     OW38125   1.636   9.296   2.988 -0.1074 -0.0138 -0.5586
11093SOL    HW138126   1.554   9.315   3.033 -0.6496 -0.1107 -1.4762
11093SOL    HW238127   1.660   9.208   3.018 -0.0169  0.2463  0.1602
11094SOL     OW38128   3.375   7.492   1.951 -0.7070  0.4294 -0.0754
11094SOL    HW138129   3.321   7.531   1.882 -0.0414  0.9457 -0.3126
11094SOL    HW238130   3.464   7.516   1.928 -0.4899  0.7986  1.0866
11095SOL     OW38131   6.548   8.679   2.846 -0.3253  0.2586 -0.0754
11095SOL    HW138132   6.469   8.706   2.894 -0.5077  1.3668 -0.9649
11095SOL    HW238133   6.547   8.731   2.766  1.5008  0.5869  0.0553
11096SOL     OW38134   1.948   0.065   0.599 -0.0659  0.2822  0.0426
11096SOL    HW138135   2.017   0.079   0.534 -0.4648 -0.9338 -0.6666
11096SOL    HW238136   1.924   0.153   0.628  0.6789  0.7955 -0.8684
11097SOL     OW38137   4.027   8.618   5.343  0.1502 -0.3206 -0.2402
11097SOL    HW138138   4.112   8.642   5.380 -1.1901  3.6841  0.6927
11097SOL    HW238139   3.969   8.610   5.418 -1.2514  1.7467 -1.0074
11098SOL     OW38140   1.686   0.613   9.725  0.4495  0.5673 -0.5147
11098SOL    HW138141   1.642   0.645   9.646  1.0489  0.7250 -0.7866
11098SOL    HW238142   1.770   0.658   9.725  0.4956  0.4797  0.1557
11099SOL     OW38143   3.188   1.634   3.401 -0.6000  0.2768 -0.4825
11099SOL    HW138144   3.172   1.701   3.335 -1.0745 -1.2030 -1.9559
11099SOL    HW238145   3.102   1.597   3.420 -0.5638  1.0553  1.4652
11100SOL     OW38146   3.454   0.530   2.690  0.5175 -0.3818 -0.1619
11100SOL    HW138147   3.512   0.557   2.618  0.3447  0.2656 -0.0662
11100SOL    HW238148   3.377   0.494   2.646  1.2386 -1.8279 -0.2889
11101SOL     OW38149   1.532   8.801   1.432 -0.1571  0.2371 -0.2074
11101SOL    HW138150   1.442   8.832   1.439 -0.7622 -1.4809 -0.0413
11101SOL    HW238151   1.556   8.817   1.340 -0.0168  2.2022  0.1247
11102SOL     OW38152   3.489   7.910   2.031  0.1051  0.5765  0.0836
11102SOL    HW138153   3.565   7.895   1.975  0.1961 -0.2820  0.4373
11102SOL    HW238154   3.509   7.993   2.076  0.5565  0.6631 -0.2648
11103SOL     OW38155   2.925   9.015   1.662 -0.1054 -0.4099 -0.9223
11103SOL    HW138156   2.840   9.058   1.651  0.8860  1.3680 -2.1837
11103SOL    HW238157   2.961   9.009   1.573  0.6653 -2.0872 -0.5408
11104SOL     OW38158   4.834   1.158   2.643  0.1475  0.3022 -0.7458
11104SOL    HW138159   4.744   1.178   2.618 -0.0727  2.8022  1.5759
11104SOL    HW238160   4.828   1.076   2.693 -0.5553 -0.3841 -1.9182
11105SOL     OW38161   3.703   8.716   1.695  0.0192 -0.1265 -0.1267
11105SOL    HW138162   3.647   8.793   1.689  0.4028  0.0380 -2.7078
11105SOL    HW238163   3.716   8.703   1.789 -0.3680  2.7182  0.4104
11106SOL     OW38164   1.124   9.003   4.304  0.2456 -0.0775  0.1112
11106SOL    HW138165   1.116   8.909   4.324  2.1262  0.3170  3.5155
11106SOL    HW238166   1.208   9.011   4.259 -0.4083 -0.0716 -1.1662
11107SOL     OW38167   1.399   0.446   1.793  0.3162  0.3084 -0.0073
11107SOL    HW138168   1.482   0.485   1.766  0.0164  0.9246 -0.0533
11107SOL    HW238169   1.408   0.432   1.887  0.6120  0.0209 -0.0760
11108SOL     OW38170   2.978   0.621   0.661 -0.4797  0.1163  0.4854
11108SOL    HW138171   2.928   0.544   0.690  0.1221 -0.5163 -0.1389
11108SOL    HW238172   3.011   0.659   0.742 -2.0603  0.6253  0.9331
11109SOL     OW38173   0.700   9.079   2.318 -0.5973  0.0327  0.6127
11109SOL    HW138174   0.787   9.096   2.283 -1.1718  1.8312 -0.1020
11109SOL    HW238175   0.660   9.018   2.255  0.0484 -0.5802  0.7965
11110SOL     OW38176   3.344   0.664   0.572 -0.0598  0.3318  0.2170
11110SOL    HW138177   3.356   0.725   0.644 -0.9012 -0.4893  1.0779
11110SOL    HW238178   3.329   0.579   0.614  3.8955 -1.1503 -0.8761
11111SOL     OW38179   2.476   2.196   4.153  0.2693 -0.1929 -0.0283
11111SOL    HW138180   2.434   2.275   4.187 -2.5712 -0.8518 -1.6557
11111SOL    HW238181   2.492   2.216   4.061  0.7370 -1.0718 -0.1428
11112SOL     OW38182   2.409   9.378   4.266 -0.1246  0.3063  0.5539
11112SOL    HW138183   2.461   9.452   4.234  1.1009  0.6530  3.0918
11112SOL    HW238184   2.320   9.398   4.238  0.3217  2.2891  0.3841
11113SOL     OW38185   4.238   8.845   4.431 -0.4206 -0.1799  0.1390
11113SOL    HW138186   4.282   8.927   4.409 -0.5547 -0.4270 -1.0925
11113SOL    HW238187   4.149   8.871   4.453 -0.3207  0.0532  0.2851
11114SOL     OW38188   2.939   6.711   3.516 -0.5870  0.1138 -0.3199
11114SOL    HW138189   2.903   6.661   3.590 -2.0257  1.7831  0.1984
11114SOL    HW238190   2.866   6.717   3.454 -0.6459  1.8858 -0.1505
11115SOL     OW38191   1.946   0.350   3.654 -0.1668  0.3168  0.0351
11115SOL    HW138192   2.041   0.347   3.669 -0.4050 -0.5241  1.6280
11115SOL    HW238193   1.914   0.413   3.719 -0.7822 -0.0456  0.0917
11116SOL     OW38194   1.673   7.947   0.733 -0.1464  0.4237  0.0438
11116SOL    HW138195   1.740   7.994   0.684 -1.0055  1.9645  0.2966
11116SOL    HW238196   1.623   7.899   0.667  1.4813 -1.1905 -0.1043
11117SOL     OW38197   1.723   1.300   5.379  0.2274 -0.1907  0.3711
11117SOL    HW138198   1.737   1.394   5.387 -0.9363  0.2011 -1.7293
11117SOL    HW238199   1.664   1.278   5.451 -0.7755  0.9883 -0.0824
11118SOL     OW38200   2.751   9.173   3.177 -0.6797  0.0231  0.7014
11118SOL    HW138201   2.733   9.267   3.176 -0.7543  0.0068 -0.0239
11118SOL    HW238202   2.753   9.150   3.270  0.5794  0.9800  0.9412
11119SOL     OW38203   3.786   1.658   1.337 -0.4734  0.5859 -0.6725
11119SOL    HW138204   3.782   1.572   1.379 -0.9143  0.4511 -0.9901
11119SOL    HW238205   3.852   1.648   1.268 -0.7461  0.4122 -0.9105
11120SOL     OW38206   1.264   7.204   3.397 -0.4866 -0.0052 -0.4537
11120SOL    HW138207   1.318   7.176   3.471 -0.7590  1.6838  0.4388
11120SOL    HW238208   1.209   7.129   3.378 -1.0959 -0.1819  1.7315
11121SOL     OW38209   2.405   9.665   1.995  0.4916  0.4327 -0.2952
11121SOL    HW138210   2.324   9.614   1.995  0.7587 -0.1689  2.9919
11121SOL    HW238211   2.472   9.604   1.963 -0.2570  1.0541 -3.4407
11122SOL     OW38212   3.346   8.019   1.116  0.4033  0.5041  0.1237
11122SOL    HW138213   3.301   8.099   1.089  0.3752 -0.0067 -1.4450
11122SOL    HW238214   3.357   7.969   1.035  0.9269 -0.8307  0.9787
11123SOL     OW38215   3.647   9.357   1.444  0.0466 -0.2705  0.2657
11123SOL    HW138216   3.713   9.304   1.400  0.7842 -0.2568  1.3036
11123SOL    HW238217   3.578   9.294   1.468  0.5888 -0.6527  0.8673
11124SOL     OW38218   4.779   6.566   3.572 -0.5337  0.4154 -0.6142
11124SOL    HW138219   4.796   6.579   3.665  3.0350  1.5933 -1.2495
11124SOL    HW238220   4.820   6.641   3.529 -1.9728 -0.1282 -3.1797
11125SOL     OW38221   0.413   7.366   2.879 -0.1282 -0.2142  0.5772
11125SOL    HW138222   0.328   7.407   2.900 -0.8736 -1.2644 -0.2747
11125SOL    HW238223   0.394   7.311   2.804  1.6000  0.4392 -0.3707
11126SOL     OW38224   1.853   0.557   2.970 -0.2894  0.2939 -0.4080
11126SOL    HW138225   1.904   0.497   2.916 -1.9541 -1.8418  0.2189
11126SOL    HW238226   1.892   0.549   3.057 -1.4244 -1.1239  0.0092
11127SOL     OW38227   2.839   8.864   2.547 -0.1225 -0.1375  0.3615
11127SOL    HW138228   2.777   8.797   2.519 -1.1645 -0.0766  2.3228
11127SOL    HW238229   2.794   8.947   2.528 -0.3180 -0.0820  1.0201
11128SOL     OW38230   2.971   1.972   3.322 -0.3396  0.2262 -0.3768
11128SOL    HW138231   3.052   1.934   3.288 -0.5578  0.9018 -1.7461
11128SOL    HW238232   2.996   2.062   3.346 -0.3700 -0.0062  0.5677
11129SOL     OW38233   2.247   8.658   1.277  0.2470  0.0445  0.1427
11129SOL    HW138234   2.253   8.589   1.212 -2.9967  1.4650 -1.9027
11129SOL    HW238235   2.168   8.637   1.327  0.9646  0.6687  1.6134
11130SOL     OW38236   2.730   8.422   3.051  0.6942  0.0911  0.2641
11130SOL    HW138237   2.787   8.452   3.122  0.0274  0.4885  0.6525
11130SOL    HW238238   2.767   8.461   2.972  0.5426  0.9560  0.6083
11131SOL     OW38239   2.344   0.763   2.267 -0.2999  0.2298 -0.0797
11131SOL    HW138240   2.373   0.821   2.196  0.7250 -1.3242 -0.9737
11131SOL    HW238241   2.398   0.685   2.258 -3.1104 -1.8427 -0.3557
11132SOL     OW38242   0.929   8.576   3.701  0.6601  0.0132  0.1241
11132SOL    HW138243   0.957   8.510   3.637 -0.7749  0.1936 -0.7463
11132SOL    HW238244   0.835   8.588   3.683  0.2663  0.2544  2.1139
11133SOL     OW38245   1.400   8.195   3.069 -0.2116 -0.3409  0.0967
11133SOL    HW138246   1.331   8.130   3.051 -0.0083 -0.5340  0.0095
11133SOL    HW238247   1.370   8.275   3.026 -0.1116 -0.5809 -0.4191
11134SOL     OW38248   2.771   0.441   2.252 -0.4207 -0.0574  0.2184
11134SOL    HW138249   2.851   0.441   2.200 -0.7040 -0.9139 -0.2402
11134SOL    HW238250   2.799   0.467   2.339  0.5212 -1.2141  0.2902
11135SOL     OW38251   3.618   1.574   3.832  0.6221  0.0318 -0.2707
11135SOL    HW138252   3.579   1.611   3.912 -1.4158 -0.9248 -0.7650
11135SOL    HW238253   3.543   1.553   3.776  1.9480 -0.5591 -1.8988
11136SOL     OW38254   2.469   8.342   1.501 -0.7847 -0.1052  0.0757
11136SOL    HW138255   2.385   8.323   1.460 -0.6157  0.3451 -0.5043
11136SOL    HW238256   2.455   8.425   1.547 -0.6528 -0.0006 -0.0683
11137SOL     OW38257   8.319   1.268   3.529  0.2804 -0.1204 -0.6566
11137SOL    HW138258   8.308   1.178   3.560  0.1582 -0.3342 -1.3111
11137SOL    HW238259   8.315   1.261   3.434 -2.8357  0.9596 -0.6989
11138SOL     OW38260   3.590   8.766   3.571  0.0504 -0.1348  0.1187
11138SOL    HW138261   3.593   8.859   3.592  0.0562 -0.1070 -0.0026
11138SOL    HW238262   3.632   8.723   3.645  0.7282  0.0199 -0.1666
11139SOL     OW38263   1.625   7.833   4.368  0.0606 -0.3536 -0.1639
11139SOL    HW138264   1.655   7.924   4.367  1.1917 -0.6978  0.2864
11139SOL    HW238265   1.691   7.785   4.318 -0.2689 -0.9946  0.0003
11140SOL     OW38266   2.112   8.511   4.263 -0.6587 -0.0139 -0.2137
11140SOL    HW138267   2.178   8.485   4.200  1.2759  2.5102  0.6151
11140SOL    HW238268   2.067   8.586   4.223 -0.1821  0.8851  0.8551
11141SOL     OW38269   0.241   8.636   3.139 -0.0740  0.4634  0.3562
11141SOL    HW138270   0.275   8.547   3.146 -2.8663 -0.8767 -1.3693
11141SOL    HW238271   0.225   8.663   3.230 -0.0791 -1.1604  0.8572
11142SOL     OW38272   2.826   9.341   3.894 -0.4245  0.0130 -0.3493
11142SOL    HW138273   2.751   9.386   3.932 -0.1254  1.9103 -1.8291
11142SOL    HW238274   2.889   9.411   3.875  0.1312 -1.0088 -2.6860
11143SOL     OW38275   1.987   0.094   1.899 -0.5467  0.5328  0.4644
11143SOL    HW138276   2.036   0.018   1.932 -0.7610  0.2783  0.2116
11143SOL    HW238277   1.934   0.058   1.828 -0.6344  0.9291  0.3283
11144SOL     OW38278   2.307   0.105   2.526 -0.4077 -0.9633  0.4257
11144SOL    HW138279   2.242   0.079   2.462  0.4587  0.8437 -1.2923
11144SOL    HW238280   2.340   0.189   2.495  0.9961 -0.6239  2.5570
11145SOL     OW38281   1.361   9.757   0.375 -0.3798  0.3665  0.3565
11145SOL    HW138282   1.346   9.844   0.413 -0.5149  0.3074  0.4363
11145SOL    HW238283   1.449   9.734   0.404 -1.1833 -0.5114  2.2561
11146SOL     OW38284   3.251   0.303   1.721 -0.4546 -0.1550  0.0195
11146SOL    HW138285   3.162   0.338   1.724  0.0373  1.3256 -1.1968
11146SOL    HW238286   3.292   0.335   1.801 -0.5639  0.5517 -0.1957
11147SOL     OW38287   4.303   1.412   2.489  0.1411 -0.2926 -0.3375
11147SOL    HW138288   4.214   1.403   2.454  0.3485 -0.3597 -0.8647
11147SOL    HW238289   4.359   1.393   2.414  0.6009  0.2552 -0.1337
11148SOL     OW38290   0.282   0.926   1.267 -0.3569  0.0645 -1.0278
11148SOL    HW138291   0.196   0.967   1.274  0.6526  2.2010 -0.1289
11148SOL    HW238292   0.264   0.833   1.275 -2.4766  0.5177  0.6776
11149SOL     OW38293   2.614   0.404   1.931 -0.2211  0.4106  0.0604
11149SOL    HW138294   2.690   0.461   1.943 -0.2488  0.0854  2.4752
11149SOL    HW238295   2.616   0.379   1.839  1.8064  1.5109 -0.2481
11150SOL     OW38296   3.605   1.939   2.829 -0.1952 -0.0438 -0.5079
11150SOL    HW138297   3.632   1.856   2.790 -0.9148 -0.1852 -0.7156
11150SOL    HW238298   3.515   1.925   2.856 -0.5084  0.8474 -1.0488
11151SOL     OW38299   0.652   0.514   0.168 -0.2310  0.8083  0.5081
11151SOL    HW138300   0.676   0.601   0.135 -0.0527  0.1506 -1.1656
11151SOL    HW238301   0.650   0.458   0.091 -1.4008 -0.4642  1.4023
11152SOL     OW38302   0.560   9.769   1.879  0.0856  0.4660  0.0895
11152SOL    HW138303   0.640   9.720   1.865 -0.7336 -0.5510 -1.2924
11152SOL    HW238304   0.504   9.747   1.804 -1.2163  1.6885  0.6408
11153SOL     OW38305   2.926   9.797   1.714 -0.2385  0.0885 -0.1861
11153SOL    HW138306   2.876   9.877   1.730  0.5520  0.7674 -1.0630
11153SOL    HW238307   2.863   9.726   1.730 -1.6734  0.9193 -1.8669
11154SOL     OW38308   3.773   8.412   2.186 -0.3036 -0.4226 -0.1577
11154SOL    HW138309   3.808   8.472   2.121  0.8847  0.5792  1.3393
11154SOL    HW238310   3.731   8.469   2.251 -0.8892 -1.3479  0.2987
11155SOL     OW38311   3.147   2.256   0.157 -0.6907 -0.2281 -0.1279
11155SOL    HW138312   3.066   2.277   0.110 -0.2392  0.3179 -0.6927
11155SOL    HW238313   3.207   2.326   0.132 -0.2383 -0.2778  0.7890
11156SOL     OW38314   1.949   9.250   3.219 -0.6023 -0.1016  0.2034
11156SOL    HW138315   2.036   9.221   3.246  0.4665  3.0905  0.6338
11156SOL    HW238316   1.959   9.344   3.204 -3.5203  0.0105 -1.7867
11157SOL     OW38317   9.458   8.850   2.914 -0.0412 -0.0360  0.8454
11157SOL    HW138318   9.481   8.814   2.828  1.3727  1.3645  0.5906
11157SOL    HW238319   9.367   8.824   2.927  0.2178 -1.6854 -0.3341
11158SOL     OW38320   3.313   8.882   1.597 -0.4402 -0.2861 -0.3573
11158SOL    HW138321   3.233   8.830   1.589 -0.4508  0.0031 -3.1411
11158SOL    HW238322   3.380   8.819   1.623 -1.2691 -0.8270  0.5020
11159SOL     OW38323   3.899   6.852   2.529  0.5650 -0.2407  0.0129
11159SOL    HW138324   3.809   6.842   2.499  0.1203 -0.0564  1.2031
11159SOL    HW238325   3.902   6.802   2.611  0.9993  1.2616  0.9650
11160SOL     OW38326   5.834   7.655   2.891 -0.1186  0.1214  0.3407
11160SOL    HW138327   5.797   7.726   2.839 -1.1898  1.4495  2.7521
11160SOL    HW238328   5.777   7.580   2.874  0.7390 -0.1136 -1.8581
11161SOL     OW38329   3.709   9.233   2.825  0.4016  0.3761  0.3355
11161SOL    HW138330   3.729   9.304   2.886 -0.3621 -0.4727  1.6238
11161SOL    HW238331   3.693   9.276   2.741 -1.0427  1.8465  1.3103
11162SOL     OW38332   3.686   8.002   3.265 -0.5500 -0.4175  0.3067
11162SOL    HW138333   3.766   7.968   3.225  0.9559  1.3119  1.6589
11162SOL    HW238334   3.648   8.058   3.198 -0.0346 -0.4172  0.0036
11163SOL     OW38335   4.861   0.867   3.192  0.0525  0.1039  0.1134
11163SOL    HW138336   4.769   0.841   3.189 -0.5176  1.9664  0.3557
11163SOL    HW238337   4.904   0.810   3.128 -1.4382 -0.1516 -0.7047
11164SOL     OW38338   1.816   1.538   5.546 -0.1938 -0.0319 -0.0141
11164SOL    HW138339   1.886   1.473   5.555 -0.1591 -0.0132 -0.1417
11164SOL    HW238340   1.806   1.576   5.633 -0.8786 -0.8890  0.2900
11165SOL     OW38341   1.872   9.419   3.854  0.1884  0.2811 -0.4072
11165SOL    HW138342   1.966   9.406   3.866  0.0089 -0.1446  0.6530
11165SOL    HW238343   1.865   9.482   3.783  1.3242  1.3477  0.3943
11166SOL     OW38344   3.948   9.302   4.336  0.2513  0.2507  0.6048
11166SOL    HW138345   3.978   9.305   4.426  3.0177  2.5875 -0.2492
11166SOL    HW238346   4.020   9.263   4.287 -0.8591 -0.2159 -0.7472
11167SOL     OW38347   4.187   0.104   5.604  0.1666 -0.6505  0.0979
11167SOL    HW138348   4.159   0.080   5.516  0.2609 -1.0015  0.1582
11167SOL    HW238349   4.267   0.154   5.591  0.3553 -0.9736 -0.0049
11168SOL     OW38350   3.649   8.966   4.210 -0.1674 -0.2907  0.0066
11168SOL    HW138351   3.597   8.970   4.291  3.2408 -2.9755  2.6252
11168SOL    HW238352   3.610   8.893   4.161 -1.0049  0.0129  0.1980
11169SOL     OW38353   3.373   8.842   6.378 -0.2655 -0.0782  0.0403
11169SOL    HW138354   3.368   8.879   6.466 -3.2475 -1.3213  0.5093
11169SOL    HW238355   3.291   8.869   6.336  0.8965  0.1313 -2.2611
11170SOL     OW38356   3.334   8.443   6.344  0.8620 -0.2249 -0.2090
11170SOL    HW138357   3.343   8.363   6.395  2.5394  0.1367  0.1205
11170SOL    HW238358   3.415   8.492   6.361  0.0521  1.3768 -0.6898
11171SOL     OW38359   3.208   8.969   3.137  0.5108  0.3260  0.0673
11171SOL    HW138360   3.162   9.037   3.089  1.5589  0.7460 -0.3826
11171SOL    HW238361   3.175   8.975   3.226 -0.5964  0.3284 -0.3277
11172SOL     OW38362   1.477   8.645   3.608  0.0761 -0.5487  0.5904
11172SOL    HW138363   1.392   8.686   3.591  0.5822  0.2370 -0.1842
11172SOL    HW238364   1.523   8.708   3.663  0.9438  0.0860 -0.7894
11173SOL     OW38365   3.480   1.030   5.698  0.2958 -0.3677 -0.6066
11173SOL    HW138366   3.532   0.963   5.652  2.2973  1.9546 -1.9744
11173SOL    HW238367   3.463   0.991   5.784  2.0698 -2.3095 -1.0339
11174SOL     OW38368   4.057   0.032   5.344  0.2846  0.1481 -0.0705
11174SOL    HW138369   4.054   0.009   5.252 -0.6460  1.8319 -0.5062
11174SOL    HW238370   3.964   0.038   5.370  0.5283  0.2139  0.8352
11175SOL     OW38371   4.251   7.893   4.426  0.0057 -0.1528 -0.2145
11175SOL    HW138372   4.321   7.933   4.374 -0.0773  1.1796  0.6559
11175SOL    HW238373   4.227   7.960   4.489 -1.2525 -1.0315  0.2742
11176SOL     OW38374   2.945   8.445   5.347 -0.1648  0.2666 -0.2929
11176SOL    HW138375   2.954   8.402   5.432  0.9937 -0.6047 -0.8327
11176SOL    HW238376   2.875   8.509   5.360 -1.2926 -1.1246  0.7913
11177SOL     OW38377   2.381   9.730   6.117 -0.0732  0.1456 -0.1659
11177SOL    HW138378   2.296   9.688   6.130  1.1023 -2.8848 -1.3571
11177SOL    HW238379   2.435   9.700   6.190  1.2017 -1.7709 -1.7810
11178SOL     OW38380   3.224   9.654   3.473 -0.3727 -0.5887  0.2027
11178SOL    HW138381   3.302   9.701   3.501 -1.0399  0.5679  0.2041
11178SOL    HW238382   3.187   9.620   3.555 -1.0319  0.7532  0.5039
11179SOL     OW38383   3.719   8.492   6.731 -0.1979 -0.0195 -0.2875
11179SOL    HW138384   3.667   8.490   6.811  0.0116 -1.1575 -0.1602
11179SOL    HW238385   3.655   8.508   6.661 -1.3293 -4.2769 -0.5025
11180SOL     OW38386   3.086   8.855   3.571 -0.4449  0.5538  0.1585
11180SOL    HW138387   3.158   8.807   3.530 -1.6283  0.3126 -1.7517
11180SOL    HW238388   3.126   8.935   3.604  0.5143  1.0714 -2.0849
11181SOL     OW38389   2.989   9.610   5.028 -0.5577  0.0633  0.1439
11181SOL    HW138390   2.942   9.610   5.111 -0.1343 -0.8220  0.4010
11181SOL    HW238391   2.924   9.583   4.963 -0.4846 -0.9640  0.4692
11182SOL     OW38392   4.694   8.429   5.124  0.5452 -0.0397 -0.3242
11182SOL    HW138393   4.769   8.471   5.166 -0.7196  2.9911 -0.8020
11182SOL    HW238394   4.621   8.445   5.184 -0.0596 -1.5108 -0.6177
11183SOL     OW38395   2.775   9.054   2.904 -0.4807 -0.4227  0.2452
11183SOL    HW138396   2.709   9.031   2.969 -2.4256  0.1034 -1.4315
11183SOL    HW238397   2.758   9.146   2.885 -0.2202 -0.6723 -1.2796
11184SOL     OW38398   1.391   9.146   3.528  0.6914  0.2067  0.0195
11184SOL    HW138399   1.344   9.081   3.579  0.0410 -0.0894 -0.9371
11184SOL    HW238400   1.435   9.201   3.594 -0.1380 -0.1458  0.8860
11185SOL     OW38401   2.167   1.442   3.106 -0.4885  0.1749  0.0211
11185SOL    HW138402   2.132   1.501   3.040 -0.1133  0.0049 -0.3372
11185SOL    HW238403   2.090   1.405   3.149 -0.7436  0.1081 -0.4862
11186SOL     OW38404   2.009   8.951   5.977 -0.0113  0.3957 -0.4882
11186SOL    HW138405   2.013   9.016   6.047  1.7615 -0.8151  0.5962
11186SOL    HW238406   2.100   8.929   5.958 -0.3769  0.9486 -3.4946
11187SOL     OW38407   2.720   0.664   5.468 -0.4922  0.0645  0.3090
11187SOL    HW138408   2.634   0.685   5.505 -0.1661  2.1978 -0.0019
11187SOL    HW238409   2.782   0.687   5.537 -0.0395  1.4615 -0.5055
11188SOL     OW38410   2.266   8.358   7.232  0.2612 -0.1453 -0.5047
11188SOL    HW138411   2.239   8.448   7.216  1.6544  0.1870 -1.1531
11188SOL    HW238412   2.243   8.310   7.153  2.2370  0.3325 -1.4446
11189SOL     OW38413   3.557   8.534   3.839 -0.0925  0.2485 -0.5651
11189SOL    HW138414   3.480   8.561   3.790 -0.3324 -1.0099 -0.9091
11189SOL    HW238415   3.564   8.598   3.910 -2.2654 -0.4032  0.3134
11190SOL     OW38416   3.059   9.071   5.361 -0.2570 -0.0318  0.7454
11190SOL    HW138417   2.979   9.123   5.350 -0.3328 -0.0151  1.3346
11190SOL    HW238418   3.027   8.986   5.393  0.0465  0.4637  2.4889
11191SOL     OW38419   4.596   7.286   4.088  0.3517  0.2896 -0.1282
11191SOL    HW138420   4.653   7.216   4.120 -3.0675 -3.3442 -1.1796
11191SOL    HW238421   4.549   7.315   4.166 -1.9792 -2.5799 -0.3032
11192SOL     OW38422   2.896   7.712   6.769 -0.1231  0.5694  0.5932
11192SOL    HW138423   2.873   7.739   6.858  1.0382  0.8479  0.8175
11192SOL    HW238424   2.921   7.794   6.725  0.4906  0.2731  0.3799
11193SOL     OW38425   5.443   8.308   3.506 -0.2227 -0.4351  0.1928
11193SOL    HW138426   5.435   8.241   3.438 -1.0335 -0.9980  0.8323
11193SOL    HW238427   5.353   8.335   3.524  0.0014 -0.1546  0.9085
11194SOL     OW38428   3.154   2.618   4.486 -0.6582  0.6035 -0.2490
11194SOL    HW138429   3.247   2.623   4.506 -1.1073  0.9255  2.0225
11194SOL    HW238430   3.145   2.538   4.434  0.8776  0.5297 -0.4291
11195SOL     OW38431   1.602   9.097   4.178 -0.0032 -0.0761 -0.3297
11195SOL    HW138432   1.548   9.029   4.219  0.7178 -0.5707 -0.1935
11195SOL    HW238433   1.631   9.151   4.251 -0.1302  0.0579 -0.3785
11196SOL     OW38434   2.199   0.983   5.011 -0.6142 -0.1079  0.2674
11196SOL    HW138435   2.154   0.992   5.095 -0.7669 -0.5052  0.2315
11196SOL    HW238436   2.137   0.936   4.955 -0.9380  1.1023 -0.4119
11197SOL     OW38437   4.691   0.465   3.539 -0.4105 -0.0207 -0.1618
11197SOL    HW138438   4.641   0.461   3.621 -1.2743  1.3331 -0.5797
11197SOL    HW238439   4.670   0.551   3.503  1.1571  0.0238 -1.0652
11198SOL     OW38440   5.177   8.367   3.749 -0.0264  0.1708  0.5676
11198SOL    HW138441   5.130   8.308   3.691  1.5913  0.5469 -1.2398
11198SOL    HW238442   5.116   8.439   3.766 -1.2952 -1.0095  1.1694
11199SOL     OW38443   2.322   0.926   6.700 -0.1358  0.1931 -0.6254
11199SOL    HW138444   2.347   0.974   6.779 -0.4877 -1.2206  0.3817
11199SOL    HW238445   2.239   0.967   6.673 -0.8083 -0.2783  0.6361
11200SOL     OW38446   3.791   0.477   3.607  0.1804 -0.7168 -0.1123
11200SOL    HW138447   3.752   0.512   3.687 -0.2555 -0.8645 -0.2619
11200SOL    HW238448   3.879   0.515   3.606  0.3593 -1.0813  0.6780
11201SOL     OW38449   1.023   0.391   1.324 -0.4161  0.0171 -0.1959
11201SOL    HW138450   0.985   0.478   1.332 -0.2034  0.2075 -1.0941
11201SOL    HW238451   1.087   0.385   1.395 -0.0353  0.8024 -0.4610
11202SOL     OW38452   4.517   7.372   4.350  0.0623  0.4820  0.5764
11202SOL    HW138453   4.423   7.365   4.365  0.0321 -0.9083 -0.0651
11202SOL    HW238454   4.534   7.466   4.342 -1.3887  0.7054 -0.0713
11203SOL     OW38455   4.349   1.668   4.453  0.1133 -0.1778  0.4198
11203SOL    HW138456   4.335   1.575   4.470  0.6054 -0.2099  0.6737
11203SOL    HW238457   4.264   1.709   4.471  0.3545 -0.3377  2.0807
11204SOL     OW38458   4.823   0.242   8.076  0.0869  0.2891 -0.0987
11204SOL    HW138459   4.794   0.332   8.061 -1.3199 -0.4012 -1.9303
11204SOL    HW238460   4.917   0.243   8.060 -0.0335  1.3032 -0.7843
11205SOL     OW38461   3.643   9.387   3.946 -0.5370 -0.1585  0.4684
11205SOL    HW138462   3.589   9.463   3.970 -0.3605 -0.4494  1.8642
11205SOL    HW238463   3.733   9.414   3.966 -0.5239 -0.9143  1.4892
11206SOL     OW38464   3.340   9.636   5.104  0.2163 -0.5106 -0.1096
11206SOL    HW138465   3.339   9.607   5.195 -0.3695 -2.1066 -0.5925
11206SOL    HW238466   3.427   9.673   5.091 -0.0257  0.6441  1.3565
11207SOL     OW38467   2.986   8.633   6.477 -0.2373  0.5203  0.6596
11207SOL    HW138468   3.010   8.720   6.510 -2.0740  0.4294  2.3938
11207SOL    HW238469   2.903   8.647   6.431  0.1279 -0.1196 -0.2224
11208SOL     OW38470   2.916   8.965   5.744  0.2905  0.4342 -0.6104
11208SOL    HW138471   2.923   8.874   5.717 -0.1450 -0.0785  0.9236
11208SOL    HW238472   2.877   9.009   5.669 -1.5792 -1.0663 -0.5925
11209SOL     OW38473   1.246   8.903   5.273 -0.2760 -0.3293  0.4156
11209SOL    HW138474   1.275   8.852   5.198 -0.7438 -1.4215  0.9511
11209SOL    HW238475   1.228   8.838   5.341 -1.8359  0.4651  0.8120
11210SOL     OW38476   3.328   7.700   6.435 -0.2696  0.1020 -0.5924
11210SOL    HW138477   3.347   7.610   6.408  0.6327  0.5196 -1.3976
11210SOL    HW238478   3.384   7.755   6.379 -0.9416  1.1782 -0.2518
11211SOL     OW38479   3.550   0.207   2.551 -0.6475 -0.4663  0.1328
11211SOL    HW138480   3.473   0.218   2.495  0.1897 -1.3512 -1.2574
11211SOL    HW238481   3.605   0.283   2.532 -1.5272  0.6300  1.7823
11212SOL     OW38482   2.989   0.570   4.699 -0.4597 -0.7112 -0.3504
11212SOL    HW138483   2.948   0.656   4.706  2.5880  1.2056 -3.2324
11212SOL    HW238484   2.928   0.518   4.646 -1.6552  0.1676  0.1356
11213SOL     OW38485   3.065   8.182   4.343  0.5310 -0.1517 -0.5507
11213SOL    HW138486   3.042   8.146   4.257  0.2506  2.0009 -1.4281
11213SOL    HW238487   3.066   8.105   4.401 -1.4861 -1.3723 -1.9943
11214SOL     OW38488   3.127   8.737   3.002  0.4372  0.5410 -0.1451
11214SOL    HW138489   3.185   8.757   2.928  0.1020  2.8566  0.1302
11214SOL    HW238490   3.138   8.811   3.062 -1.9001  0.4714  0.4811
11215SOL     OW38491   2.275   0.059   2.144 -0.2062  0.0886 -0.2889
11215SOL    HW138492   2.326  -0.020   2.132  0.8790  0.5371  1.1325
11215SOL    HW238493   2.339   0.130   2.140 -0.8686  0.7487  0.4187
11216SOL     OW38494   2.126   8.168   5.435  0.2119 -0.0620 -0.0332
11216SOL    HW138495   2.075   8.212   5.368 -0.0704  0.0548  0.2587
11216SOL    HW238496   2.073   8.093   5.461  0.6634 -0.5482 -0.4857
11217SOL     OW38497   3.273   8.288   7.598  0.5624  0.2133  0.8925
11217SOL    HW138498   3.189   8.243   7.613  0.5211  0.4367  1.3408
11217SOL    HW238499   3.249   8.378   7.578  0.6408  0.0213 -0.1159
11218SOL     OW38500   3.974   9.526   5.311 -0.3974 -0.2136 -0.5035
11218SOL    HW138501   3.991   9.432   5.307 -0.7164 -0.2314 -2.3098
11218SOL    HW238502   3.885   9.532   5.348  0.0387 -0.5337  0.6570
11219SOL     OW38503   2.846   0.322   1.235  0.7872  0.1122 -0.1726
11219SOL    HW138504   2.785   0.272   1.289 -1.5041  1.4335 -1.3630
11219SOL    HW238505   2.800   0.405   1.218  3.1049  1.3471 -0.8358
11220SOL     OW38506   3.882   9.798   4.351  0.2883  0.2918  0.2334
11220SOL    HW138507   3.911   9.866   4.412 -2.3251 -0.3718  2.4016
11220SOL    HW238508   3.909   9.716   4.391  0.6270 -0.0959 -0.7571
11221SOL     OW38509   1.526   9.193   5.060 -0.1118 -0.5406  0.3065
11221SOL    HW138510   1.580   9.233   4.992 -1.3346  1.3237  0.3745
11221SOL    HW238511   1.574   9.211   5.142 -0.6778  0.8916  0.3423
11222SOL     OW38512   5.423   2.207   4.666  0.2652 -0.0153 -0.7769
11222SOL    HW138513   5.408   2.164   4.750  3.2362  0.3297  0.0567
11222SOL    HW238514   5.340   2.250   4.646 -0.7979 -0.8117  1.5509
11223SOL     OW38515   4.229   7.370   3.574 -0.0254 -0.1238 -0.2564
11223SOL    HW138516   4.140   7.351   3.602 -0.7592  0.2333 -2.1665
11223SOL    HW238517   4.266   7.424   3.645 -0.8279 -1.4097  1.1810
11224SOL     OW38518   2.126   8.351   4.875  0.4506 -0.1721 -0.3688
11224SOL    HW138519   2.036   8.379   4.857  1.0344  1.0628 -1.6403
11224SOL    HW238520   2.153   8.404   4.951 -0.2949 -1.5043  0.8603
11225SOL     OW38521   3.472   7.084   1.352  0.2918  0.5239 -0.2479
11225SOL    HW138522   3.506   7.112   1.437 -1.2694  0.2665  0.5016
11225SOL    HW238523   3.421   7.158   1.321  0.5780  0.4889 -0.8138
11226SOL     OW38524   3.324   9.020   1.836 -0.1324 -0.2425  0.2281
11226SOL    HW138525   3.315   8.974   1.752 -4.0859 -1.1692  0.9575
11226SOL    HW238526   3.234   9.035   1.865  1.0439  3.3575  2.6191
11227SOL     OW38527   4.338   9.142   5.127  0.2280  0.7253  0.3231
11227SOL    HW138528   4.427   9.122   5.101  0.2820  2.2057 -0.7419
11227SOL    HW238529   4.284   9.117   5.052 -0.1067  0.9358  0.4883
11228SOL     OW38530   2.837   6.665   7.945  0.8748 -0.3838  0.6720
11228SOL    HW138531   2.889   6.663   7.865  1.8308  0.3478  1.2469
11228SOL    HW238532   2.759   6.613   7.925  1.3484 -0.6524 -0.5465
11229SOL     OW38533   0.591   6.570   5.953 -0.0335 -0.0430 -0.3919
11229SOL    HW138534   0.509   6.618   5.947 -0.5589 -0.8118  0.4036
11229SOL    HW238535   0.626   6.570   5.863 -1.2326 -0.2869 -0.8756
11230SOL     OW38536   4.832   0.575   7.134 -0.6831 -0.4362  0.1717
11230SOL    HW138537   4.828   0.667   7.157  1.5563 -0.2109 -0.1111
11230SOL    HW238538   4.905   0.540   7.185 -0.9069 -1.8363 -0.3996
11231SOL     OW38539   3.221   9.425   7.104  0.4187 -0.3576 -0.2247
11231SOL    HW138540   3.173   9.489   7.052 -2.7933 -2.9960 -0.8371
11231SOL    HW238541   3.256   9.362   7.040  3.2341  0.4374  0.3804
11232SOL     OW38542   4.652   0.913   6.380  0.8853  0.4253  0.1627
11232SOL    HW138543   4.712   0.963   6.435  0.1147  0.9556  0.5474
11232SOL    HW238544   4.709   0.860   6.324  1.6878  0.1006  1.2544
11233SOL     OW38545   3.257   0.413   6.733  0.2428 -0.0669 -0.2034
11233SOL    HW138546   3.278   0.420   6.640 -0.0575 -1.4661 -0.3957
11233SOL    HW238547   3.162   0.403   6.735  0.0096  1.8847  0.3954
11234SOL     OW38548   2.882   0.513   5.865 -0.2111  0.4851  0.5467
11234SOL    HW138549   2.834   0.494   5.945  0.6686 -0.4014  0.8827
11234SOL    HW238550   2.974   0.510   5.892  0.0670  1.8664 -0.1367
11235SOL     OW38551   3.650   0.758   3.338  0.6724 -0.0381  0.2626
11235SOL    HW138552   3.732   0.726   3.300  0.2769 -1.4055  0.4978
11235SOL    HW238553   3.658   0.742   3.432 -0.3194 -1.3863  0.1655
11236SOL     OW38554   1.609   7.840   7.181  0.2973  0.5677 -0.3200
11236SOL    HW138555   1.655   7.918   7.213  0.4471  0.9571 -1.4467
11236SOL    HW238556   1.519   7.869   7.170 -0.0027  0.1175  0.7982
11237SOL     OW38557   3.808   1.491   6.045 -0.3691 -0.3246  0.5625
11237SOL    HW138558   3.828   1.534   6.129 -2.2674  0.2924  0.7544
11237SOL    HW238559   3.873   1.420   6.038  0.4874  0.2699  2.0382
11238SOL     OW38560   1.708   0.196   6.524  0.7085 -0.2337  0.4152
11238SOL    HW138561   1.681   0.115   6.481  0.6041  0.9196 -1.8355
11238SOL    HW238562   1.673   0.265   6.468  1.4438  1.3749  1.8609
11239SOL     OW38563   2.949   7.941   9.345 -0.5171 -0.0108  0.4023
11239SOL    HW138564   2.932   8.018   9.291  0.1525 -0.5441 -0.5963
11239SOL    HW238565   2.981   7.977   9.428 -2.0446  0.8304  0.6572
11240SOL     OW38566   3.484   8.552   6.138  0.2196  0.2629 -0.7891
11240SOL    HW138567   3.404   8.519   6.180  0.2239  1.4957  0.2619
11240SOL    HW238568   3.453   8.620   6.078  0.4622  0.7213 -0.4029
11241SOL     OW38569   3.762   0.358   6.144 -0.0019  0.1342 -0.0989
11241SOL    HW138570   3.842   0.307   6.134  0.9064  1.6101 -0.5768
11241SOL    HW238571   3.701   0.319   6.080  0.7570 -0.1662 -0.6486
11242SOL     OW38572   4.416   0.806   6.494  0.2396  0.0858  0.3647
11242SOL    HW138573   4.449   0.743   6.558 -1.4660  1.6023  2.9167
11242SOL    HW238574   4.474   0.881   6.501  1.6562 -0.6934 -1.9345
11243SOL     OW38575   4.295   9.341   8.418  0.0386 -0.0295 -0.1665
11243SOL    HW138576   4.292   9.324   8.324 -1.2475 -1.6951  0.1233
11243SOL    HW238577   4.215   9.391   8.437 -0.1848 -0.4917  0.1538
11244SOL     OW38578   1.962   0.552   6.000  0.0630  0.5094  0.1655
11244SOL    HW138579   2.017   0.506   5.936 -0.7346  0.1231 -0.2586
11244SOL    HW238580   1.990   0.517   6.085 -0.7676 -1.0852 -0.1643
11245SOL     OW38581   4.591   8.942   6.007  0.2877 -0.1751 -0.3416
11245SOL    HW138582   4.640   8.875   5.960  1.5925 -0.6845  1.6140
11245SOL    HW238583   4.655   9.011   6.025 -0.2216  0.1125  0.4430
11246SOL     OW38584   2.966   0.529   7.482 -0.0139  0.2299 -0.2970
11246SOL    HW138585   3.000   0.543   7.570  0.9666 -1.4619 -0.3791
11246SOL    HW238586   2.895   0.466   7.493 -0.6882  0.9075 -0.6023
11247SOL     OW38587   3.297   0.696   5.444 -0.3789  0.4248  0.3381
11247SOL    HW138588   3.234   0.646   5.496  0.2576 -1.6048 -0.7198
11247SOL    HW238589   3.254   0.710   5.360  0.1997 -0.1325 -0.0613
11248SOL     OW38590   3.213   9.797   5.953 -0.1213  0.0565  0.1852
11248SOL    HW138591   3.203   9.844   6.036  2.2718 -0.6415  0.9352
11248SOL    HW238592   3.267   9.721   5.975 -0.8584 -1.0832 -1.7057
11249SOL     OW38593   3.430   8.572   5.313 -0.0740 -0.4205  0.0302
11249SOL    HW138594   3.483   8.572   5.393  0.0151  0.3567 -0.0234
11249SOL    HW238595   3.356   8.515   5.333  0.0269 -0.3507  0.6091
11250SOL     OW38596   2.990   0.575   6.858 -0.3234 -0.0188 -0.0041
11250SOL    HW138597   2.930   0.563   6.932  0.2697 -0.0355  0.4826
11250SOL    HW238598   2.951   0.522   6.788 -0.3698 -0.8121  0.5987
11251SOL     OW38599   1.808   0.760   7.395  0.1649  0.2767 -0.2631
11251SOL    HW138600   1.797   0.811   7.314  0.5426  1.8511  0.6178
11251SOL    HW238601   1.810   0.669   7.367 -0.3149  0.7588 -1.9586
11252SOL     OW38602   2.853   9.563   5.986 -0.2606  0.1061 -0.6429
11252SOL    HW138603   2.779   9.584   5.929  0.5253  1.2687 -1.2749
11252SOL    HW238604   2.825   9.591   6.073 -1.2053 -1.0474 -0.5510
11253SOL     OW38605   1.651   9.235   6.930 -0.3450 -0.4020 -0.2074
11253SOL    HW138606   1.673   9.309   6.987  0.8979  0.1207 -1.3216
11253SOL    HW238607   1.578   9.266   6.877 -1.4546 -0.8612  0.9849
11254SOL     OW38608   2.302   0.355   5.251 -0.1824 -1.0695 -0.5605
11254SOL    HW138609   2.392   0.370   5.222 -0.4879 -2.0170 -2.0910
11254SOL    HW238610   2.255   0.435   5.230  0.6956  0.3275  2.2447
11255SOL     OW38611   1.140   8.671   6.537 -0.4751  0.2562 -0.2150
11255SOL    HW138612   1.201   8.636   6.602  0.9231 -2.3227 -2.7079
11255SOL    HW238613   1.056   8.673   6.582  0.7234  0.2688  2.1710
11256SOL     OW38614   4.679   1.246   7.987 -0.1455 -0.1921  0.3387
11256SOL    HW138615   4.679   1.318   8.050 -1.6481 -0.1071  0.2772
11256SOL    HW238616   4.725   1.175   8.032  1.4674  0.8066  0.3502
11257SOL     OW38617   1.968   9.155   5.489 -0.1297  0.2519  0.5066
11257SOL    HW138618   2.043   9.183   5.438  1.3741 -2.8494  0.7891
11257SOL    HW238619   1.981   9.194   5.576  0.9020  0.1851  0.3922
11258SOL     OW38620   2.036   7.943   5.718 -0.5304  0.3714  0.5474
11258SOL    HW138621   2.122   7.984   5.712  0.7542 -2.0704  0.9444
11258SOL    HW238622   2.018   7.913   5.629  0.1955 -1.1908  0.8833
11259SOL     OW38623   3.437   9.583   6.027  0.8923 -0.1396 -0.4614
11259SOL    HW138624   3.521   9.625   6.007  0.2738  0.3738 -2.1807
11259SOL    HW238625   3.424   9.520   5.956  0.5919 -1.4054  0.6947
11260SOL     OW38626   3.157   9.196   6.630 -0.7708 -0.8325  0.5880
11260SOL    HW138627   3.239   9.146   6.626 -1.1109 -1.3055 -1.2206
11260SOL    HW238628   3.151   9.239   6.545 -0.4369  2.4910  2.0765
11261SOL     OW38629   3.870   8.639   5.090  0.1963 -0.4146 -0.1223
11261SOL    HW138630   3.920   8.624   5.010 -0.2484 -1.7640 -0.1602
11261SOL    HW238631   3.924   8.601   5.159 -0.3221 -1.0051 -0.0399
11262SOL     OW38632   2.496   9.441   6.196  0.1041 -0.2276  0.8242
11262SOL    HW138633   2.506   9.510   6.262  0.2023 -0.1669  0.7458
11262SOL    HW238634   2.585   9.413   6.177  0.4198  2.0866 -1.7559
11263SOL     OW38635   2.759   7.982   5.555 -0.2162  0.1917 -0.2115
11263SOL    HW138636   2.735   8.056   5.499 -0.9009  0.0615 -0.0960
11263SOL    HW238637   2.824   7.934   5.504  0.2039  0.8404 -0.3073
11264SOL     OW38638   3.380   0.154   4.974  0.0380  0.1058 -0.4523
11264SOL    HW138639   3.457   0.100   4.958 -0.6731 -0.7166 -1.1674
11264SOL    HW238640   3.412   0.244   4.964  0.8570 -0.2301 -0.9511
11265SOL     OW38641   3.646   2.434   6.035 -0.0028  1.0415  0.2848
11265SOL    HW138642   3.598   2.356   6.009 -0.7866  1.8137 -0.6574
11265SOL    HW238643   3.582   2.488   6.080  0.7049  0.8742  1.5595
11266SOL     OW38644   3.035   2.386   7.895  0.0876  0.2663 -0.2690
11266SOL    HW138645   3.030   2.446   7.968  1.6154  0.3101 -0.1712
11266SOL    HW238646   2.960   2.327   7.907  0.6523 -0.1047  1.6620
11267SOL     OW38647   2.766   9.290   7.677 -0.1086 -0.3923  0.3005
11267SOL    HW138648   2.686   9.343   7.684 -0.8492 -1.3307 -0.6939
11267SOL    HW238649   2.744   9.208   7.721  0.4352 -0.5280  0.3222
11268SOL     OW38650   2.572   0.041   6.317  0.3379  0.1954 -0.4489
11268SOL    HW138651   2.582   0.059   6.410  0.7785 -0.8074 -0.3007
11268SOL    HW238652   2.533  -0.046   6.313 -3.5264  1.7134 -1.1046
11269SOL     OW38653   2.938   8.264   7.471  0.3656 -0.2405 -0.4076
11269SOL    HW138654   2.843   8.269   7.461  0.2193 -2.2135 -0.3725
11269SOL    HW238655   2.952   8.262   7.566  0.2448 -2.1920 -0.3976
11270SOL     OW38656   3.452   9.047   6.768 -0.1760  0.7542 -0.6686
11270SOL    HW138657   3.428   8.956   6.752  0.0831  0.7277 -0.9107
11270SOL    HW238658   3.467   9.084   6.681  1.5470  0.5274 -0.4994
11271SOL     OW38659   2.852   9.208   5.251  0.1132 -0.3248  0.4852
11271SOL    HW138660   2.786   9.259   5.298  0.1236  0.0145  0.1321
11271SOL    HW238661   2.818   9.202   5.162  0.5281 -0.2093  0.3194
11272SOL     OW38662   2.645   8.585   7.756  0.4798 -0.3463 -0.0889
11272SOL    HW138663   2.591   8.521   7.710 -1.6029  0.9636  0.3700
11272SOL    HW238664   2.662   8.545   7.841  0.0179 -0.6971 -0.1578
11273SOL     OW38665   3.358   1.679   7.657 -0.4662 -0.3137 -0.0777
11273SOL    HW138666   3.411   1.604   7.684  1.2067  0.4595 -1.0527
11273SOL    HW238667   3.419   1.752   7.654 -2.3269  1.5037  2.3188
11274SOL     OW38668   2.574   0.939   7.847 -0.5317 -0.5793  0.6041
11274SOL    HW138669   2.663   0.903   7.847 -0.8773 -1.4614  1.2108
11274SOL    HW238670   2.519   0.864   7.824 -1.0534  0.1590 -0.6515
11275SOL     OW38671   3.598   0.924   8.204 -0.1035  0.0744  0.1748
11275SOL    HW138672   3.608   0.853   8.140  0.2198  0.6470 -0.4133
11275SOL    HW238673   3.517   0.968   8.178 -1.1805 -0.9983  1.4697
11276SOL     OW38674   4.223   0.500   7.162  0.0548 -0.2004 -0.4232
11276SOL    HW138675   4.243   0.416   7.122  1.5099 -0.3582  0.5747
11276SOL    HW238676   4.132   0.492   7.190  0.2113 -1.4961 -0.2278
11277SOL     OW38677   0.414   0.087   8.053  0.1050  0.2709  0.0121
11277SOL    HW138678   0.428  -0.007   8.037  1.2816  0.4969 -0.3752
11277SOL    HW238679   0.319   0.098   8.051 -0.0277 -0.8457 -0.3252
11278SOL     OW38680   3.435   0.821   7.342 -0.0258  0.5400  0.2043
11278SOL    HW138681   3.387   0.791   7.419 -0.3133  2.0019  0.6432
11278SOL    HW238682   3.385   0.786   7.268 -0.1197 -0.3394  0.6679
11279SOL     OW38683   4.241   9.710   7.642 -0.8893  0.1100 -0.0339
11279SOL    HW138684   4.167   9.694   7.582  0.6848  2.1663 -2.7976
11279SOL    HW238685   4.230   9.801   7.669 -0.2225 -0.0513  0.7969
11280SOL     OW38686   2.885   0.780   5.774  0.1045 -0.3561  0.5491
11280SOL    HW138687   2.801   0.827   5.774  0.2712 -0.0470 -0.6270
11280SOL    HW238688   2.865   0.697   5.817 -1.0632 -0.7115 -0.6106
11281SOL     OW38689   3.253   1.410   5.471 -0.0838  0.2521 -0.2801
11281SOL    HW138690   3.229   1.455   5.390  0.2907  2.1192  0.5711
11281SOL    HW238691   3.187   1.439   5.535  0.0315 -0.6252  0.2519
11282SOL     OW38692   2.284   1.613   3.314 -0.5311  0.2967 -0.5794
11282SOL    HW138693   2.217   1.576   3.372 -0.9748  0.0934 -1.2050
11282SOL    HW238694   2.281   1.558   3.236  1.8101 -1.0192  0.1602
11283SOL     OW38695   1.615   8.826   5.183  0.4028  0.1092  0.1842
11283SOL    HW138696   1.633   8.789   5.270 -0.0947 -3.6083 -1.1108
11283SOL    HW238697   1.525   8.799   5.164  0.5395  0.7909 -1.5315
11284SOL     OW38698   2.652   1.925   7.232 -0.2698 -0.6968 -0.4109
11284SOL    HW138699   2.568   1.970   7.220 -2.2886 -3.9240  0.3751
11284SOL    HW238700   2.639   1.839   7.192  1.9477 -2.0629  1.5666
11285SOL     OW38701   4.075   8.837   8.257  0.1328  0.6820  0.2585
11285SOL    HW138702   4.090   8.777   8.331  2.3599 -1.8124 -1.9862
11285SOL    HW238703   4.071   8.780   8.181 -2.9557  3.0711 -1.5728
11286SOL     OW38704   3.203   2.531   7.245 -0.0533 -0.6276  0.1442
11286SOL    HW138705   3.187   2.490   7.160 -0.7979  0.6160 -0.3486
11286SOL    HW238706   3.175   2.465   7.309  0.4330 -1.5439 -0.5640
11287SOL     OW38707   2.539   9.624   4.467 -0.2363 -0.0703  0.3449
11287SOL    HW138708   2.544   9.594   4.376 -0.4968 -0.8777  0.5912
11287SOL    HW238709   2.450   9.604   4.494  0.4228 -1.7305  1.4159
11288SOL     OW38710   0.993   9.432   4.156  0.7853  0.1123 -0.0190
11288SOL    HW138711   1.045   9.469   4.084  1.2146  1.1186  0.7901
11288SOL    HW238712   1.016   9.485   4.232 -1.7038  0.8565  0.3063
11289SOL     OW38713   4.690   0.474   8.025  0.0015 -0.6501 -0.1271
11289SOL    HW138714   4.600   0.488   8.053  0.0708  0.1923 -0.2847
11289SOL    HW238715   4.684   0.422   7.945 -0.3606 -0.3669 -0.2840
11290SOL     OW38716   4.359   2.001   7.873  0.2162  0.4215  0.4639
11290SOL    HW138717   4.303   2.046   7.937  0.0859  0.1245  0.5603
11290SOL    HW238718   4.448   2.025   7.898  0.1294  1.0303  0.2121
11291SOL     OW38719   3.956   9.503   6.722  0.5537 -0.4709  0.6723
11291SOL    HW138720   3.864   9.514   6.745  0.2802  1.5659 -1.0707
11291SOL    HW238721   3.994   9.454   6.795 -1.7516 -0.7717  1.7387
11292SOL     OW38722   4.019   9.643   4.562  0.0161  0.3661 -1.1233
11292SOL    HW138723   4.105   9.668   4.527  1.1802  1.3992  2.1003
11292SOL    HW238724   4.030   9.551   4.589 -0.3741  0.0588 -1.9781
11293SOL     OW38725   5.591   9.490   6.653 -0.1583 -0.6466 -0.4604
11293SOL    HW138726   5.527   9.424   6.679 -1.6574  0.5185 -1.0657
11293SOL    HW238727   5.672   9.464   6.696 -0.6021 -3.0819 -0.9735
11294SOL     OW38728   2.551   0.338   6.207  0.6874  0.2227  0.4659
11294SOL    HW138729   2.494   0.376   6.275  0.9409 -1.5022  1.7060
11294SOL    HW238730   2.623   0.299   6.256  0.7874 -1.2274 -0.7801
11295SOL     OW38731   3.168   8.874   7.043 -0.0549  0.5183  0.5800
11295SOL    HW138732   3.110   8.950   7.035 -0.2339  0.3051 -0.1968
11295SOL    HW238733   3.193   8.873   7.135 -1.2697  0.6241  0.9252
11296SOL     OW38734   1.629   7.428   7.032  0.0626 -0.5581  0.0784
11296SOL    HW138735   1.537   7.416   7.055 -0.5610  0.0052 -1.8986
11296SOL    HW238736   1.660   7.497   7.090 -1.5594  1.1479 -0.9637
11297SOL     OW38737   1.323   8.741   6.324 -0.5046  0.2550 -0.3430
11297SOL    HW138738   1.271   8.691   6.386 -0.9418  0.8034 -0.2623
11297SOL    HW238739   1.337   8.825   6.367  0.5752  0.0644 -0.2958
11298SOL     OW38740   5.297   9.460   6.624 -0.2252 -0.4000  0.5901
11298SOL    HW138741   5.360   9.391   6.645  1.0390  0.4661 -0.2298
11298SOL    HW238742   5.313   9.480   6.532 -0.1564  1.3701  0.9560
11299SOL     OW38743   2.083   0.498   6.243 -0.0239 -0.3268 -0.4721
11299SOL    HW138744   2.059   0.527   6.330 -0.3014 -1.5277 -0.1238
11299SOL    HW238745   2.070   0.403   6.245 -0.5100 -0.3218 -1.9660
11300SOL     OW38746   1.796   8.406   5.324  0.2495  0.2315 -0.3320
11300SOL    HW138747   1.721   8.358   5.289  0.4970  0.3696 -1.0684
11300SOL    HW238748   1.872   8.353   5.299  0.3952 -0.0250  0.6049
11301SOL     OW38749   2.089   0.390   6.767 -0.3443 -0.0717  0.0563
11301SOL    HW138750   2.036   0.348   6.834  0.3425  1.2299  1.4800
11301SOL    HW238751   2.175   0.349   6.775  0.1954  1.1941  1.1296
11302SOL     OW38752   0.345   0.267   8.700  0.0449  0.1164 -0.4729
11302SOL    HW138753   0.296   0.339   8.659  1.7987  1.6914  0.0128
11302SOL    HW238754   0.350   0.292   8.792  2.2034  0.3413 -0.6078
11303SOL     OW38755   3.800   9.637   9.485  0.2674 -0.4782  0.2623
11303SOL    HW138756   3.786   9.602   9.397  1.0782  0.1158 -0.1186
11303SOL    HW238757   3.884   9.599   9.513  0.7782  0.5337  0.1451
11304SOL     OW38758   1.270   0.967   0.530 -0.0613 -0.3271  0.1367
11304SOL    HW138759   1.277   1.002   0.441 -1.5690 -1.6867 -0.5669
11304SOL    HW238760   1.358   0.974   0.566  0.7542 -0.4767 -1.7437
11305SOL     OW38761   3.944   9.841   7.677 -0.0855  0.4205  0.0971
11305SOL    HW138762   3.971   9.838   7.585  0.1864  1.1395  0.1509
11305SOL    HW238763   4.006   9.901   7.719 -1.0563  1.2051  0.4547
11306SOL     OW38764   3.253   8.963   0.702 -0.0354 -0.5970 -0.0903
11306SOL    HW138765   3.290   9.042   0.742  1.7283 -0.6735 -1.4522
11306SOL    HW238766   3.183   8.995   0.645 -1.7106 -0.3852  1.9333
11307SOL     OW38767   5.053   0.480   6.255  0.4779  0.0166 -0.8274
11307SOL    HW138768   4.994   0.544   6.214  0.8127  1.0152  0.2104
11307SOL    HW238769   4.997   0.406   6.277  0.1019 -0.1077 -2.1403
11308SOL     OW38770   9.026   0.205   9.032  0.2902 -0.5044 -0.0491
11308SOL    HW138771   9.034   0.169   8.943  0.6586  0.4237 -0.4003
11308SOL    HW238772   9.114   0.238   9.052 -0.1350  0.5851  0.0909
11309SOL     OW38773   2.693   1.099   7.612  0.2753 -0.2933 -0.4270
11309SOL    HW138774   2.648   1.055   7.684  0.9002 -0.7550 -0.3107
11309SOL    HW238775   2.754   1.034   7.578  1.0817  0.4120 -0.3711
11310SOL     OW38776   3.606   8.648   8.781 -0.2590 -0.3656 -0.3543
11310SOL    HW138777   3.595   8.563   8.739  0.4260 -2.2173  2.9477
11310SOL    HW238778   3.617   8.709   8.707 -1.4738 -2.9392 -2.8662
11311SOL     OW38779   2.759   0.256   9.051 -0.5660 -0.2872  0.7000
11311SOL    HW138780   2.666   0.245   9.030  0.0030 -3.1092 -0.8919
11311SOL    HW238781   2.767   0.220   9.140 -0.9135 -0.6052  0.6061
11312SOL     OW38782   4.349   9.585   8.982 -0.2755  0.5688 -0.1896
11312SOL    HW138783   4.296   9.665   8.970 -2.8321 -1.1525 -1.2724
11312SOL    HW238784   4.298   9.532   9.044  0.1814 -1.1614 -1.2402
11313SOL     OW38785   1.598   9.023   7.709 -0.3529 -0.1728 -0.7693
11313SOL    HW138786   1.591   9.043   7.803 -0.6684  2.5294 -1.2726
11313SOL    HW238787   1.511   8.993   7.685 -1.0663  1.6235 -0.6274
11314SOL     OW38788   3.745   8.654   8.057  0.1384 -0.1985  0.2808
11314SOL    HW138789   3.763   8.694   7.972  1.3108  0.1407  0.6670
11314SOL    HW238790   3.653   8.628   8.053 -0.4107  1.7163 -0.3124
11315SOL     OW38791   3.286   9.449   9.809  0.4613  0.1109  0.6489
11315SOL    HW138792   3.330   9.478   9.729 -0.5367 -0.0648  0.0154
11315SOL    HW238793   3.198   9.425   9.781  0.2695 -0.5213  1.7019
11316SOL     OW38794   2.472   1.471   7.297  0.4046 -0.1240 -0.0961
11316SOL    HW138795   2.506   1.405   7.357 -0.4269 -1.2152 -0.7817
11316SOL    HW238796   2.536   1.473   7.225 -0.1420 -1.0750 -0.6448
11317SOL     OW38797   1.077   2.797   9.450 -0.4279  0.5236  0.0022
11317SOL    HW138798   1.041   2.774   9.535  0.7486  2.2422  1.0388
11317SOL    HW238799   1.008   2.849   9.408  0.5930  3.7848  1.9583
11318SOL     OW38800   1.462   9.120   7.361  0.8437  0.2288 -0.0098
11318SOL    HW138801   1.366   9.121   7.355  0.8981  1.3776 -1.0736
11318SOL    HW238802   1.491   9.092   7.275  1.4776 -1.1309  0.6174
11319SOL     OW38803   1.517   2.974   7.584 -0.4297 -0.9288  0.0492
11319SOL    HW138804   1.432   2.934   7.603  1.1599 -3.2147  3.3173
11319SOL    HW238805   1.519   3.053   7.637  0.3805 -2.3056  2.2072
11320SOL     OW38806   3.461   9.394   8.377 -0.3187  0.6873  0.1904
11320SOL    HW138807   3.375   9.434   8.365  0.0027  1.2960 -0.1600
11320SOL    HW238808   3.452   9.340   8.455 -0.9527  0.9223  0.2869
11321SOL     OW38809   2.848   1.571   8.761 -0.0394  0.3543  0.6734
11321SOL    HW138810   2.906   1.643   8.785 -0.2651  0.8798 -0.2752
11321SOL    HW238811   2.783   1.568   8.831  0.4007  0.5938  1.0981
11322SOL     OW38812   9.842   9.340   8.040 -0.0072  0.4309  0.2101
11322SOL    HW138813   9.797   9.418   8.008  1.1252  1.2240  0.4808
11322SOL    HW238814   9.918   9.331   7.983  0.9614  0.7187  1.4119
11323SOL     OW38815   2.369   9.136   7.711  0.1082  0.3170 -0.0228
11323SOL    HW138816   2.355   9.229   7.729  1.9202  0.9747 -1.6990
11323SOL    HW238817   2.446   9.113   7.762 -0.1398 -0.2019  0.1313
11324SOL     OW38818   1.014   9.701   0.243 -0.1596  0.4750  0.5202
11324SOL    HW138819   1.077   9.651   0.295 -0.3056  0.8325  1.0471
11324SOL    HW238820   0.937   9.644   0.238  0.5203 -0.3515 -0.9047
11325SOL     OW38821   3.788   9.690   7.266  0.0662 -0.8205  0.1955
11325SOL    HW138822   3.856   9.646   7.214  1.4750 -1.1214  2.1741
11325SOL    HW238823   3.713   9.631   7.263  1.7216 -3.2666  2.3261
11326SOL     OW38824   1.763   1.138   8.657 -0.0972 -0.3930  0.1457
11326SOL    HW138825   1.755   1.219   8.707 -0.0503  0.5466 -1.2984
11326SOL    HW238826   1.827   1.086   8.706  1.4451  1.3107  0.0621
11327SOL     OW38827   3.044   1.398   7.045 -0.6045  0.3378 -0.0817
11327SOL    HW138828   3.136   1.398   7.020 -0.6451  1.9005 -0.2930
11327SOL    HW238829   2.997   1.381   6.964 -0.5736  1.5969 -0.3800
11328SOL     OW38830   1.411   9.371   6.840  0.0921  0.0279  0.2688
11328SOL    HW138831   1.329   9.321   6.842  0.9226 -1.4940 -0.9280
11328SOL    HW238832   1.434   9.376   6.747  0.8865  1.2525  0.5042
11329SOL     OW38833   3.438   0.541   6.914 -0.2036 -0.1904 -0.0943
11329SOL    HW138834   3.426   0.487   6.992  0.8374  0.3537  0.4699
11329SOL    HW238835   3.373   0.509   6.851  0.7404 -2.4765  0.0112
11330SOL     OW38836   2.897   0.129   7.933 -0.1973 -0.5660 -0.7607
11330SOL    HW138837   2.884   0.059   7.998 -0.4002  0.4790  0.3760
11330SOL    HW238838   2.980   0.171   7.959 -0.5707  0.2282 -0.8119
11331SOL     OW38839   3.460   8.625   9.536  0.1818 -0.4788  0.5849
11331SOL    HW138840   3.398   8.636   9.608 -2.7210  0.0592 -1.7873
11331SOL    HW238841   3.420   8.560   9.479  3.7770 -3.1357  0.7198
11332SOL     OW38842   4.392   0.049   7.358  0.1857 -0.0063  0.7394
11332SOL    HW138843   4.449   0.106   7.409  1.0029 -0.6687  0.5965
11332SOL    HW238844   4.307   0.092   7.359  1.1038  2.0214 -0.6448
11333SOL     OW38845   4.184   1.257   8.527  0.5322  0.0697  0.4806
11333SOL    HW138846   4.167   1.336   8.579  0.3373 -0.2198  0.8675
11333SOL    HW238847   4.144   1.186   8.578 -0.7613 -0.0691 -0.6712
11334SOL     OW38848   8.528   8.841   0.196 -0.4996  0.2746  0.0222
11334SOL    HW138849   8.522   8.902   0.269 -1.3431  0.5895 -0.3049
11334SOL    HW238850   8.568   8.762   0.234  0.7003  1.0466  0.4177
11335SOL     OW38851   2.584   9.548   0.590 -0.0186  0.7109  0.0175
11335SOL    HW138852   2.635   9.596   0.656  1.0015  1.9787 -1.6366
11335SOL    HW238853   2.570   9.611   0.520 -0.1572 -0.8982 -1.4633
11336SOL     OW38854   2.792   2.071   7.617  0.4920 -0.1408 -0.0067
11336SOL    HW138855   2.805   2.004   7.551  0.6106  0.1146 -0.2470
11336SOL    HW238856   2.759   2.024   7.693 -0.9019 -0.2680 -0.6597
11337SOL     OW38857   2.245   8.730   7.703 -0.1522  0.0587  0.1974
11337SOL    HW138858   2.225   8.765   7.790 -0.3568 -0.4133  0.3416
11337SOL    HW238859   2.330   8.688   7.713 -0.3015 -0.2378  0.2418
11338SOL     OW38860   1.807   0.671   7.823  0.0943 -0.1521 -0.1572
11338SOL    HW138861   1.751   0.749   7.829 -0.2900 -0.2941 -1.4450
11338SOL    HW238862   1.824   0.646   7.914 -1.7333  0.0442  0.2749
11339SOL     OW38863   2.235   8.522   8.607  0.5997  0.0273  0.1987
11339SOL    HW138864   2.309   8.582   8.610  1.1395 -0.6396  0.5636
11339SOL    HW238865   2.159   8.577   8.588  0.8142  1.0929  2.1316
11340SOL     OW38866   3.334   1.357   7.055 -0.6520 -0.8828  0.5687
11340SOL    HW138867   3.427   1.375   7.040 -0.3205 -1.1173  2.1293
11340SOL    HW238868   3.323   1.264   7.031 -0.5654 -0.7660  0.0707
11341SOL     OW38869   3.110   8.582   8.330 -0.6761 -0.0268  0.1506
11341SOL    HW138870   3.073   8.661   8.370 -0.3322  0.9048 -1.2835
11341SOL    HW238871   3.117   8.603   8.237 -0.6789 -1.8128 -0.2941
11342SOL     OW38872   3.513   8.962   9.095 -1.0741 -0.6683 -0.2062
11342SOL    HW138873   3.466   8.931   9.172  0.3684  0.3153  1.1255
11342SOL    HW238874   3.532   9.053   9.114 -0.7257 -0.3854 -1.7777
11343SOL     OW38875   3.662   9.383   9.390  0.2382 -0.6261 -0.3749
11343SOL    HW138876   3.591   9.443   9.411  0.3532 -0.2572 -0.9993
11343SOL    HW238877   3.662   9.319   9.461 -0.1451 -0.1187  0.0858
11344SOL     OW38878   3.007   7.809   8.330  0.2101  0.5907 -0.5338
11344SOL    HW138879   3.079   7.837   8.274  0.7450 -3.8613 -2.5335
11344SOL    HW238880   3.049   7.779   8.410  0.2810  0.5962 -0.5687
11345SOL     OW38881   2.744   8.976   0.915  0.2506 -0.2593  0.5978
11345SOL    HW138882   2.779   8.893   0.948  0.5534 -0.3395  0.0937
11345SOL    HW238883   2.650   8.971   0.932  0.3503 -0.4478  1.1160
11346SOL     OW38884   0.225   2.574   9.056 -0.3146  0.5316 -0.0088
11346SOL    HW138885   0.198   2.483   9.066  0.3472  0.4336  1.1809
11346SOL    HW238886   0.254   2.600   9.144  0.9611  1.4118 -0.6488
11347SOL     OW38887   9.831   0.393   9.447  0.1784 -0.4720 -0.5259
11347SOL    HW138888   9.748   0.439   9.464 -0.2050 -1.4955  0.5887
11347SOL    HW238889   9.899   0.456   9.469 -0.3158  0.0944 -0.5986
11348SOL     OW38890   3.860   1.348   8.056  0.2221  0.6509 -0.1371
11348SOL    HW138891   3.858   1.318   7.964  0.8637  1.9581 -0.6000
11348SOL    HW238892   3.848   1.442   8.051 -3.6320  0.3953  1.4256
11349SOL     OW38893   3.872   1.472   9.031 -0.3646  0.5665 -0.1161
11349SOL    HW138894   3.867   1.398   8.970  0.5667 -0.5370  1.0784
11349SOL    HW238895   3.845   1.435   9.115  0.9125  1.3758  0.6755
11350SOL     OW38896   4.535   9.540   8.742 -0.7159 -0.5048 -0.2376
11350SOL    HW138897   4.477   9.550   8.817 -1.0976 -2.6384 -0.1806
11350SOL    HW238898   4.491   9.588   8.671 -0.6644  0.9943  0.7015
11351SOL     OW38899   3.694   0.073   8.465 -0.0663 -0.0238 -0.3775
11351SOL    HW138900   3.649   0.090   8.382  0.9379 -0.2447 -0.9793
11351SOL    HW238901   3.632   0.019   8.515 -1.5644  1.8545 -0.0964
11352SOL     OW38902   2.427   8.568   8.363 -0.3626  0.0822  0.6003
11352SOL    HW138903   2.462   8.647   8.404 -0.2470  0.1615  0.3471
11352SOL    HW238904   2.355   8.598   8.308  1.1907  0.3469 -1.4067
11353SOL     OW38905   2.166   9.301   9.809  0.6397 -0.5688  0.4246
11353SOL    HW138906   2.147   9.368   9.743  3.5100  0.0897  0.1289
11353SOL    HW238907   2.102   9.316   9.878 -1.2663 -0.0748 -1.3446
11354SOL     OW38908   3.309   0.909   0.218 -0.1217  0.2276  0.0092
11354SOL    HW138909   3.238   0.961   0.257 -0.1825 -0.1531  0.4150
11354SOL    HW238910   3.265   0.831   0.184  0.4299 -1.4373  2.8482
11355SOL     OW38911   3.144   7.640   1.833 -0.5341  0.2021 -0.4572
11355SOL    HW138912   3.048   7.637   1.828 -0.4669  0.0572 -2.5447
11355SOL    HW238913   3.170   7.694   1.759  1.0908 -1.7188 -1.3898
11356SOL     OW38914   1.611   0.831   7.570  0.1558  0.1750 -0.0140
11356SOL    HW138915   1.698   0.799   7.545 -0.0518  0.3262 -0.9339
11356SOL    HW238916   1.621   0.857   7.662  0.4586 -2.0913  0.6667
11357SOL     OW38917   2.147   6.198   7.097  0.0779 -0.7336  0.1386
11357SOL    HW138918   2.083   6.131   7.071  0.3712 -1.0223  0.1555
11357SOL    HW238919   2.143   6.264   7.028 -1.3017 -0.0078  0.8670
11358SOL     OW38920   2.508   0.136   0.476 -0.7392 -0.0852  0.1668
11358SOL    HW138921   2.438   0.143   0.411 -0.5015 -0.6785 -0.1598
11358SOL    HW238922   2.512   0.043   0.497 -0.2657 -0.0090  0.4272
11359SOL     OW38923   5.277   7.859   5.771  0.5427 -0.0234  0.0591
11359SOL    HW138924   5.231   7.828   5.849 -1.9509  0.6270 -1.0541
11359SOL    HW238925   5.295   7.951   5.788  0.4230  0.0008  0.0541
11360SOL     OW38926   3.481   0.598   0.054 -0.0455 -0.6033  0.3784
11360SOL    HW138927   3.444   0.606   0.141 -0.1563 -2.0844  0.4830
11360SOL    HW238928   3.568   0.637   0.061 -0.5061  0.3736  0.8281
11361SOL     OW38929   0.647   9.469   5.536  0.0899 -0.0959 -0.6933
11361SOL    HW138930   0.658   9.463   5.441 -0.9633  0.0790 -0.8387
11361SOL    HW238931   0.591   9.546   5.549 -1.8386 -1.5057 -0.1296
11362SOL     OW38932   2.363   0.504   7.536  0.3729 -0.0618 -0.1865
11362SOL    HW138933   2.420   0.551   7.597  1.5073 -2.4554  0.7113
11362SOL    HW238934   2.417   0.491   7.458  0.2797 -0.3758 -0.2008
11363SOL     OW38935   4.000   9.553   7.140 -0.0676  0.1837  0.5788
11363SOL    HW138936   3.990   9.471   7.093  1.4856  1.2937 -1.8782
11363SOL    HW238937   4.062   9.534   7.210  1.1780 -0.5299 -0.6778
11364SOL     OW38938   2.992   0.205   9.489  0.3551  0.7353  0.3159
11364SOL    HW138939   2.987   0.269   9.418 -1.3351 -0.7494 -1.0030
11364SOL    HW238940   3.086   0.190   9.502  0.7322  0.0558 -2.5886
11365SOL     OW38941   3.102   2.575   8.662  0.1072 -0.1622  0.4834
11365SOL    HW138942   3.010   2.599   8.668 -0.1523 -0.9885  0.0035
11365SOL    HW238943   3.105   2.512   8.590  1.0524 -0.1203  0.4775
11366SOL     OW38944   3.168   1.231   9.496 -0.0097 -0.1479 -0.2398
11366SOL    HW138945   3.194   1.203   9.583  0.6079  1.2448  0.0465
11366SOL    HW238946   3.223   1.179   9.437 -0.6090 -1.2786  0.1526
11367SOL     OW38947   2.068   9.727   8.703 -0.3961 -0.2776 -0.1604
11367SOL    HW138948   2.021   9.690   8.778 -0.1806 -0.2622 -0.0175
11367SOL    HW238949   1.999   9.746   8.639 -0.7479  1.0173  0.5717
11368SOL     OW38950   3.380   8.822   9.305 -0.2024  0.0274 -0.1018
11368SOL    HW138951   3.285   8.814   9.306 -0.4141  1.9880 -0.0050
11368SOL    HW238952   3.401   8.865   9.388  0.9714 -1.8299  0.6267
11369SOL     OW38953   2.063   0.614   0.195 -0.1938  0.0277  0.3170
11369SOL    HW138954   2.136   0.653   0.242  0.3071  0.2904 -0.6547
11369SOL    HW238955   2.023   0.554   0.258  0.9490 -0.2385  0.8058
11370SOL     OW38956   4.226   9.389   9.567  0.1769 -0.2040 -0.6757
11370SOL    HW138957   4.218   9.342   9.484 -1.6764 -1.6223  0.2413
11370SOL    HW238958   4.236   9.320   9.633  2.6067  0.9146  0.2542
11371SOL     OW38959   4.334   0.989   9.169 -0.2764 -0.0957  0.3919
11371SOL    HW138960   4.297   1.025   9.250 -2.0285  1.4958 -1.0271
11371SOL    HW238961   4.385   0.913   9.197 -2.2591 -0.6497  2.8003
11372SOL     OW38962   1.791   9.482   0.431 -0.3323  0.0689 -0.5364
11372SOL    HW138963   1.839   9.403   0.457 -1.0344 -0.8571 -1.9071
11372SOL    HW238964   1.856   9.552   0.437  1.4719 -1.2297 -2.9472
11373SOL     OW38965   3.486   9.518   8.672  0.3222 -0.1564 -0.1526
11373SOL    HW138966   3.429   9.514   8.749  0.0413  2.6925 -0.1184
11373SOL    HW238967   3.458   9.444   8.618 -1.7381 -0.2856  0.9952
11374SOL     OW38968   3.936   9.186   7.690  0.2617 -0.4471  0.1989
11374SOL    HW138969   3.953   9.234   7.609 -2.5291 -0.6696 -0.6206
11374SOL    HW238970   3.885   9.247   7.744  2.2423 -0.2202  1.9869
11375SOL     OW38971   1.881   9.245   0.839  0.1610 -0.1895 -0.4166
11375SOL    HW138972   1.795   9.251   0.879  0.3008  0.3084 -0.1889
11375SOL    HW238973   1.896   9.331   0.800 -0.0946 -0.7429 -1.8130
11376SOL     OW38974   3.352   7.969   9.744  0.3296 -0.0899  0.4017
11376SOL    HW138975   3.410   7.966   9.668 -0.6449 -0.2516 -0.3518
11376SOL    HW238976   3.321   7.879   9.753  0.6691 -0.1334  1.1816
11377SOL     OW38977   4.574   2.332   7.874 -0.5618  0.4340 -0.0986
11377SOL    HW138978   4.483   2.330   7.903 -0.4703  0.0362  0.1784
11377SOL    HW238979   4.608   2.245   7.898 -0.3616  0.2522 -1.0148
11378SOL     OW38980   2.802   8.712   8.656  0.2910  0.4113  0.6274
11378SOL    HW138981   2.757   8.734   8.574  1.4530 -1.4397 -0.5767
11378SOL    HW238982   2.757   8.764   8.722 -1.0648  1.5476 -1.0857
11379SOL     OW38983   5.041   0.120   9.429 -0.5156  0.3756  0.6793
11379SOL    HW138984   4.997   0.077   9.356  0.5556  1.3873 -0.6177
11379SOL    HW238985   5.075   0.202   9.392  0.8861  0.4738  2.0568
11380SOL     OW38986   4.026   7.992   0.763 -0.2413 -0.4441  0.1675
11380SOL    HW138987   3.962   8.059   0.738 -0.0400  0.8542  2.8001
11380SOL    HW238988   4.094   8.041   0.810  1.0631 -2.2351  0.2371
11381SOL     OW38989   2.310   8.781   0.967 -0.2900  0.1105 -0.0189
11381SOL    HW138990   2.359   8.706   1.000 -0.5883  0.5247  1.4212
11381SOL    HW238991   2.218   8.757   0.978 -0.3966  0.1960 -0.6941
11382SOL     OW38992   3.132   0.985   9.378  0.4617  0.2857 -0.2241
11382SOL    HW138993   3.090   0.914   9.427  0.4507 -0.7702 -1.6747
11382SOL    HW238994   3.222   0.984   9.407  0.5986 -0.7383 -0.6201
11383SOL     OW38995   3.406   9.732   0.479  0.3767 -0.9820  0.2795
11383SOL    HW138996   3.324   9.737   0.527  0.6293 -0.4806  0.6675
11383SOL    HW238997   3.398   9.653   0.425 -0.1059 -1.2753  0.7767
11384SOL     OW38998   4.133   8.691   8.534  0.2151  0.3811  0.2116
11384SOL    HW138999   4.105   8.762   8.591  0.5643  0.3377  0.4401
11384SOL    HW239000   4.098   8.612   8.575 -2.2937  0.5680 -1.3042
11385SOL     OW39001   5.722   8.562   8.006  0.0294  0.0764  0.4031
11385SOL    HW139002   5.651   8.511   8.045  0.5706  0.4535  1.9279
11385SOL    HW239003   5.719   8.646   8.052  3.0591 -0.7645  2.4021
11386SOL     OW39004   9.747   1.412   8.048  0.5335 -0.2058  0.0665
11386SOL    HW139005   9.777   1.454   7.967  1.5539 -1.3169 -0.1614
11386SOL    HW239006   9.766   1.476   8.117  2.1591 -0.3041 -0.2580
11387SOL     OW39007   1.991   8.538   0.179  0.2540 -0.5155 -0.6906
11387SOL    HW139008   2.042   8.612   0.145  0.8808 -0.7684 -0.3209
11387SOL    HW239009   1.926   8.520   0.111 -0.7067  1.1390 -0.2847
11388SOL     OW39010   4.275   0.095   2.009  0.3112  0.3488 -0.3037
11388SOL    HW139011   4.255   0.177   1.963 -0.2370  0.9015  0.8484
11388SOL    HW239012   4.249   0.026   1.949 -3.4327  1.0025  0.3023
11389SOL     OW39013   2.330   1.484   7.656 -0.1459 -0.3001  0.2621
11389SOL    HW139014   2.271   1.520   7.723  0.9530 -1.1829  1.7633
11389SOL    HW239015   2.370   1.562   7.616 -0.9222  0.2466  0.5099
11390SOL     OW39016   2.305   9.675   9.328  0.1806 -0.5708 -0.5106
11390SOL    HW139017   2.399   9.655   9.329  0.4757  0.6050  1.3939
11390SOL    HW239018   2.297   9.756   9.378 -1.8350 -0.4851 -0.8694
11391SOL     OW39019   4.430   8.825   1.374  1.1474 -0.0277  0.5222
11391SOL    HW139020   4.341   8.795   1.392  1.8281 -2.1173  0.6438
11391SOL    HW239021   4.456   8.873   1.452  0.5278 -0.4063  0.9658
11392SOL     OW39022   4.634   9.082   8.337  0.5475  0.1341  0.0696
11392SOL    HW139023   4.541   9.074   8.314  0.6579 -2.3862  0.1421
11392SOL    HW239024   4.679   9.063   8.255  0.9691 -0.1347  0.3615
11393SOL     OW39025   4.145   1.436   9.379 -0.5502 -0.1998  0.4997
11393SOL    HW139026   4.083   1.368   9.350 -0.5654  0.2711 -0.6379
11393SOL    HW239027   4.204   1.390   9.439  0.5322 -1.7115 -1.5850
11394SOL     OW39028   2.925   1.316   1.648  0.4446 -0.0611  0.0881
11394SOL    HW139029   2.865   1.317   1.722  1.2873 -1.1043  0.8347
11394SOL    HW239030   2.996   1.376   1.674  1.1843 -1.1004  0.5581
11395SOL     OW39031   4.694   8.265   1.661  0.3174 -0.0717 -0.4506
11395SOL    HW139032   4.756   8.326   1.700  0.3268  0.3679 -1.1373
11395SOL    HW239033   4.632   8.320   1.613 -0.1437 -0.5523 -0.4245
11396SOL     OW39034   6.745   2.090   1.163 -0.0577 -0.3660 -0.1444
11396SOL    HW139035   6.802   2.056   1.233 -0.3522 -3.7336 -1.3311
11396SOL    HW239036   6.674   2.135   1.209 -0.0903 -2.2053  1.7792
11397SOL     OW39037   4.459   0.533   0.301 -0.0497 -0.1082  0.3862
11397SOL    HW139038   4.464   0.495   0.213  0.2852 -1.8836  1.1214
11397SOL    HW239039   4.463   0.457   0.360 -1.0595  0.9717  1.9215
11398SOL     OW39040   5.290   9.838   9.221 -0.0587  0.6602 -0.2356
11398SOL    HW139041   5.335   9.817   9.139  0.1479  0.1629  0.0058
11398SOL    HW239042   5.315   9.928   9.240  0.5372  0.5108 -0.3018
11399SOL     OW39043   7.209   0.490   0.514  0.2468 -0.1403  0.2822
11399SOL    HW139044   7.127   0.532   0.488  0.2588 -0.0509  0.3882
11399SOL    HW239045   7.275   0.527   0.456 -0.0729 -1.5239 -1.0190
11400SOL     OW39046   7.110   0.568   8.992  0.2139  0.1456 -0.3593
11400SOL    HW139047   7.112   0.473   9.005 -1.0747  0.1769  0.2543
11400SOL    HW239048   7.135   0.580   8.900 -2.5962 -1.0504 -1.3883
11401SOL     OW39049   5.597   1.708   3.434  0.6553 -0.5651  0.1743
11401SOL    HW139050   5.619   1.721   3.341  0.3998  0.9768  0.2995
11401SOL    HW239051   5.675   1.738   3.481  0.1230  0.3570  0.4889
11402SOL     OW39052   3.487   1.469   0.445 -0.5248 -0.4233  0.3822
11402SOL    HW139053   3.397   1.438   0.436 -0.6670  0.4264 -1.5388
11402SOL    HW239054   3.490   1.509   0.532 -3.0092  2.5230 -0.7061
11403SOL     OW39055   2.999   1.309   2.186 -0.4165  0.3910  0.2514
11403SOL    HW139056   2.912   1.268   2.188  0.9275 -2.7281  0.9259
11403SOL    HW239057   3.055   1.243   2.145  1.5013  2.7197 -1.0999
11404SOL     OW39058   1.837   1.217   9.713 -0.4580  0.3870  0.7751
11404SOL    HW139059   1.843   1.284   9.781 -2.4331 -0.1664  1.5840
11404SOL    HW239060   1.876   1.139   9.753 -0.0801  0.4996  0.6288
11405SOL     OW39061   3.789   2.392   3.166  0.3447 -0.1131  0.0062
11405SOL    HW139062   3.759   2.473   3.124  0.5087  0.0463  0.1911
11405SOL    HW239063   3.710   2.353   3.202  0.1061 -0.5470 -0.9402
11406SOL     OW39064   4.584   0.156   9.636 -0.1714  0.1544  0.5085
11406SOL    HW139065   4.602   0.163   9.730 -1.2583 -1.6841  0.9096
11406SOL    HW239066   4.490   0.138   9.631  0.3095 -2.5612 -0.7038
11407SOL     OW39067   5.756   0.871   0.879  0.0469 -0.1846  0.3349
11407SOL    HW139068   5.789   0.794   0.832  0.7442  2.2074 -3.5082
11407SOL    HW239069   5.670   0.844   0.910 -0.0165 -2.3726 -1.4307
11408SOL     OW39070   4.157   1.050   9.382  0.0198 -0.5555  0.1110
11408SOL    HW139071   4.215   1.088   9.448  0.8080 -1.1195 -0.2342
11408SOL    HW239072   4.130   0.966   9.420 -0.2744 -0.4609  0.1115
11409SOL     OW39073   5.630   0.098   0.237  0.6220  0.3775 -0.3268
11409SOL    HW139074   5.693   0.072   0.304  0.5795  0.3625 -0.2926
11409SOL    HW239075   5.670   0.175   0.196 -0.2315  1.6328  1.0528
11410SOL     OW39076   1.928   2.473   8.165  0.0434 -0.0469 -0.0775
11410SOL    HW139077   1.980   2.481   8.244  3.1932  2.3345 -2.1461
11410SOL    HW239078   1.960   2.392   8.124 -0.0798 -0.1669  0.0602
11411SOL     OW39079   4.327   1.114   2.521 -0.9058 -0.3253 -0.2664
11411SOL    HW139080   4.265   1.132   2.450 -0.7182  0.1237 -0.3185
11411SOL    HW239081   4.314   1.022   2.541 -1.2410 -0.3571 -0.6176
11412SOL     OW39082   5.956   0.496   1.446 -0.2387  0.4398  0.0140
11412SOL    HW139083   6.050   0.483   1.460 -0.4181  0.7593  1.7491
11412SOL    HW239084   5.940   0.586   1.474 -1.3157 -0.1236  1.3220
11413SOL     OW39085   2.984   0.511   8.934  0.2779 -0.1637 -0.1974
11413SOL    HW139086   3.066   0.505   8.984 -0.3043 -3.6971  0.5971
11413SOL    HW239087   2.915   0.496   8.999 -0.8428  0.2355 -1.2602
11414SOL     OW39088   6.078   0.336   1.091 -0.2074 -0.3286 -0.0175
11414SOL    HW139089   6.002   0.357   1.145 -1.0531 -0.5549 -1.0853
11414SOL    HW239090   6.049   0.351   1.001  0.1080 -2.9540 -0.6497
11415SOL     OW39091   2.537   8.972   1.346 -0.2104  0.0564  0.4508
11415SOL    HW139092   2.554   9.001   1.436  2.1175  1.5004 -0.3520
11415SOL    HW239093   2.593   8.895   1.335  1.1212  1.0886 -0.3228
11416SOL     OW39094   6.639   3.790   9.268 -0.1668 -0.1669 -0.4468
11416SOL    HW139095   6.582   3.744   9.330  2.2857 -0.6055  1.6464
11416SOL    HW239096   6.679   3.720   9.216 -0.6241  0.0455 -1.0918
11417SOL     OW39097   2.165   0.863   1.809 -0.7810 -0.1866  0.6461
11417SOL    HW139098   2.249   0.816   1.809 -0.3842  0.5069  0.9421
11417SOL    HW239099   2.185   0.948   1.849 -1.6269 -0.0120  0.7143
11418SOL     OW39100   5.552   9.419   9.848  0.2715 -0.1692 -0.2631
11418SOL    HW139101   5.646   9.432   9.848  0.2304  0.1211 -0.3009
11418SOL    HW239102   5.540   9.331   9.886  0.4005  1.0191  2.8129
11419SOL     OW39103   6.650   3.039   0.752 -0.7854  0.3485  0.5538
11419SOL    HW139104   6.555   3.029   0.742 -0.4696 -1.9774 -0.7992
11419SOL    HW239105   6.684   3.034   0.663  0.7093 -0.7090  1.1388
11420SOL     OW39106   3.502   1.653   1.384 -0.4367 -0.3366 -0.6024
11420SOL    HW139107   3.478   1.577   1.330  0.5353  0.3439 -2.0759
11420SOL    HW239108   3.597   1.648   1.391 -0.2011  1.3940 -1.8224
11421SOL     OW39109   5.019   1.616   3.509 -0.0505  0.7745  0.6270
11421SOL    HW139110   5.061   1.674   3.573  0.6245 -0.1483  1.0426
11421SOL    HW239111   4.956   1.566   3.560 -0.7463  1.2425  0.2389
11422SOL     OW39112   4.323   9.263   1.526  0.2382  0.6865 -0.6204
11422SOL    HW139113   4.275   9.264   1.443 -0.3115  1.0179 -0.3071
11422SOL    HW239114   4.360   9.175   1.532 -0.9203  0.1858 -0.5428
11423SOL     OW39115   3.413   0.075   1.399 -0.2741  0.4233 -0.2854
11423SOL    HW139116   3.431   0.077   1.493 -3.5917 -1.2501  0.5287
11423SOL    HW239117   3.447   0.158   1.366 -0.5378  1.8356  2.7129
11424SOL     OW39118   6.542   2.251   0.897 -0.5561 -0.7628  0.1458
11424SOL    HW139119   6.586   2.168   0.881 -0.3066 -0.4785 -0.7113
11424SOL    HW239120   6.477   2.258   0.828  0.3287  0.3570 -0.6181
11425SOL     OW39121   4.351   9.589   0.541  0.0928  0.2697  0.6048
11425SOL    HW139122   4.412   9.584   0.615  0.9419  0.9178 -0.0427
11425SOL    HW239123   4.399   9.553   0.467 -1.1170 -1.3527  0.5616
11426SOL     OW39124   4.576   0.411   1.160  0.0141  0.5118  0.1541
11426SOL    HW139125   4.671   0.424   1.162  0.1224 -0.2165 -0.0377
11426SOL    HW239126   4.563   0.320   1.186 -0.5596  0.2814 -0.8738
11427SOL     OW39127   5.550   2.553   9.499 -0.3109 -0.5209  0.0704
11427SOL    HW139128   5.523   2.628   9.551 -0.9462 -0.0903 -0.8437
11427SOL    HW239129   5.589   2.492   9.562 -1.0491 -0.0227  1.0363
11428SOL     OW39130   4.981   1.626   9.600  0.0870  0.2975  0.0973
11428SOL    HW139131   4.922   1.699   9.581 -2.9966 -1.6899  1.2863
11428SOL    HW239132   5.021   1.605   9.515 -1.9507  0.9305 -1.0896
11429SOL     OW39133   3.323   9.838   2.630  0.2285 -0.0555 -0.0224
11429SOL    HW139134   3.321   9.772   2.561  1.1080  0.1913 -0.2874
11429SOL    HW239135   3.367   9.913   2.591  0.5199  0.1738  0.7324
11430SOL     OW39136   6.131   9.134   0.797 -0.1651  0.7021 -0.4879
11430SOL    HW139137   6.059   9.191   0.822  0.6113  1.3123  0.4377
11430SOL    HW239138   6.199   9.150   0.863  1.2241  0.9194 -1.9165
11431SOL     OW39139   4.562   1.351   2.826 -0.4825 -0.1367  0.3625
11431SOL    HW139140   4.551   1.311   2.912 -0.4059 -0.9714 -0.0047
11431SOL    HW239141   4.539   1.281   2.764 -1.8677  0.8390 -0.2926
11432SOL     OW39142   3.331   8.887   1.311 -0.3874  0.1058  0.0376
11432SOL    HW139143   3.305   8.916   1.398 -0.9318 -1.5991  0.4737
11432SOL    HW239144   3.249   8.863   1.268 -0.3068  2.2620 -1.5228
11433SOL     OW39145   5.759   2.254   0.281 -0.9059 -0.5536  0.1313
11433SOL    HW139146   5.725   2.343   0.269 -1.2056 -0.4531  1.6258
11433SOL    HW239147   5.701   2.199   0.229 -1.9180 -0.0979  0.7467
11434SOL     OW39148   7.151   8.286   2.459  0.4859  0.5428 -0.0299
11434SOL    HW139149   7.217   8.353   2.441  0.2223  0.8590  0.1585
11434SOL    HW239150   7.103   8.277   2.377  1.7357 -0.8056 -0.6484
11435SOL     OW39151   4.327   1.569   0.474 -0.1349  0.0280 -0.2807
11435SOL    HW139152   4.314   1.513   0.551 -1.1372  1.3523  0.5508
11435SOL    HW239153   4.238   1.586   0.443  0.0753  1.9736  0.0979
11436SOL     OW39154   3.592   2.904   0.555  0.1526 -0.2976  0.2532
11436SOL    HW139155   3.575   2.820   0.597 -0.8724 -0.4240 -0.3896
11436SOL    HW239156   3.688   2.911   0.555  0.3120 -1.9384 -0.5872
11437SOL     OW39157   3.713   1.496   0.192  0.4614  0.1400  0.0435
11437SOL    HW139158   3.678   1.467   0.276 -0.4577  0.4384 -0.2241
11437SOL    HW239159   3.738   1.587   0.207  0.0683  0.2685 -0.0665
11438SOL     OW39160   4.669   7.095   0.946 -0.0677  0.2095 -0.5821
11438SOL    HW139161   4.746   7.135   0.986  0.0878 -1.3105  0.7984
11438SOL    HW239162   4.603   7.096   1.016 -1.0593  0.8210 -1.5074
11439SOL     OW39163   5.514   3.646   3.682  0.3720 -0.5984 -0.0194
11439SOL    HW139164   5.525   3.675   3.592 -0.5358 -1.1751 -0.3263
11439SOL    HW239165   5.429   3.602   3.684 -1.4540  2.6251  1.9661
11440SOL     OW39166   3.045   1.123   1.482  0.6720  0.1663 -0.4441
11440SOL    HW139167   3.084   1.062   1.545  2.0862  1.4844  0.0084
11440SOL    HW239168   3.003   1.189   1.537  1.2119  0.8874 -0.8859
11441SOL     OW39169   7.260   0.766   1.694  0.1924 -0.2149  0.0453
11441SOL    HW139170   7.217   0.851   1.709  1.0453  0.4852 -1.2810
11441SOL    HW239171   7.197   0.716   1.643  0.6549  0.5918 -1.3810
11442SOL     OW39172   3.381   1.549   1.738 -0.2660 -0.2167 -0.6006
11442SOL    HW139173   3.314   1.568   1.672 -0.5813 -0.3259 -0.3183
11442SOL    HW239174   3.435   1.628   1.741 -1.0830  0.3379 -0.0075
11443SOL     OW39175   5.412   9.014   0.863  0.0387 -0.2696 -0.2310
11443SOL    HW139176   5.366   9.027   0.946 -2.5946 -0.6087 -1.5268
11443SOL    HW239177   5.438   9.101   0.836  1.0816 -0.1683  0.9794
11444SOL     OW39178   5.673   2.441   1.186  0.0475  0.1912  0.3552
11444SOL    HW139179   5.709   2.377   1.125  1.3436  0.6518  0.6182
11444SOL    HW239180   5.689   2.526   1.146 -0.2059  0.4336  0.7565
11445SOL     OW39181   6.906   1.074   8.690  0.5632  0.3033  0.4327
11445SOL    HW139182   6.990   1.078   8.736  1.0689 -0.6429 -0.3680
11445SOL    HW239183   6.881   0.982   8.695  0.0350  0.4149 -0.1452
11446SOL     OW39184   6.610   3.305   9.158  0.1256 -0.7224  0.7930
11446SOL    HW139185   6.604   3.295   9.063 -2.5449 -1.0664  0.9221
11446SOL    HW239186   6.645   3.393   9.171  1.5600 -1.0744 -0.4768
11447SOL     OW39187   4.203   0.490   0.264  0.1606  0.4776 -0.4349
11447SOL    HW139188   4.292   0.496   0.298  0.1756  0.3405 -0.4512
11447SOL    HW239189   4.191   0.571   0.213 -0.1745  1.1326  0.6387
11448SOL     OW39190   5.172   3.207   7.941  0.0944 -0.4970  0.2067
11448SOL    HW139191   5.100   3.145   7.930 -1.8762  1.7390 -0.2752
11448SOL    HW239192   5.223   3.198   7.860  0.3140 -1.9899  0.4772
11449SOL     OW39193   2.606   1.071   9.212 -0.0464 -0.6149  0.0817
11449SOL    HW139194   2.661   1.000   9.244 -2.5422 -2.9804 -0.5336
11449SOL    HW239195   2.565   1.106   9.291 -0.4645 -1.3508  0.1971
11450SOL     OW39196   3.272   0.838   2.151  0.2068 -0.1354 -0.2217
11450SOL    HW139197   3.360   0.858   2.117  1.0785  0.1770  2.0003
11450SOL    HW239198   3.219   0.914   2.126  0.1906 -0.8891 -2.6725
11451SOL     OW39199   4.165   1.693   9.627  0.3345 -0.5620  0.1346
11451SOL    HW139200   4.161   1.611   9.676  1.1053 -0.2529  0.7278
11451SOL    HW239201   4.179   1.761   9.693 -0.3987  0.0684 -0.3360
11452SOL     OW39202   2.575   9.601   1.430 -0.5774  0.2904  0.1999
11452SOL    HW139203   2.480   9.607   1.421 -0.5420  0.5246 -0.0056
11452SOL    HW239204   2.609   9.676   1.382 -0.1075 -1.6703 -2.7985
11453SOL     OW39205   4.412   8.801   2.663 -0.0399  0.7121 -0.3711
11453SOL    HW139206   4.425   8.872   2.726 -0.1159 -0.3586  0.8952
11453SOL    HW239207   4.500   8.777   2.635  0.1911 -0.4436  1.2387
11454SOL     OW39208   5.438   7.862   9.711 -0.0455  0.0721  0.0912
11454SOL    HW139209   5.352   7.851   9.751 -0.1445  2.7693  0.7967
11454SOL    HW239210   5.429   7.825   9.623 -1.5066 -0.8160  0.5684
11455SOL     OW39211   4.150   7.797   3.788 -0.3154  0.0615  0.0092
11455SOL    HW139212   4.209   7.866   3.821 -0.5516 -0.8865  2.6981
11455SOL    HW239213   4.072   7.844   3.759 -0.3721  0.9841  1.5480
11456SOL     OW39214   5.620   8.644   3.344  0.1068 -0.6356 -0.2620
11456SOL    HW139215   5.639   8.570   3.403  0.0341  2.8300  4.6628
11456SOL    HW239216   5.706   8.670   3.312  0.7625 -0.2415  1.6490
11457SOL     OW39217   5.073   0.776   1.796 -0.0611 -0.0336  0.1015
11457SOL    HW139218   5.061   0.726   1.876  0.5038 -0.0305  0.1971
11457SOL    HW239219   5.052   0.715   1.725  1.6368 -0.7718  0.1702
11458SOL     OW39220   4.724   0.771   0.131  0.3238 -0.3477 -0.2553
11458SOL    HW139221   4.631   0.794   0.140  0.4823  0.9940 -1.6107
11458SOL    HW239222   4.739   0.706   0.199 -1.3550  0.2032  0.7098
11459SOL     OW39223   3.469   0.920   9.192 -0.3165 -0.9727 -0.1458
11459SOL    HW139224   3.550   0.916   9.242 -0.1881 -0.4411 -0.3060
11459SOL    HW239225   3.496   0.945   9.104 -0.6738 -0.5035 -0.1286
11460SOL     OW39226   6.765   0.444   0.971 -0.1081 -0.3575 -0.6362
11460SOL    HW139227   6.740   0.450   1.063  1.4772  0.1984 -0.2209
11460SOL    HW239228   6.689   0.480   0.924 -0.7421 -0.2094  0.4605
11461SOL     OW39229   4.938   8.980   9.730 -0.1171  0.5916  0.0271
11461SOL    HW139230   4.879   9.055   9.738  0.4626  0.9532  1.1909
11461SOL    HW239231   4.966   8.961   9.820  0.9371 -0.0554 -0.4077
11462SOL     OW39232   3.697   0.629   1.957  0.5295 -0.5428 -0.0241
11462SOL    HW139233   3.621   0.570   1.953  2.0398 -2.6054  0.1287
11462SOL    HW239234   3.749   0.607   1.880  0.5179  1.5660 -0.6878
11463SOL     OW39235   5.721   0.361   1.502  0.3521  0.6104  0.7198
11463SOL    HW139236   5.787   0.428   1.490  0.7465  0.5661  2.3933
11463SOL    HW239237   5.763   0.280   1.473  0.4451  0.8235  0.2487
11464SOL     OW39238   4.663   0.828   9.622  0.0417  0.1211 -0.0006
11464SOL    HW139239   4.685   0.906   9.672  0.1495 -0.8795  1.5882
11464SOL    HW239240   4.583   0.851   9.574  0.5648  1.4690 -0.2526
11465SOL     OW39241   2.411   2.586   8.821 -0.4271  0.6723 -0.0096
11465SOL    HW139242   2.340   2.533   8.856 -0.0754 -0.5332 -1.0023
11465SOL    HW239243   2.430   2.546   8.736  1.4620  0.9161  0.2548
11466SOL     OW39244   4.443   0.859   1.081 -0.1785 -0.2288 -0.0131
11466SOL    HW139245   4.361   0.909   1.084  0.5151  1.0761 -1.3011
11466SOL    HW239246   4.457   0.842   0.988  0.6723 -1.0291  0.2522
11467SOL     OW39247   4.221   1.675   1.542 -0.4032  0.4684  0.0639
11467SOL    HW139248   4.282   1.606   1.566 -0.0411  1.5525  2.6287
11467SOL    HW239249   4.134   1.636   1.556 -0.2403  0.0528 -0.0654
11468SOL     OW39250   3.853   2.167   1.452 -0.0772  0.2817 -0.4207
11468SOL    HW139251   3.930   2.111   1.456 -1.0235 -1.0246  0.3849
11468SOL    HW239252   3.820   2.157   1.363  0.0458 -0.0305 -0.4307
11469SOL     OW39253   2.688   9.028   2.422  0.1801  0.2333 -0.3721
11469SOL    HW139254   2.640   9.110   2.408  0.9534  0.6840 -0.4503
11469SOL    HW239255   2.645   8.965   2.365 -0.0240  0.7524 -0.8033
11470SOL     OW39256   5.161   2.883   1.846 -0.4015 -0.2205 -0.3690
11470SOL    HW139257   5.087   2.919   1.797 -0.4365  2.2312  1.3146
11470SOL    HW239258   5.122   2.851   1.928  0.4533  2.6729  1.3157
11471SOL     OW39259   6.500   8.632   0.686  0.3535 -0.2478 -0.3889
11471SOL    HW139260   6.425   8.673   0.643 -0.2322 -1.9867 -1.1262
11471SOL    HW239261   6.471   8.616   0.776 -0.7768 -2.2352 -1.0420
11472SOL     OW39262   3.272   0.170   9.500  0.2573  0.3832 -0.3547
11472SOL    HW139263   3.341   0.236   9.503 -0.6315  1.2945  0.6202
11472SOL    HW239264   3.263   0.149   9.407  0.5929  1.5840 -0.6684
11473SOL     OW39265   3.777   0.213   0.772 -0.8045  0.3952 -0.4654
11473SOL    HW139266   3.810   0.125   0.758 -1.8182 -0.0213 -0.3729
11473SOL    HW239267   3.852   0.263   0.805 -0.6620 -0.9079  1.2866
11474SOL     OW39268   2.527   1.534   9.828  0.0471  0.0117 -0.7129
11474SOL    HW139269   2.442   1.526   9.872 -0.2278  0.2631 -1.1938
11474SOL    HW239270   2.582   1.578   9.892  0.3597 -1.7620  0.3200
11475SOL     OW39271   5.460   0.328   1.471  0.4369  0.2126  0.1402
11475SOL    HW139272   5.554   0.342   1.485  0.3750 -0.1606  0.9619
11475SOL    HW239273   5.427   0.412   1.440  1.0632  0.3175 -0.2535
11476SOL     OW39274   5.323   8.514   8.854 -0.2867 -0.6494  0.3307
11476SOL    HW139275   5.265   8.537   8.926 -0.6398  2.6458 -0.8135
11476SOL    HW239276   5.404   8.561   8.873 -0.2886  0.0320 -1.2076
11477SOL     OW39277   4.511   9.263   1.256  0.7566 -0.1504  0.0715
11477SOL    HW139278   4.416   9.251   1.250  0.8420 -0.4157 -0.9203
11477SOL    HW239279   4.532   9.240   1.346  0.0615 -1.4464 -0.0770
11478SOL     OW39280   4.962   1.288   2.379 -0.0553 -0.1586  0.2670
11478SOL    HW139281   4.985   1.238   2.457  0.9395 -1.2758 -0.6992
11478SOL    HW239282   4.948   1.222   2.311 -3.9419  0.5599  0.1247
11479SOL     OW39283   5.001   1.591   2.902 -0.1592  0.6067  0.3344
11479SOL    HW139284   4.917   1.638   2.897 -0.8324 -0.3717  1.6800
11479SOL    HW239285   4.977   1.499   2.889  0.7497  0.3522  0.4325
11480SOL     OW39286   4.272   9.652   1.854 -0.5968 -0.7887  0.6546
11480SOL    HW139287   4.307   9.584   1.796 -1.8226 -1.3366  0.5250
11480SOL    HW239288   4.291   9.734   1.809 -0.7057 -1.1529 -0.0666
11481SOL     OW39289   4.517   9.472   1.966 -0.0321  0.8055 -0.4812
11481SOL    HW139290   4.465   9.469   1.886 -1.2785  1.3456  0.2845
11481SOL    HW239291   4.597   9.519   1.941 -0.6631  1.4943 -1.2627
11482SOL     OW39292   3.765   8.680   2.000 -0.1862  0.4573 -0.4113
11482SOL    HW139293   3.814   8.702   2.079 -0.8383  2.2444 -0.4681
11482SOL    HW239294   3.701   8.751   1.990 -1.6450 -0.9074 -1.2888
11483SOL     OW39295   5.605   1.847   1.585  0.2253 -0.2063  0.2724
11483SOL    HW139296   5.696   1.824   1.603  0.1011 -0.7167  0.2566
11483SOL    HW239297   5.588   1.922   1.641  0.9398  0.4911 -0.4218
11484SOL     OW39298   3.801   9.856   9.679 -0.5607  1.1720 -0.2576
11484SOL    HW139299   3.876   9.912   9.659  0.7733 -0.0884  0.9662
11484SOL    HW239300   3.798   9.794   9.606 -1.4247  2.1718 -1.1062
11485SOL     OW39301   5.052   0.511   0.227 -0.6655 -0.2196 -0.6968
11485SOL    HW139302   4.967   0.544   0.257 -0.3835 -0.0926  0.0068
11485SOL    HW239303   5.085   0.579   0.168  1.0552  2.2041  2.6696
11486SOL     OW39304   4.557   8.767   8.951 -0.3767  0.2916 -0.1692
11486SOL    HW139305   4.539   8.711   9.027  0.7256  1.1861  0.7787
11486SOL    HW239306   4.470   8.794   8.921 -0.8264  1.0675  1.6666
11487SOL     OW39307   3.386   1.884   0.158 -0.2076  0.2037 -0.0916
11487SOL    HW139308   3.297   1.860   0.187 -0.5536 -0.2403 -1.4514
11487SOL    HW239309   3.424   1.802   0.128  0.8526  0.3123  0.9125
11488SOL     OW39310   3.152   2.059   9.776 -0.7074  0.4476 -0.0891
11488SOL    HW139311   3.172   2.110   9.855  0.2576  1.1774 -0.7815
11488SOL    HW239312   3.148   2.124   9.706 -0.8494 -0.2751 -0.7624
11489SOL     OW39313   5.710   9.171   1.377 -0.4282 -0.2116  0.1948
11489SOL    HW139314   5.662   9.108   1.431  0.3186 -0.4188  0.6227
11489SOL    HW239315   5.694   9.142   1.287  0.5023 -1.4611  0.4152
11490SOL     OW39316   6.307   1.773   0.432 -0.0060 -0.4008 -0.5031
11490SOL    HW139317   6.305   1.678   0.444 -1.3948 -0.6006 -1.9794
11490SOL    HW239318   6.385   1.790   0.380 -0.0170 -0.8008 -0.6504
11491SOL     OW39319   6.089   0.518   1.757  0.2338 -0.2349  0.9575
11491SOL    HW139320   6.140   0.494   1.680  0.4891  0.7659  0.8019
11491SOL    HW239321   6.138   0.483   1.831  1.0890  0.6002  0.8029
11492SOL     OW39322   5.069   0.259   1.846 -0.0973 -0.2292 -0.3844
11492SOL    HW139323   5.158   0.284   1.821 -0.0760  0.0334 -0.0616
11492SOL    HW239324   5.066   0.164   1.832 -0.1838 -0.0594 -1.6367
11493SOL     OW39325   4.254   9.539   3.519  0.2423  0.1672  1.4054
11493SOL    HW139326   4.259   9.506   3.609  0.0870 -0.5322  1.1592
11493SOL    HW239327   4.222   9.465   3.468  0.4677  0.5194  0.7478
11494SOL     OW39328   2.846   0.850   0.572  0.6801  0.3630  0.1303
11494SOL    HW139329   2.892   0.769   0.593  1.3026  1.0485  1.5455
11494SOL    HW239330   2.878   0.913   0.636  0.4158  1.8141 -1.0925
11495SOL     OW39331   3.952   0.948   1.402 -0.4470 -0.1172  0.4775
11495SOL    HW139332   3.915   0.902   1.478  0.1054  1.0493  1.4917
11495SOL    HW239333   4.018   0.888   1.368 -0.3826 -0.4729  1.2012
11496SOL     OW39334   5.057   1.313   1.265  0.3178  0.0913  0.0363
11496SOL    HW139335   4.996   1.239   1.270  0.0918  0.3543  1.7147
11496SOL    HW239336   5.141   1.276   1.289  0.2607  0.3226  0.5902
11497SOL     OW39337   5.202   9.206   2.774 -0.5111 -0.1552 -0.5898
11497SOL    HW139338   5.240   9.280   2.726 -0.3678  0.0228 -0.2075
11497SOL    HW239339   5.110   9.205   2.747 -0.8448  1.0236  0.4418
11498SOL     OW39340   4.859   9.654   9.851  0.8975  0.3604 -0.5485
11498SOL    HW139341   4.936   9.618   9.808  1.1919  0.2889  0.0284
11498SOL    HW239342   4.870   9.749   9.845  1.1920  0.3510 -0.1876
11499SOL     OW39343   4.989   1.051   0.557 -0.7856 -0.5080 -0.0177
11499SOL    HW139344   4.985   1.009   0.471  0.2937 -2.0654  0.6506
11499SOL    HW239345   4.928   1.125   0.550  0.7055  0.6226 -2.7462
11500SOL     OW39346   4.151   0.768   1.293 -0.4816 -0.2223  0.1665
11500SOL    HW139347   4.199   0.746   1.373  0.3301  2.5584  0.5681
11500SOL    HW239348   4.190   0.713   1.226  1.5721  0.1341  0.9843
11501SOL     OW39349   3.616   9.472   8.171 -0.2239  0.1034 -0.2558
11501SOL    HW139350   3.696   9.424   8.193 -1.1546 -1.1355  0.6464
11501SOL    HW239351   3.554   9.448   8.241 -0.8674  2.3841  0.0373
11502SOL     OW39352   5.824   0.373   1.191 -0.0659  0.2487  0.1318
11502SOL    HW139353   5.850   0.406   1.277  2.4048 -1.0158 -0.0450
11502SOL    HW239354   5.776   0.446   1.152 -1.2509  0.8595  2.5252
11503SOL     OW39355   4.843   1.508   0.165  0.0139  0.2847  0.0874
11503SOL    HW139356   4.789   1.485   0.089 -0.2532  3.0524 -0.6710
11503SOL    HW239357   4.794   1.577   0.210  1.8882  1.3350  0.6326
11504SOL     OW39358   5.553   0.952   1.942  0.6931 -0.0482 -0.3010
11504SOL    HW139359   5.614   0.924   2.011 -0.5783  1.0275  1.3242
11504SOL    HW239360   5.468   0.954   1.984 -0.1691  0.4686 -1.9825
11505SOL     OW39361   5.253   0.195   1.109 -0.2627 -0.0900 -0.2770
11505SOL    HW139362   5.238   0.131   1.039 -0.8949 -2.9080  2.1903
11505SOL    HW239363   5.165   0.214   1.142  0.1320 -0.6110  1.1477
11506SOL     OW39364   2.881   2.322   0.047 -0.4211 -0.7127  0.0749
11506SOL    HW139365   2.812   2.381   0.077  0.9984  1.0213  0.0811
11506SOL    HW239366   2.890   2.342  -0.046 -1.5730 -2.7151 -0.5258
11507SOL     OW39367   4.311   9.086   0.434  0.3432 -0.0947 -0.3433
11507SOL    HW139368   4.290   9.165   0.484  0.1753 -0.9354  0.9469
11507SOL    HW239369   4.370   9.037   0.491 -1.0388 -1.7877 -0.2839
11508SOL     OW39370   4.476   0.004   8.774 -0.2703  0.0996  0.0524
11508SOL    HW139371   4.462   0.021   8.867 -1.9802  2.9842 -0.5842
11508SOL    HW239372   4.390   0.015   8.734  0.7437  1.0536 -2.0831
11509SOL     OW39373   3.136   1.112   0.291  0.3316  0.4665  0.4962
11509SOL    HW139374   3.187   1.177   0.243  0.5503  1.2606  1.7755
11509SOL    HW239375   3.048   1.118   0.254  0.6863  0.4788 -0.3637
11510SOL     OW39376   2.498   1.969   1.800  0.2534  0.1342  0.2198
11510SOL    HW139377   2.499   1.878   1.769  0.3022  0.5164 -0.9723
11510SOL    HW239378   2.418   2.006   1.762  1.5998  1.3151 -1.6059
11511SOL     OW39379   6.362   0.283   1.157  0.3231 -0.6327  0.6626
11511SOL    HW139380   6.404   0.263   1.073  2.3396 -2.0449  1.9265
11511SOL    HW239381   6.268   0.271   1.140  0.8042 -2.8365 -0.9407
11512SOL     OW39382   3.829   9.114   1.768 -0.0859  0.4161 -0.4638
11512SOL    HW139383   3.760   9.180   1.771 -0.2920  0.1807  0.3379
11512SOL    HW239384   3.857   9.104   1.859 -0.4998 -1.0325 -0.4542
11513SOL     OW39385   6.012   0.368   0.828 -0.4994  0.1166  0.0767
11513SOL    HW139386   6.102   0.375   0.797 -0.4137 -0.5533  0.1541
11513SOL    HW239387   6.000   0.274   0.845 -0.3930  0.4802  2.5223
11514SOL     OW39388   3.238   0.108   9.244 -0.0373 -0.3261  0.2210
11514SOL    HW139389   3.158   0.072   9.205 -1.3471  0.9061  1.6015
11514SOL    HW239390   3.288   0.142   9.170 -0.7204 -1.2137 -0.6811
11515SOL     OW39391   4.001   1.684   0.051 -0.2442 -0.0415 -0.2220
11515SOL    HW139392   4.030   1.597   0.075  1.0121  0.1834 -0.8493
11515SOL    HW239393   3.956   1.717   0.129  2.9047  0.3338  1.5894
11516SOL     OW39394   3.262   0.739   1.015 -0.4132  0.7132 -0.1891
11516SOL    HW139395   3.302   0.775   1.095  0.4939 -0.0231 -0.2894
11516SOL    HW239396   3.318   0.771   0.944  0.7530 -1.2628 -0.2390
11517SOL     OW39397   3.660   0.898   1.744 -0.3114  0.1871 -0.1769
11517SOL    HW139398   3.619   0.963   1.801 -3.0361 -1.2879 -0.2426
11517SOL    HW239399   3.605   0.820   1.754  1.9278 -1.6359 -1.2300
11518SOL     OW39400   2.395   2.380   0.584  0.8484  0.8870 -0.4139
11518SOL    HW139401   2.329   2.417   0.524  1.3661  0.5325 -1.2090
11518SOL    HW239402   2.371   2.288   0.592  1.3375  0.7136 -0.8512
11519SOL     OW39403   5.517   0.831   1.050  0.3264 -0.1492 -0.6183
11519SOL    HW139404   5.453   0.886   1.095  0.0236 -1.1048  0.1564
11519SOL    HW239405   5.464   0.775   0.993  0.4621 -0.8683 -0.0568
11520SOL     OW39406   4.205   2.588   9.724  0.3555  0.0853 -0.3394
11520SOL    HW139407   4.141   2.645   9.682 -0.7098  0.0481  1.1802
11520SOL    HW239408   4.180   2.500   9.697 -0.0718  0.0924  0.0219
11521SOL     OW39409   4.326   3.001   1.605 -0.9403  0.1002  0.5787
11521SOL    HW139410   4.420   2.990   1.591 -0.3895  2.9572  1.4392
11521SOL    HW239411   4.311   2.969   1.694 -0.7081 -0.0497  0.5632
11522SOL     OW39412   5.065   1.713   0.520 -0.6201  0.0861 -0.2484
11522SOL    HW139413   5.143   1.752   0.559 -0.3447 -0.6231 -0.0809
11522SOL    HW239414   4.998   1.720   0.588 -0.3933 -0.3052  0.0232
11523SOL     OW39415   2.898   0.463   8.664  0.3324 -0.0499 -0.0720
11523SOL    HW139416   2.887   0.473   8.759  0.3131 -1.8830  0.1602
11523SOL    HW239417   2.848   0.535   8.626 -3.8324 -1.9756  1.1907
11524SOL     OW39418   3.477   1.332   1.470 -0.1597  0.5357  0.0863
11524SOL    HW139419   3.557   1.372   1.436  0.0255  0.7810  0.7965
11524SOL    HW239420   3.429   1.404   1.510  0.0738  0.1172  1.1753
11525SOL     OW39421   4.735   0.143   0.657  0.1641 -0.2433  0.1894
11525SOL    HW139422   4.695   0.231   0.661 -1.1430 -0.7997  0.0230
11525SOL    HW239423   4.800   0.149   0.587 -1.2088  0.1058 -1.1079
11526SOL     OW39424   4.904   9.430   0.720  0.0804 -0.1477 -0.1615
11526SOL    HW139425   4.821   9.385   0.738  0.2430 -0.0819  0.7907
11526SOL    HW239426   4.877   9.511   0.675 -0.1902 -1.2832 -2.1717
11527SOL     OW39427   4.081   1.753   9.079  0.5770 -0.2861 -0.3428
11527SOL    HW139428   4.098   1.844   9.054 -0.2309 -0.0741 -0.1572
11527SOL    HW239429   4.066   1.755   9.173  1.5981 -0.7799 -0.1581
11528SOL     OW39430   4.347   3.844   8.884  0.0332  0.4631 -0.5920
11528SOL    HW139431   4.388   3.759   8.868  2.2558  1.7753 -2.3909
11528SOL    HW239432   4.402   3.885   8.951  0.5818  1.5225 -1.6776
11529SOL     OW39433   3.186   0.647   1.564  0.1606 -0.1068  0.0996
11529SOL    HW139434   3.098   0.629   1.529 -0.3406  0.5338  0.9791
11529SOL    HW239435   3.189   0.742   1.574  0.6913 -0.1826  0.7361
11530SOL     OW39436   6.280   3.145   0.788 -0.2637 -0.0503 -0.4823
11530SOL    HW139437   6.322   3.085   0.727 -0.8551  0.1349 -1.0851
11530SOL    HW239438   6.253   3.091   0.862  0.6402 -0.2411 -0.2777
11531SOL     OW39439   4.066   9.687   0.497 -0.5265 -0.1518  0.2502
11531SOL    HW139440   4.084   9.599   0.467  1.1604 -0.1283  1.0457
11531SOL    HW239441   3.972   9.689   0.514 -0.8642 -1.2638 -1.3404
11532SOL     OW39442   4.754   9.672   8.089  0.6135 -0.0826  0.2960
11532SOL    HW139443   4.803   9.591   8.104  0.3785 -0.4443 -0.7771
11532SOL    HW239444   4.662   9.644   8.087  0.5976 -0.0023 -1.2070
11533SOL     OW39445   5.814   1.827   2.201  0.2832  0.4213  0.1245
11533SOL    HW139446   5.789   1.735   2.196 -2.5892  1.1112 -0.0920
11533SOL    HW239447   5.894   1.828   2.254  0.0018 -2.1119  0.7027
11534SOL     OW39448   2.488   3.143   0.681 -0.4959 -0.1379 -0.2464
11534SOL    HW139449   2.483   3.222   0.735 -1.6569 -1.2252  1.3458
11534SOL    HW239450   2.417   3.154   0.618 -0.2399  0.3717 -0.4555
11535SOL     OW39451   4.490   7.781   0.988  1.3866  0.0853 -0.1627
11535SOL    HW139452   4.503   7.864   1.035 -3.0647  0.7819  0.2727
11535SOL    HW239453   4.485   7.806   0.896 -2.6809  1.0097  0.1250
11536SOL     OW39454   4.320   0.456   1.686 -0.5330 -0.0222  0.0852
11536SOL    HW139455   4.402   0.469   1.639 -0.4501 -0.4436  0.1118
11536SOL    HW239456   4.253   0.448   1.618 -0.6546  0.9526  0.0715
11537SOL     OW39457   3.238   3.658   9.857 -0.4038  0.2323 -0.5264
11537SOL    HW139458   3.154   3.661   9.811 -1.1753  1.5926  0.8853
11537SOL    HW239459   3.219   3.612   9.939  0.4476 -0.2472 -0.5918
11538SOL     OW39460   4.288   0.426   0.760 -0.0566  0.3729  0.0000
11538SOL    HW139461   4.252   0.354   0.709 -0.1247 -0.3105  0.9819
11538SOL    HW239462   4.351   0.385   0.819  1.4109  1.3902 -0.7920
11539SOL     OW39463   7.241   9.465   9.569  0.2975  0.0476 -0.0569
11539SOL    HW139464   7.175   9.531   9.549  1.6488  1.0418 -1.5244
11539SOL    HW239465   7.226   9.443   9.661 -1.4826  0.8781 -0.1019
11540SOL     OW39466   4.090   0.168   1.360 -0.1841 -0.3295 -0.2343
11540SOL    HW139467   4.117   0.257   1.384  0.8351 -0.4507 -0.8909
11540SOL    HW239468   4.003   0.179   1.320  0.1242  0.4223 -0.7108
11541SOL     OW39469   5.839   1.453   7.167  0.3382 -0.1105 -0.2667
11541SOL    HW139470   5.855   1.426   7.077 -0.2517  0.7618 -0.6530
11541SOL    HW239471   5.780   1.387   7.203  0.5706 -0.4541 -0.5178
11542SOL     OW39472   4.284   1.316   1.322  0.0030 -0.2755  0.2513
11542SOL    HW139473   4.340   1.268   1.260  2.8794 -0.1148  2.5348
11542SOL    HW239474   4.265   1.398   1.277  0.8614 -0.7123 -0.9804
11543SOL     OW39475   7.092   1.287   0.295 -0.2018  0.0613 -0.1187
11543SOL    HW139476   7.056   1.202   0.270  1.5978 -1.2032  1.3412
11543SOL    HW239477   7.125   1.324   0.214 -1.5877 -0.2992 -0.8837
11544SOL     OW39478   6.876   9.428   8.389 -0.5395  0.1402  0.7341
11544SOL    HW139479   6.907   9.519   8.395 -0.4188  0.0458  1.6778
11544SOL    HW239480   6.846   9.407   8.478  1.9906 -1.6232  1.2836
11545SOL     OW39481   5.952   0.907   2.337 -0.4236 -0.2265 -0.4072
11545SOL    HW139482   6.047   0.900   2.337 -0.4175 -0.2458 -1.4381
11545SOL    HW239483   5.921   0.817   2.327 -0.5458 -0.1775 -0.4710
11546SOL     OW39484   4.895   9.151   0.237 -0.5253  0.1789  0.1833
11546SOL    HW139485   4.952   9.227   0.222 -0.6967 -0.0877 -2.1370
11546SOL    HW239486   4.948   9.092   0.290  0.2396  1.2001  0.5878
11547SOL     OW39487   4.616   2.993   0.212  0.0424  0.1084 -0.0448
11547SOL    HW139488   4.674   3.034   0.148 -0.6123 -0.4959 -1.0557
11547SOL    HW239489   4.534   2.978   0.165  0.0635 -1.8465  0.4185
11548SOL     OW39490   3.384   9.501   0.784 -0.3348  0.0530  0.3506
11548SOL    HW139491   3.449   9.569   0.768 -0.6691  0.2678 -0.0876
11548SOL    HW239492   3.317   9.544   0.838 -1.5271  0.6471 -1.5118
11549SOL     OW39493   2.986   0.690   0.953  0.1445  0.3018  0.3119
11549SOL    HW139494   2.927   0.753   0.993  0.2094 -0.3958  1.5661
11549SOL    HW239495   3.074   0.727   0.968  0.1029  0.6769 -0.3522
11550SOL     OW39496   2.515   8.304   9.096  0.1547 -0.0205  0.0379
11550SOL    HW139497   2.453   8.312   9.168 -1.1939  0.8658 -1.1443
11550SOL    HW239498   2.588   8.254   9.132 -0.9378 -0.5176  1.6947
11551SOL     OW39499   4.868   1.598   9.029 -0.6003  0.1001 -0.1799
11551SOL    HW139500   4.912   1.558   8.953  1.2628  0.8296  0.4480
11551SOL    HW239501   4.801   1.654   8.991  0.4479  0.6232 -1.3409
11552SOL     OW39502   6.300   0.088   2.210 -0.0563 -0.0403 -0.0803
11552SOL    HW139503   6.360   0.092   2.285  1.1692  1.0735 -1.0568
11552SOL    HW239504   6.286   0.180   2.185  1.0885 -0.3853 -2.3127
11553SOL     OW39505   6.460   0.764   9.819 -0.0214 -0.0055 -0.3116
11553SOL    HW139506   6.526   0.831   9.803 -0.6187  0.5618 -0.4651
11553SOL    HW239507   6.415   0.792   9.899 -1.5447  0.8531 -1.4034
11554SOL     OW39508   5.717   1.455   2.693  0.3636  0.2933  0.6817
11554SOL    HW139509   5.650   1.404   2.739  0.5612  0.6332  1.3563
11554SOL    HW239510   5.800   1.416   2.722  0.4688 -0.5158 -0.5983
11555SOL     OW39511   6.313   7.573   1.794 -0.1585 -0.2330  0.1204
11555SOL    HW139512   6.342   7.571   1.885  0.9806  4.3675  0.0943
11555SOL    HW239513   6.238   7.633   1.793  1.2465  1.6982 -2.1212
11556SOL     OW39514   6.244   1.399   2.648  0.4202  0.1065  0.0522
11556SOL    HW139515   6.170   1.364   2.599 -1.0179  2.7263  0.1622
11556SOL    HW239516   6.292   1.452   2.585  1.7995 -0.9043  0.1969
11557SOL     OW39517   3.976   1.200   0.863 -0.2788  0.0321 -0.6179
11557SOL    HW139518   4.023   1.119   0.881  0.9213  0.6929 -0.6429
11557SOL    HW239519   3.950   1.233   0.949  0.0287  0.0754 -0.5408
11558SOL     OW39520   4.457   0.867   0.789 -0.1710  0.3835 -0.2390
11558SOL    HW139521   4.524   0.935   0.781 -0.9613  1.0843 -1.1428
11558SOL    HW239522   4.454   0.825   0.703  0.5622 -1.0695  0.4149
11559SOL     OW39523   3.325   9.111   5.659 -0.3710  0.0606 -0.7431
11559SOL    HW139524   3.331   9.029   5.610 -2.4141  0.5481 -1.9225
11559SOL    HW239525   3.413   9.149   5.653  0.1561 -1.2253 -1.6152
11560SOL     OW39526   3.794   1.725   0.304  0.2455 -0.4823  0.0135
11560SOL    HW139527   3.747   1.807   0.293 -2.6057 -1.8111  1.4692
11560SOL    HW239528   3.861   1.744   0.369 -0.6383  0.6118  0.6261
11561SOL     OW39529   4.034   3.783   9.433  0.3934  0.2568  0.3298
11561SOL    HW139530   4.071   3.695   9.444  0.5489  0.4618  1.5878
11561SOL    HW239531   3.939   3.769   9.432  0.4038 -0.1660 -1.9924
11562SOL     OW39532   5.293   2.131   1.828 -0.3101  0.0169  0.0842
11562SOL    HW139533   5.381   2.158   1.851 -0.0332 -1.5256  0.9979
11562SOL    HW239534   5.251   2.210   1.793 -0.0232  2.0033  3.7690
11563SOL     OW39535   2.926   0.587   1.447 -0.1740 -0.3675  0.0190
11563SOL    HW139536   2.845   0.546   1.479 -1.2421 -0.1687 -2.2617
11563SOL    HW239537   2.896   0.656   1.388  1.6725  0.4593 -0.0143
11564SOL     OW39538   4.738   1.906   1.432  0.3269  0.2869 -0.0583
11564SOL    HW139539   4.681   1.839   1.471  0.0920 -1.5910 -3.2488
11564SOL    HW239540   4.827   1.877   1.453  0.1992 -0.5037 -0.5601
11565SOL     OW39541   6.807   2.541   2.301 -0.7524  0.6365 -0.3645
11565SOL    HW139542   6.786   2.628   2.269 -1.9350  0.0574 -1.2507
11565SOL    HW239543   6.792   2.483   2.225 -0.6570 -0.4166  0.3918
11566SOL     OW39544   5.485   8.548   2.932  0.0918  0.6054 -0.1768
11566SOL    HW139545   5.500   8.495   3.010  2.4650 -1.8558 -2.0886
11566SOL    HW239546   5.409   8.602   2.953 -0.9730 -1.8109  2.8624
11567SOL     OW39547   3.346   1.479   8.034 -0.2303  1.0231 -0.1106
11567SOL    HW139548   3.392   1.421   8.095 -2.2194  1.6907  2.1668
11567SOL    HW239549   3.339   1.429   7.953  0.0864 -1.0345  1.0818
11568SOL     OW39550   3.502   1.673   9.845  0.4339  0.0380  0.5598
11568SOL    HW139551   3.556   1.633   9.776 -2.9168  0.3936 -2.6300
11568SOL    HW239552   3.464   1.598   9.891  0.6922 -0.2967  0.2435
11569SOL     OW39553   5.061   9.020   2.450 -0.0004  0.0471  0.1049
11569SOL    HW139554   5.137   9.037   2.395 -1.1068  2.2043 -0.8740
11569SOL    HW239555   5.093   8.959   2.517  2.3869  0.3689 -0.6480
11570SOL     OW39556   4.316   1.876   1.366  0.2746  0.3137 -0.6378
11570SOL    HW139557   4.307   1.805   1.430  0.5606  2.8180  2.4073
11570SOL    HW239558   4.239   1.931   1.381  1.7298  2.3969 -0.4579
11571SOL     OW39559   5.604   8.465   4.820 -0.1078 -0.6143  0.1535
11571SOL    HW139560   5.692   8.437   4.845  0.5487  0.2694 -1.0875
11571SOL    HW239561   5.614   8.556   4.794 -1.9354  0.3995  2.6499
11572SOL     OW39562   2.817   9.573   1.822  0.0778 -0.3978  0.2873
11572SOL    HW139563   2.872   9.574   1.900 -0.4732 -2.7783  0.7659
11572SOL    HW239564   2.728   9.581   1.856 -0.0700  0.3190 -0.2488
11573SOL     OW39565   3.283   8.657   9.764  0.0736  0.2761 -0.3509
11573SOL    HW139566   3.331   8.726   9.809 -1.1090  0.7398  0.2690
11573SOL    HW239567   3.218   8.628   9.828 -1.0151  0.2731 -1.4102
11574SOL     OW39568   3.017   9.809   9.149 -0.4774 -0.2668  0.0180
11574SOL    HW139569   2.927   9.842   9.145 -0.6455 -0.4605  1.6172
11574SOL    HW239570   3.015   9.728   9.098 -1.4052 -0.6517  0.6467
11575SOL     OW39571   6.679   2.384   7.838 -0.0967  0.1673 -0.6510
11575SOL    HW139572   6.629   2.332   7.775  0.3638 -1.4279  0.2368
11575SOL    HW239573   6.676   2.332   7.919 -0.0737  1.8086  0.4479
11576SOL     OW39574   5.518   9.406   9.264  0.2692 -0.1946  0.0559
11576SOL    HW139575   5.556   9.433   9.348 -1.3183  1.7049  0.2387
11576SOL    HW239576   5.580   9.440   9.198  0.8465 -0.5410  0.4107
11577SOL     OW39577   5.278   9.059   0.556 -0.2300  0.1205 -0.2222
11577SOL    HW139578   5.211   9.113   0.598 -1.4071 -1.6606  0.3441
11577SOL    HW239579   5.296   8.991   0.621  0.7160 -0.5331 -1.1515
11578SOL     OW39580   4.526   9.459   2.388  0.1773 -0.3359  0.2578
11578SOL    HW139581   4.522   9.506   2.472 -0.0541  1.5001 -0.7321
11578SOL    HW239582   4.435   9.433   2.372 -0.1166  1.0029 -0.3213
11579SOL     OW39583   2.028   2.390   2.471  0.1825  0.1176  0.4274
11579SOL    HW139584   2.074   2.426   2.546 -1.9276  0.3968  1.6520
11579SOL    HW239585   1.939   2.372   2.502 -0.5911 -0.3768 -1.8182
11580SOL     OW39586   4.075   2.184   1.639 -0.4266  0.2025 -0.2957
11580SOL    HW139587   4.105   2.098   1.610 -0.9152 -0.3969  0.9148
11580SOL    HW239588   4.132   2.206   1.712 -0.3357  0.8892 -0.5692
11581SOL     OW39589   5.625   2.369   4.384  0.5181 -0.0879 -0.6127
11581SOL    HW139590   5.642   2.366   4.478 -3.2651 -4.1830  0.2703
11581SOL    HW239591   5.693   2.314   4.345  0.5095 -0.6242  0.1157
11582SOL     OW39592   2.191   2.643   1.919  0.1370  0.3756  0.4589
11582SOL    HW139593   2.120   2.620   1.860 -1.1471  3.1429  0.7796
11582SOL    HW239594   2.215   2.561   1.961 -2.5632 -0.7473 -0.0040
11583SOL     OW39595   5.309   0.330   1.733  0.1780  0.1301 -0.3128
11583SOL    HW139596   5.381   0.314   1.793  0.8555  3.4797 -0.0221
11583SOL    HW239597   5.345   0.313   1.646  0.3619 -1.0810 -0.0101
11584SOL     OW39598   4.836   3.810   4.488  0.2298 -0.1202  0.1121
11584SOL    HW139599   4.785   3.753   4.430  0.6417  0.7421 -1.1624
11584SOL    HW239600   4.909   3.756   4.516 -1.1216 -1.2483  1.6495
11585SOL     OW39601   5.037   9.732   2.788  0.5768 -0.4880 -0.2503
11585SOL    HW139602   4.960   9.683   2.759 -0.8290  0.1092  2.2163
11585SOL    HW239603   5.024   9.744   2.882  2.5207  1.7187 -0.1737
11586SOL     OW39604   2.524   1.336   1.223  0.5392 -0.6187  0.1133
11586SOL    HW139605   2.592   1.322   1.289 -1.2907  1.2743  2.5586
11586SOL    HW239606   2.488   1.249   1.206  2.8952 -1.5366 -0.6122
11587SOL     OW39607   5.842   2.066   3.792 -0.4700  0.0501 -0.2322
11587SOL    HW139608   5.823   2.158   3.771 -0.1003  0.6763  1.8554
11587SOL    HW239609   5.827   2.060   3.886 -1.4686 -2.3253 -0.4763
11588SOL     OW39610   4.847   0.929   2.811  0.1822 -0.4105  0.1933
11588SOL    HW139611   4.757   0.897   2.806  0.0852 -0.4405  1.7153
11588SOL    HW239612   4.901   0.850   2.809  0.1163 -0.4592  0.3225
11589SOL     OW39613   5.316   7.591   3.139 -0.3445 -0.5099  0.3752
11589SOL    HW139614   5.342   7.520   3.081  3.1328 -0.0195  1.0670
11589SOL    HW239615   5.308   7.667   3.081  0.4326 -0.5817  0.1500
11590SOL     OW39616   3.770   1.423   2.829 -0.3797  0.3177  0.0916
11590SOL    HW139617   3.765   1.517   2.810  2.7627  0.0792 -3.0150
11590SOL    HW239618   3.732   1.381   2.753  2.9770 -0.7859 -1.1556
11591SOL     OW39619   2.917   9.077   2.245  0.0556 -0.1045 -0.0701
11591SOL    HW139620   2.880   9.119   2.168  2.0906  1.7430 -0.1419
11591SOL    HW239621   2.843   9.066   2.305 -1.0527  0.9603 -1.2006
11592SOL     OW39622   2.554   1.479   2.512 -0.3056  0.4020 -0.0419
11592SOL    HW139623   2.547   1.401   2.566 -0.4962  0.2569 -0.2736
11592SOL    HW239624   2.550   1.552   2.574 -0.4270  0.2355  0.1472
11593SOL     OW39625   5.489   2.569   2.525  0.2847  0.1602  0.3410
11593SOL    HW139626   5.570   2.518   2.521  0.5900  0.6425  0.2490
11593SOL    HW239627   5.439   2.540   2.449  0.7172  0.4262 -0.0549
11594SOL     OW39628   4.028   0.058   1.037 -0.1467 -0.1681 -0.1035
11594SOL    HW139629   3.934   0.043   1.046 -0.2737  1.3628  1.7063
11594SOL    HW239630   4.068  -0.004   1.098  0.1565 -1.5429 -1.6073
11595SOL     OW39631   6.256   0.742   3.199 -0.5385 -0.0270  0.4081
11595SOL    HW139632   6.261   0.652   3.228 -1.4871 -0.3871 -0.4600
11595SOL    HW239633   6.175   0.776   3.237 -1.0103 -0.0472 -0.5323
11596SOL     OW39634   5.935   4.151   2.187  0.0979  0.3376 -0.8518
11596SOL    HW139635   5.986   4.193   2.256  0.8596  1.0893 -1.8334
11596SOL    HW239636   5.845   4.153   2.219  0.7589 -2.0488  1.4304
11597SOL     OW39637   3.652   1.294   1.741  0.1963 -0.2984  0.0990
11597SOL    HW139638   3.711   1.289   1.666  1.1210  1.5568  0.6495
11597SOL    HW239639   3.660   1.208   1.783  1.8301 -0.4015 -0.3478
11598SOL     OW39640   8.701   2.340   3.262  0.3786  0.5391 -0.6722
11598SOL    HW139641   8.637   2.364   3.329  0.1140 -1.0854 -0.3028
11598SOL    HW239642   8.784   2.375   3.295 -0.0745  1.4427 -0.4623
11599SOL     OW39643   4.651   1.066   1.107 -0.6059 -0.0199 -0.0001
11599SOL    HW139644   4.658   1.142   1.049 -1.2624  0.3819  0.4321
11599SOL    HW239645   4.564   1.030   1.089 -0.0118 -1.1398 -0.7582
11600SOL     OW39646   4.084   1.792   4.493  0.0407  0.0573  0.0825
11600SOL    HW139647   4.041   1.735   4.556  2.0710 -0.5953  0.9685
11600SOL    HW239648   4.083   1.879   4.534 -1.8681  0.4481 -0.6767
11601SOL     OW39649   3.941   1.205   5.014 -0.4837 -0.4897  0.6528
11601SOL    HW139650   4.012   1.219   5.076  1.8752  0.1767 -1.9871
11601SOL    HW239651   3.966   1.128   4.964 -0.2911  1.0763 -1.8738
11602SOL     OW39652   5.208   1.977   4.121 -0.3238  0.1501  0.8441
11602SOL    HW139653   5.210   2.066   4.086  0.2461 -0.3073 -0.3490
11602SOL    HW239654   5.123   1.942   4.093  0.0999 -0.1897 -0.0553
11603SOL     OW39655   4.442   0.216   1.491 -0.0592 -0.5183  0.2488
11603SOL    HW139656   4.501   0.290   1.478  0.4250 -0.7618  0.9871
11603SOL    HW239657   4.407   0.198   1.404 -0.2104  0.5874  0.0589
11604SOL     OW39658   2.660   1.373   2.293 -0.2257  0.1857 -0.6274
11604SOL    HW139659   2.710   1.301   2.332 -1.8783 -0.8835 -0.3951
11604SOL    HW239660   2.611   1.411   2.366 -1.3003 -0.1041 -1.1771
11605SOL     OW39661   5.922   1.437   3.507 -0.5913  0.1390 -0.0508
11605SOL    HW139662   5.887   1.524   3.487  0.1444  0.2304 -0.9851
11605SOL    HW239663   5.867   1.377   3.455 -0.4715  0.1331 -0.1711
11606SOL     OW39664   4.767   1.434   4.023 -0.1607  0.2428  0.0324
11606SOL    HW139665   4.706   1.402   3.956  0.1013 -1.8345  0.7183
11606SOL    HW239666   4.849   1.389   4.004 -0.0540 -0.2979  1.6509
11607SOL     OW39667   3.526   1.002   4.286 -0.2733  0.1649  0.3461
11607SOL    HW139668   3.619   1.010   4.264  0.0721  0.1877  1.7358
11607SOL    HW239669   3.481   1.017   4.203  1.0112 -2.2844 -0.8931
11608SOL     OW39670   6.360   1.537   3.868 -0.4404 -0.1380  0.2804
11608SOL    HW139671   6.350   1.571   3.957  0.1219 -0.3966  0.4438
11608SOL    HW239672   6.367   1.442   3.880 -0.7457 -0.2082 -0.0736
11609SOL     OW39673   3.131   8.279   2.106 -0.0271  0.2505  0.2594
11609SOL    HW139674   3.219   8.296   2.072 -0.6339  1.4172 -0.7785
11609SOL    HW239675   3.088   8.228   2.039 -1.4113  3.0286 -1.1361
11610SOL     OW39676   5.703   1.728   2.748  0.3162 -0.0073  0.0780
11610SOL    HW139677   5.624   1.758   2.794  0.5049 -0.8765  1.0081
11610SOL    HW239678   5.686   1.636   2.730  2.0896 -0.9274  2.5740
11611SOL     OW39679   3.350   2.183   1.264 -0.1247 -0.9128 -0.5651
11611SOL    HW139680   3.267   2.207   1.305  0.0827 -0.4042 -0.4363
11611SOL    HW239681   3.385   2.265   1.230  0.6661 -1.0005  0.0084
11612SOL     OW39682   4.677   0.152   1.679 -0.2933  0.2419  0.4678
11612SOL    HW139683   4.725   0.195   1.609  0.2431  1.1419  1.3530
11612SOL    HW239684   4.589   0.189   1.673 -0.4830 -0.3077 -0.2381
11613SOL     OW39685   3.916   0.862   4.045 -0.1987 -0.2483 -0.2060
11613SOL    HW139686   3.842   0.878   3.986 -1.0572  1.0262  1.1546
11613SOL    HW239687   3.945   0.773   4.024 -0.1874  0.2863 -2.8265
11614SOL     OW39688   5.065   0.603   2.378 -0.7612  0.0786 -0.0597
11614SOL    HW139689   5.123   0.569   2.446  1.5356  0.8814 -1.5040
11614SOL    HW239690   4.997   0.651   2.425  1.1449  1.1986  1.6954
11615SOL     OW39691   6.785   8.228   0.808  0.1417 -0.8878  0.3612
11615SOL    HW139692   6.861   8.172   0.790  0.9689 -0.1173  1.2859
11615SOL    HW239693   6.712   8.167   0.819  0.5889 -1.6385 -0.6549
11616SOL     OW39694   2.228   3.293   4.003  0.3958 -0.6124  0.3234
11616SOL    HW139695   2.177   3.369   3.973  2.0620  0.6549  0.5546
11616SOL    HW239696   2.206   3.285   4.095  0.4879 -0.1895  0.3833
11617SOL     OW39697   7.233   9.241   2.645  0.3578 -0.4634  0.7738
11617SOL    HW139698   7.291   9.247   2.721  2.9153 -0.2205 -1.0657
11617SOL    HW239699   7.192   9.328   2.639  1.9482  0.3096  0.5797
11618SOL     OW39700   3.388   1.490   3.285  0.2780 -0.0997 -0.2413
11618SOL    HW139701   3.320   1.543   3.326  0.3926 -0.6714  0.7174
11618SOL    HW239702   3.405   1.420   3.347  0.1032 -1.3049 -1.4987
11619SOL     OW39703   5.780   1.344   2.449  0.0795  0.3694  0.1218
11619SOL    HW139704   5.765   1.392   2.530  1.0195  0.9728 -0.0584
11619SOL    HW239705   5.747   1.256   2.467  1.7119  0.0326  1.7235
11620SOL     OW39706   3.214   3.339   1.593  0.1241  0.4008 -0.7253
11620SOL    HW139707   3.218   3.346   1.688  1.2641 -0.2875 -0.7003
11620SOL    HW239708   3.289   3.284   1.570 -0.3393  0.2612 -1.9928
11621SOL     OW39709   6.121   9.144   1.730  0.1723  0.1312  0.3732
11621SOL    HW139710   6.181   9.098   1.671 -1.5565  2.1000 -3.2147
11621SOL    HW239711   6.034   9.114   1.704 -0.6737  0.2149  2.8536
11622SOL     OW39712   4.860   0.100   3.087 -0.2029  0.2083  0.5255
11622SOL    HW139713   4.801   0.149   3.144 -1.2387 -1.0117  0.5563
11622SOL    HW239714   4.826   0.113   2.999 -0.0420  0.1592  0.4554
11623SOL     OW39715   4.405   4.524   1.551  0.3443 -0.3984 -0.5077
11623SOL    HW139716   4.441   4.463   1.487  0.1158 -1.5222  0.4118
11623SOL    HW239717   4.358   4.469   1.613  2.5150  0.3478  1.9839
11624SOL     OW39718   5.769   0.513   2.927 -0.1230 -0.0380 -0.3688
11624SOL    HW139719   5.777   0.596   2.880 -0.4791  0.4929  0.4781
11624SOL    HW239720   5.801   0.447   2.865 -2.3045  0.3843 -2.0940
11625SOL     OW39721   4.234   1.002   0.174  0.1931 -0.4515 -0.4505
11625SOL    HW139722   4.183   0.924   0.153  0.8140 -0.8075 -0.6447
11625SOL    HW239723   4.181   1.047   0.241  0.0659 -1.2969  0.0398
11626SOL     OW39724   5.271   1.051   1.114  0.2782  0.7131  0.1550
11626SOL    HW139725   5.272   1.102   1.195 -1.4550 -0.4183  0.9283
11626SOL    HW239726   5.201   0.987   1.126  1.1396 -0.6271 -1.5461
11627SOL     OW39727   5.413   2.199   1.182  0.5459  0.5410  0.5552
11627SOL    HW139728   5.448   2.146   1.255  1.3854 -1.5042 -1.2267
11627SOL    HW239729   5.491   2.229   1.135  0.0423 -1.2186 -1.5226
11628SOL     OW39730   2.744   2.079   1.718  0.3306 -0.0310  0.0754
11628SOL    HW139731   2.680   2.115   1.657  0.2923  0.4203  0.3746
11628SOL    HW239732   2.704   1.998   1.750 -0.1389  0.2976  0.3335
11629SOL     OW39733   4.033   9.561   3.146 -0.8435  0.0155  0.2637
11629SOL    HW139734   4.074   9.602   3.069 -0.2305  0.5904  0.8891
11629SOL    HW239735   4.106   9.536   3.202 -1.3309  0.5574  1.1497
11630SOL     OW39736   7.077   2.077   3.005  0.5284 -0.4925 -0.3844
11630SOL    HW139737   7.067   2.024   3.083  0.4025  0.0299 -0.0411
11630SOL    HW239738   7.111   2.161   3.037  0.5018 -0.2855 -0.8880
11631SOL     OW39739   3.870   9.781   0.787 -0.1393 -0.2920 -0.0014
11631SOL    HW139740   3.841   9.773   0.878  0.0927 -0.4547  0.0591
11631SOL    HW239741   3.919   9.700   0.771 -2.4415 -1.5871 -1.0928
11632SOL     OW39742   4.618   2.359   4.038 -0.1458  0.2929  0.1025
11632SOL    HW139743   4.608   2.340   4.132  1.5811 -1.4438  0.0134
11632SOL    HW239744   4.558   2.298   3.995 -0.8972  1.0515  0.0447
11633SOL     OW39745   4.035   1.425   0.158  0.3848 -0.3763  0.6478
11633SOL    HW139746   4.029   1.342   0.205  1.5564 -0.6072  0.4195
11633SOL    HW239747   3.997   1.407   0.072  1.7525 -1.0548  0.1518
11634SOL     OW39748   3.138   9.312   5.599 -0.5114  0.4363  0.1957
11634SOL    HW139749   3.059   9.311   5.653 -0.9267  1.2266 -0.3728
11634SOL    HW239750   3.188   9.236   5.628 -0.4633  1.1353  2.0717
11635SOL     OW39751   3.086   2.295   2.713 -0.0703 -0.5878 -0.3161
11635SOL    HW139752   3.121   2.326   2.629  2.4296 -0.8775  0.5475
11635SOL    HW239753   3.082   2.200   2.703 -1.4793 -0.5098 -0.6860
11636SOL     OW39754   4.476   0.423   4.126  0.0401 -0.2222 -0.7023
11636SOL    HW139755   4.437   0.356   4.181  1.3764 -0.3766  0.1043
11636SOL    HW239756   4.485   0.500   4.182  0.3923 -0.0195 -1.0262
11637SOL     OW39757   9.140   2.498   3.187  0.1132  0.0802 -0.0859
11637SOL    HW139758   9.131   2.404   3.168  1.2659 -0.1521  0.4195
11637SOL    HW239759   9.135   2.540   3.101  0.6073 -0.5426 -0.4265
11638SOL     OW39760   5.115   8.594   0.449  0.2911 -0.2997 -0.2607
11638SOL    HW139761   5.116   8.504   0.481 -0.1901 -0.9991 -2.1012
11638SOL    HW239762   5.057   8.592   0.373  1.4044  1.2547 -1.2059
11639SOL     OW39763   3.914   0.659   2.928  0.4472  0.0892 -0.0571
11639SOL    HW139764   3.851   0.728   2.907 -0.3537 -0.7334 -0.4306
11639SOL    HW239765   3.968   0.696   2.998 -1.2694  0.3567  1.1848
11640SOL     OW39766   5.721   1.194   1.565  0.0102 -0.4892  0.3019
11640SOL    HW139767   5.627   1.211   1.574  0.0842 -0.6785  1.5780
11640SOL    HW239768   5.758   1.280   1.545 -0.3303 -0.2415  0.7118
11641SOL     OW39769   4.173   9.791   2.436 -0.1036 -0.0555  0.0108
11641SOL    HW139770   4.100   9.742   2.474  1.7208 -1.5108  1.8476
11641SOL    HW239771   4.204   9.848   2.506 -0.6014  1.9750 -1.3335
11642SOL     OW39772   6.894   1.821   3.424 -0.0227 -0.0425  0.0533
11642SOL    HW139773   6.920   1.899   3.376  0.7695 -0.3364 -0.0001
11642SOL    HW239774   6.893   1.752   3.358  1.9331 -0.6401  0.5874
11643SOL     OW39775   5.019   1.218   2.029 -0.3649 -0.1853  0.2327
11643SOL    HW139776   4.972   1.186   1.951  0.7635  0.0871 -0.5851
11643SOL    HW239777   5.004   1.151   2.095  0.2262 -1.3904 -0.8103
11644SOL     OW39778   3.355   3.599   5.126 -0.6046 -0.7601  0.0260
11644SOL    HW139779   3.271   3.583   5.083 -1.5564  0.3344  1.3866
11644SOL    HW239780   3.332   3.619   5.217  1.1018 -0.0337  0.3404
11645SOL     OW39781   4.345   1.956   3.942  0.2140  0.2066  0.1776
11645SOL    HW139782   4.265   1.905   3.949  1.4058 -1.6142  1.2004
11645SOL    HW239783   4.396   1.912   3.874  1.3647 -0.1725  1.2485
11646SOL     OW39784   4.243   0.598   2.933 -0.2931  0.4293  0.2506
11646SOL    HW139785   4.198   0.514   2.940 -1.6654  0.8576 -2.3290
11646SOL    HW239786   4.260   0.623   3.024 -1.0147 -2.0022  1.1311
11647SOL     OW39787   4.607   2.044   3.051 -0.4828  0.2484  0.5225
11647SOL    HW139788   4.539   1.980   3.029 -0.3976  0.1684  0.4916
11647SOL    HW239789   4.629   2.084   2.967  0.8828 -1.0785  0.2134
11648SOL     OW39790   4.442   1.259   1.612  0.1884  0.4610  0.3732
11648SOL    HW139791   4.348   1.243   1.623 -0.0157  1.8961  0.9248
11648SOL    HW239792   4.466   1.207   1.536 -1.0840  0.1883  0.1318
11649SOL     OW39793   4.295   1.001   1.399 -0.5316 -0.0692 -0.4530
11649SOL    HW139794   4.293   0.914   1.440 -0.7823 -0.5068 -1.3725
11649SOL    HW239795   4.385   1.030   1.411 -0.1626 -0.9073 -1.0244
11650SOL     OW39796   4.573   1.734   1.560 -0.0655  0.4014  0.5443
11650SOL    HW139797   4.499   1.752   1.617 -0.1748  0.2499  0.4527
11650SOL    HW239798   4.559   1.644   1.529 -0.2141  0.6111 -0.0212
11651SOL     OW39799   4.179   9.166   4.217 -0.1211  0.2475 -0.6633
11651SOL    HW139800   4.266   9.206   4.206  0.3526 -0.8215 -1.0124
11651SOL    HW239801   4.194   9.095   4.279 -0.7135 -0.0601 -0.8696
11652SOL     OW39802   5.911   1.018   0.416 -0.3734  0.0031  0.4050
11652SOL    HW139803   5.923   0.992   0.507 -0.2850  0.3247  0.4856
11652SOL    HW239804   5.827   0.980   0.390 -0.1368 -0.5601  0.4523
11653SOL     OW39805   1.941   0.438   3.220  0.4190  0.6703 -0.4065
11653SOL    HW139806   1.994   0.426   3.141  0.8580  2.2888 -0.4121
11653SOL    HW239807   1.935   0.351   3.259 -0.1458 -0.2455 -2.4179
11654SOL     OW39808   3.435   0.930   5.339 -0.3489  0.1417 -0.0920
11654SOL    HW139809   3.390   1.014   5.343  0.1800  0.4130  0.4048
11654SOL    HW239810   3.406   0.883   5.417 -0.1903  0.1060 -0.0524
11655SOL     OW39811   7.442   8.614   4.622 -0.2722  0.0162  0.6362
11655SOL    HW139812   7.511   8.561   4.660  0.2921 -0.3230 -0.8004
11655SOL    HW239813   7.362   8.587   4.669  0.3807 -0.3444  1.5685
11656SOL     OW39814   5.270   2.949   5.041 -0.5115 -0.2800  0.2746
11656SOL    HW139815   5.365   2.949   5.025 -0.3006 -1.4713  1.3349
11656SOL    HW239816   5.261   2.989   5.128 -1.0870  0.7141 -0.2247
11657SOL     OW39817   6.548   1.336   3.379  0.3292 -0.0796 -0.4186
11657SOL    HW139818   6.524   1.365   3.291  0.5775 -2.7162 -1.4384
11657SOL    HW239819   6.474   1.283   3.408  0.4079  0.4691  0.8524
11658SOL     OW39820   4.169   0.278   2.273  0.4573  0.1753 -0.1904
11658SOL    HW139821   4.089   0.266   2.221  0.1736 -1.2144  0.4945
11658SOL    HW239822   4.151   0.228   2.354  1.5640  0.8247  0.4706
11659SOL     OW39823   5.733   8.976   2.721  0.4502  0.0155 -0.2113
11659SOL    HW139824   5.746   9.061   2.762  0.4462 -0.0468 -0.0805
11659SOL    HW239825   5.638   8.965   2.720  0.4111  0.3604 -0.9440
11660SOL     OW39826   5.601   2.807   4.455  0.0131  0.2081 -0.3430
11660SOL    HW139827   5.684   2.806   4.408  0.8941 -0.0619  1.1825
11660SOL    HW239828   5.546   2.745   4.406  1.4471 -1.3170 -0.1233
11661SOL     OW39829   5.879   2.045   2.437  0.0752  0.8974  0.2908
11661SOL    HW139830   5.940   2.071   2.506  1.1527  1.8170 -0.9595
11661SOL    HW239831   5.926   1.978   2.388  0.2253  1.8127 -0.8596
11662SOL     OW39832   5.934   1.782   4.580  0.1255  0.0824 -0.0736
11662SOL    HW139833   5.914   1.730   4.502  2.2896  0.2560 -0.8065
11662SOL    HW239834   5.924   1.720   4.653  0.2749 -0.6988 -0.7069
11663SOL     OW39835   3.310   2.359   2.868  0.1619  0.3062 -0.1426
11663SOL    HW139836   3.260   2.345   2.788 -0.0283 -0.7930  0.1523
11663SOL    HW239837   3.362   2.279   2.878  0.9602  0.8648  0.2818
11664SOL     OW39838   5.307   0.986   2.029 -0.3626  0.2558  0.3361
11664SOL    HW139839   5.287   1.028   2.113  0.2654 -0.3730  0.8141
11664SOL    HW239840   5.278   0.896   2.040 -0.9728  0.3535 -0.4013
11665SOL     OW39841   4.131   1.223   1.699 -0.2729 -0.0845 -0.3215
11665SOL    HW139842   4.061   1.270   1.744 -0.3892 -0.7293  0.1677
11665SOL    HW239843   4.171   1.168   1.766 -0.7404 -1.3929 -1.0955
11666SOL     OW39844   4.091   0.596   4.596 -0.0959  0.0090  0.3682
11666SOL    HW139845   4.028   0.599   4.668 -0.8390  1.1868 -0.2978
11666SOL    HW239846   4.176   0.591   4.639 -0.5949 -0.6220  1.3009
11667SOL     OW39847   6.560   8.143   0.225 -0.0146 -0.5215 -0.2418
11667SOL    HW139848   6.596   8.118   0.311 -1.4392  0.2351  0.6226
11667SOL    HW239849   6.621   8.209   0.193 -0.2208  0.2666  0.8941
11668SOL     OW39850   3.964   2.011   1.941 -0.0841 -0.5458 -0.7372
11668SOL    HW139851   3.902   1.982   2.008 -0.0244 -1.4986 -1.0894
11668SOL    HW239852   3.908   2.047   1.871 -0.1160  2.9845  0.8693
11669SOL     OW39853   5.171   0.528   2.602 -0.6993 -0.0244 -0.0494
11669SOL    HW139854   5.229   0.543   2.677 -2.1116  2.1169  0.7183
11669SOL    HW239855   5.143   0.437   2.611  2.0933 -0.9949 -0.1977
11670SOL     OW39856   5.551   1.225   4.553 -0.0649  0.3169 -0.5663
11670SOL    HW139857   5.573   1.252   4.464 -0.5588 -0.1556 -0.8363
11670SOL    HW239858   5.560   1.130   4.553  2.2184  0.4617  0.5301
11671SOL     OW39859   3.046   1.819   2.820 -0.0512  0.2267  0.5149
11671SOL    HW139860   3.129   1.777   2.841  0.9714  2.1061  0.4805
11671SOL    HW239861   2.991   1.749   2.785  1.9064 -0.8342 -0.5503
11672SOL     OW39862   5.285   9.191   3.268 -0.2719 -0.1108  0.2814
11672SOL    HW139863   5.348   9.247   3.314  1.4220 -0.5798 -1.3396
11672SOL    HW239864   5.251   9.133   3.337 -0.6549  1.5952  1.6148
11673SOL     OW39865   4.407   0.669   2.332  0.4802  0.3997 -0.1301
11673SOL    HW139866   4.323   0.636   2.301 -0.5013  2.0513  0.6415
11673SOL    HW239867   4.459   0.590   2.348 -0.7543 -0.6416 -1.0304
11674SOL     OW39868   7.123   3.267   1.407  0.2833  0.1292 -0.0109
11674SOL    HW139869   7.052   3.269   1.472 -1.4189 -1.2865 -1.7154
11674SOL    HW239870   7.087   3.315   1.332  1.7471  0.6798 -0.3929
11675SOL     OW39871   4.227   0.516   2.194 -0.5170 -0.2077  0.0125
11675SOL    HW139872   4.158   0.526   2.128 -0.5510  0.4882  0.1367
11675SOL    HW239873   4.224   0.424   2.218 -0.2665 -0.5514 -1.2032
11676SOL     OW39874   3.798   1.143   2.973 -0.1978 -0.2030 -0.0016
11676SOL    HW139875   3.811   1.237   2.959 -0.1986 -0.2066 -0.0264
11676SOL    HW239876   3.807   1.105   2.886  1.0330 -0.3716  0.1791
11677SOL     OW39877   4.358   1.416   4.350 -0.1010 -0.3829 -0.0126
11677SOL    HW139878   4.364   1.485   4.284  0.3172  0.0558  0.4744
11677SOL    HW239879   4.444   1.415   4.391 -0.9417  0.7584  1.9107
11678SOL     OW39880   6.350   1.273   3.740  0.3533  0.3642  0.5918
11678SOL    HW139881   6.312   1.336   3.679  1.9083 -1.5555 -2.6191
11678SOL    HW239882   6.347   1.189   3.693  2.2961 -1.1236  2.8854
11679SOL     OW39883   4.795   1.323   1.551  0.6169 -0.0294 -0.3114
11679SOL    HW139884   4.748   1.370   1.482  0.6997  1.0229  0.3186
11679SOL    HW239885   4.887   1.340   1.533  0.6169  0.9034  0.4742
11680SOL     OW39886   5.920   9.460   0.589 -0.0849  0.3681 -0.3943
11680SOL    HW139887   5.977   9.472   0.665 -0.0554 -0.3679 -0.2903
11680SOL    HW239888   5.959   9.387   0.541 -0.7635  0.0572 -0.4843
11681SOL     OW39889   5.926   1.482   5.015 -0.3466  0.4379 -0.4942
11681SOL    HW139890   5.916   1.388   5.025  2.8132 -0.0168 -0.6930
11681SOL    HW239891   5.864   1.520   5.078 -1.1729 -1.7434  0.0816
11682SOL     OW39892   4.131   4.245   2.554  0.5218  0.3791  0.0484
11682SOL    HW139893   4.045   4.258   2.592  1.1154  3.0051  0.6642
11682SOL    HW239894   4.192   4.248   2.628  1.2311 -0.8010 -0.4435
11683SOL     OW39895   4.716   1.873   3.632  0.1449  0.5831 -0.5814
11683SOL    HW139896   4.781   1.892   3.699 -0.6834  0.7811  0.1983
11683SOL    HW239897   4.715   1.778   3.625 -0.5760  0.4806  0.5579
11684SOL     OW39898   5.778   9.701   0.912 -0.3986  0.3557 -0.1006
11684SOL    HW139899   5.823   9.783   0.934 -0.0511  0.4830 -1.1810
11684SOL    HW239900   5.828   9.633   0.957 -1.1347  0.7787  1.4227
11685SOL     OW39901   5.970   1.286   0.687 -0.0577  0.5006 -0.0848
11685SOL    HW139902   5.958   1.345   0.761 -1.4181 -0.1985  0.2783
11685SOL    HW239903   5.967   1.343   0.610 -1.3382  0.9203  0.2584
11686SOL     OW39904   3.799   1.694   2.229  0.0115 -0.8624 -0.6459
11686SOL    HW139905   3.780   1.600   2.227  1.2143 -1.2336  1.7904
11686SOL    HW239906   3.879   1.702   2.281  0.0507  1.5167 -0.9418
11687SOL     OW39907   4.385   0.194   1.204  0.7674 -0.4563 -0.6658
11687SOL    HW139908   4.464   0.154   1.167  0.7023 -0.9539 -0.2886
11687SOL    HW239909   4.321   0.191   1.133  0.7447 -1.0969 -0.6302
11688SOL     OW39910   3.144   8.310   5.057  0.7341 -0.0031 -0.2702
11688SOL    HW139911   3.229   8.303   5.014  0.5208 -0.4737 -0.6160
11688SOL    HW239912   3.164   8.311   5.151  1.2464  1.6122 -0.3649
11689SOL     OW39913   5.179   2.218   1.526 -0.0282  0.2176 -0.4210
11689SOL    HW139914   5.262   2.176   1.549 -1.0726 -1.9246 -0.3085
11689SOL    HW239915   5.171   2.204   1.431 -0.7584 -0.5779 -0.2522
11690SOL     OW39916   2.825   1.585   2.563 -0.5439 -0.5155  0.7097
11690SOL    HW139917   2.885   1.639   2.512 -0.0672  1.1747  2.9046
11690SOL    HW239918   2.810   1.508   2.509  2.0975 -0.1108 -0.7575
11691SOL     OW39919   3.712   0.905   1.263 -0.0657 -0.1086 -0.0326
11691SOL    HW139920   3.663   0.965   1.320  1.3807  2.3746 -1.2465
11691SOL    HW239921   3.804   0.918   1.289  0.3104 -1.6517 -0.5237
11692SOL     OW39922   4.835   9.479   2.620  0.2942 -0.4357 -0.0385
11692SOL    HW139923   4.826   9.574   2.616  2.5666 -0.1823 -0.3185
11692SOL    HW239924   4.767   9.452   2.682  0.7423  1.5565  1.4308
11693SOL     OW39925   4.517   9.508   0.756  0.1148 -0.2285 -0.5227
11693SOL    HW139926   4.531   9.416   0.733 -1.4937 -0.0334 -2.7264
11693SOL    HW239927   4.511   9.509   0.851 -2.3099 -2.8742 -0.5037
11694SOL     OW39928   4.985   0.678   2.766 -0.4745 -0.0212  0.0385
11694SOL    HW139929   4.919   0.644   2.706 -2.2411 -0.6766  2.2141
11694SOL    HW239930   5.068   0.663   2.721 -1.4304 -3.5805 -0.8722
11695SOL     OW39931   2.265   0.114   3.022  0.8687  0.2635 -0.1478
11695SOL    HW139932   2.313   0.183   3.068  1.7146 -0.9336  0.8140
11695SOL    HW239933   2.181   0.154   2.999 -0.6341  0.2952  4.4982
11696SOL     OW39934   4.419   2.411   0.685  0.0640  0.3166 -0.5283
11696SOL    HW139935   4.483   2.482   0.673 -2.1777  2.3473 -1.4593
11696SOL    HW239936   4.394   2.388   0.595 -0.8154 -0.1381 -0.1674
11697SOL     OW39937   5.005   0.223   3.356 -0.1256 -0.1006  0.1864
11697SOL    HW139938   4.919   0.245   3.318 -0.2497  1.1675  1.1587
11697SOL    HW239939   5.000   0.252   3.447  0.6892 -1.7534  0.8114
11698SOL     OW39940   4.527   0.405   3.809 -0.3020  0.7888 -0.0735
11698SOL    HW139941   4.495   0.450   3.731 -0.9928 -0.7934 -0.7625
11698SOL    HW239942   4.470   0.435   3.880 -0.8055  0.9276 -0.5339
11699SOL     OW39943   4.602   9.510   3.497  0.0612  0.2337 -0.0782
11699SOL    HW139944   4.568   9.429   3.534 -1.0318  0.8947  0.4315
11699SOL    HW239945   4.647   9.484   3.416 -0.9126 -0.7918 -0.3030
11700SOL     OW39946   3.962   0.011   3.562 -0.3340  0.4791  0.1861
11700SOL    HW139947   3.933   0.086   3.510 -2.0288  0.9687  1.7502
11700SOL    HW239948   3.895   0.000   3.629  0.4668 -1.7346  0.7164
11701SOL     OW39949   4.547   1.128   2.675  0.1289 -0.2915  0.5139
11701SOL    HW139950   4.581   1.047   2.712  0.9328 -0.8047 -1.2737
11701SOL    HW239951   4.481   1.101   2.611  1.4911  0.3429 -1.2262
11702SOL     OW39952   5.323   0.556   2.830 -0.1555 -0.2859  0.6211
11702SOL    HW139953   5.359   0.635   2.872 -1.4399  0.6502  0.0271
11702SOL    HW239954   5.392   0.526   2.772  0.3153  0.4841  0.7696
11703SOL     OW39955   4.826   1.121   3.011 -0.4308 -0.3285 -0.2921
11703SOL    HW139956   4.850   1.063   2.939  1.7373 -0.2211  0.2846
11703SOL    HW239957   4.823   1.064   3.088  2.0773  0.2849  0.3432
11704SOL     OW39958   3.934   1.641   4.693 -0.6058 -0.0553 -0.5656
11704SOL    HW139959   3.961   1.554   4.662  2.0121  0.8236 -1.0141
11704SOL    HW239960   3.996   1.661   4.763 -1.4269  1.3024 -0.2071
11705SOL     OW39961   5.787   3.421   4.197 -0.5942  1.1232  0.3749
11705SOL    HW139962   5.830   3.355   4.251 -0.8890  1.9851  1.7294
11705SOL    HW239963   5.825   3.410   4.110 -0.2358 -0.4405  0.6991
11706SOL     OW39964   6.134   8.403   4.745  0.3680  0.9645 -0.1145
11706SOL    HW139965   6.079   8.445   4.679 -1.3409 -1.6932 -0.5560
11706SOL    HW239966   6.184   8.337   4.696 -0.5452 -0.7051  1.0866
11707SOL     OW39967   6.314   3.165   3.843  0.0739 -0.5116 -0.2310
11707SOL    HW139968   6.369   3.194   3.770  0.5095  0.2394  0.3809
11707SOL    HW239969   6.374   3.160   3.918 -0.3333 -1.4157  0.0568
11708SOL     OW39970   4.505   3.153   5.356  0.2605  0.3794 -0.0505
11708SOL    HW139971   4.442   3.223   5.341  0.5658  0.7443  0.3316
11708SOL    HW239972   4.512   3.108   5.272 -1.4761 -0.4790  0.2225
11709SOL     OW39973   6.636   9.548   0.774 -0.2569  0.2982 -0.1552
11709SOL    HW139974   6.654   9.611   0.705  0.3721  0.0026 -0.2702
11709SOL    HW239975   6.710   9.556   0.835  1.3663 -2.2735 -1.6163
11710SOL     OW39976   5.650   1.749   3.163 -0.1725 -0.2984 -0.0231
11710SOL    HW139977   5.589   1.712   3.099 -2.9000 -0.5478  2.5055
11710SOL    HW239978   5.649   1.843   3.145  1.6305 -0.6013 -2.2483
11711SOL     OW39979   7.498   2.069   0.258 -0.1042  0.2713  0.6211
11711SOL    HW139980   7.444   2.148   0.256  0.9728  1.0210 -1.0891
11711SOL    HW239981   7.580   2.094   0.215  0.6000 -1.5582  0.7727
11712SOL     OW39982   5.064   0.915   2.592  0.3384  0.1660 -0.0032
11712SOL    HW139983   5.026   0.981   2.650 -0.1129 -0.0021 -0.1094
11712SOL    HW239984   4.993   0.853   2.575  0.0346  0.9488 -1.8349
11713SOL     OW39985   5.662   9.026   1.124 -0.4685 -0.3029  0.3866
11713SOL    HW139986   5.591   9.064   1.071 -0.0409  1.7552  1.1637
11713SOL    HW239987   5.622   8.950   1.167 -1.5273 -0.5349 -0.9334
11714SOL     OW39988   5.011   0.370   3.853 -0.1487 -0.7022  0.1634
11714SOL    HW139989   5.017   0.357   3.948 -1.0322  0.3588  0.3856
11714SOL    HW239990   5.100   0.394   3.827 -0.1855  0.4378  0.9808
11715SOL     OW39991   4.897   3.407   4.911  0.4732 -0.2937  0.4358
11715SOL    HW139992   4.950   3.331   4.885 -0.0146  0.4209 -3.1280
11715SOL    HW239993   4.848   3.430   4.833  0.0322  3.2765  1.5801
11716SOL     OW39994   2.886   0.931   1.372  0.4718 -0.1895 -0.7170
11716SOL    HW139995   2.943   0.995   1.414  1.3860  0.0367 -2.2542
11716SOL    HW239996   2.799   0.951   1.407  0.2676  3.4897 -2.8693
11717SOL     OW39997   5.058   7.691   3.592  0.1708 -0.2686 -0.0072
11717SOL    HW139998   5.128   7.677   3.655 -0.6434  1.0706  1.2711
11717SOL    HW239999   5.027   7.603   3.571  2.0533 -0.8757 -0.4497
11718SOL     OW40000   7.202   2.537   2.893 -0.3210  0.4082  0.1836
11718SOL    HW140001   7.291   2.565   2.871 -0.4253  0.7599  0.1962
11718SOL    HW240002   7.146   2.606   2.858 -0.5094  0.8080  1.2509
11719SOL     OW40003   4.390   1.824   4.916 -0.1168 -0.5798  0.0512
11719SOL    HW140004   4.424   1.739   4.945 -0.7255 -0.6501  0.5990
11719SOL    HW240005   4.343   1.858   4.992  0.1730  0.2857 -0.1412
11720SOL     OW40006   5.144   0.243   2.647  0.1922 -0.2076  0.2033
11720SOL    HW140007   5.094   0.184   2.591 -1.0187  0.1431  0.8840
11720SOL    HW240008   5.165   0.191   2.725 -2.0231  0.5712  1.4051
11721SOL     OW40009   2.068   2.899   0.241 -0.1745 -0.2663  0.1920
11721SOL    HW140010   2.101   2.877   0.329  0.5154  0.0878  0.0284
11721SOL    HW240011   1.997   2.961   0.258  1.2608  1.3816  0.4422
11722SOL     OW40012   6.277   9.770   4.544  0.5700 -0.7445 -0.0308
11722SOL    HW140013   6.290   9.685   4.586  0.3851 -1.1305 -0.7484
11722SOL    HW240014   6.202   9.757   4.486 -0.8882  0.4850  1.4567
11723SOL     OW40015   2.143   1.225   2.167 -0.5904  0.1929  0.0351
11723SOL    HW140016   2.054   1.248   2.194 -0.5800 -1.0123  1.1968
11723SOL    HW240017   2.147   1.250   2.075 -1.1766  2.9316  0.6612
11724SOL     OW40018   4.405   8.031   4.256 -0.1323 -0.1418 -0.3066
11724SOL    HW140019   4.423   8.123   4.274 -2.3652  0.2863  0.0480
11724SOL    HW240020   4.394   8.027   4.161 -1.4261  0.2896 -0.2009
11725SOL     OW40021   2.119   1.609   1.609 -0.4185  0.1627  0.1446
11725SOL    HW140022   2.087   1.675   1.547 -0.3504  1.1848  1.1558
11725SOL    HW240023   2.042   1.587   1.662 -0.4752 -0.6968 -0.2803
11726SOL     OW40024   3.900   3.286   4.718  0.8183  0.1181  0.2699
11726SOL    HW140025   3.992   3.311   4.708  0.9866 -0.1993  0.9770
11726SOL    HW240026   3.892   3.204   4.671  0.6259  0.6965 -0.7406
11727SOL     OW40027   3.519   1.661   2.332 -0.3758  0.2617  0.6729
11727SOL    HW140028   3.585   1.724   2.304 -0.3244 -0.6838 -1.4964
11727SOL    HW240029   3.540   1.644   2.424  0.6887  2.0296  0.8108
11728SOL     OW40030   5.100   1.790   1.845  0.0318 -0.2752 -0.3475
11728SOL    HW140031   5.188   1.776   1.811 -0.6500 -0.9455 -1.9435
11728SOL    HW240032   5.105   1.760   1.936  1.1896 -1.3562 -0.7337
11729SOL     OW40033   5.385   8.674   3.174 -0.3315  0.5791  0.3904
11729SOL    HW140034   5.349   8.757   3.207 -0.0864  0.1358  1.8220
11729SOL    HW240035   5.474   8.672   3.208 -0.8753 -1.0486  1.8349
11730SOL     OW40036   2.175   2.514   1.164 -0.1495  0.3142 -0.0516
11730SOL    HW140037   2.210   2.424   1.162  0.3754  0.5194 -0.2874
11730SOL    HW240038   2.110   2.513   1.235 -0.5058 -0.3820 -0.3821
11731SOL     OW40039   5.365   1.951   3.623 -0.3120  0.0921 -0.0834
11731SOL    HW140040   5.414   1.871   3.641 -0.0184  0.8881  3.4268
11731SOL    HW240041   5.273   1.926   3.634 -0.2737  0.0242  0.0854
11732SOL     OW40042   6.040   1.310   1.770 -0.2734  0.1113  0.1756
11732SOL    HW140043   6.059   1.347   1.684 -1.2645 -0.6934 -0.4136
11732SOL    HW240044   6.091   1.230   1.774  1.0653  0.9666  1.0357
11733SOL     OW40045   4.525   8.955   5.436  0.0364 -0.1567 -0.1084
11733SOL    HW140046   4.539   8.872   5.391  0.2677 -0.9135  1.2936
11733SOL    HW240047   4.429   8.966   5.437  0.0330 -0.0859 -0.8309
11734SOL     OW40048   5.965   0.481   3.156 -0.0125 -0.3780  0.1865
11734SOL    HW140049   5.970   0.419   3.083  2.3027  0.6120 -0.5951
11734SOL    HW240050   5.926   0.430   3.228 -3.3562 -1.1020 -1.9194
11735SOL     OW40051   5.200   3.897   2.859 -0.6593 -0.5188 -0.2849
11735SOL    HW140052   5.294   3.905   2.843  0.3092 -0.3882  4.1864
11735SOL    HW240053   5.159   3.931   2.779  3.0642  1.8777 -1.4356
11736SOL     OW40054   6.131   0.941   3.873 -0.3875  0.0786 -0.3686
11736SOL    HW140055   6.133   0.859   3.923  0.0640 -0.3074 -1.0151
11736SOL    HW240056   6.159   0.916   3.785  0.1440  1.0027 -0.4678
11737SOL     OW40057   6.815   8.707   4.224  0.3428  0.0627 -0.1333
11737SOL    HW140058   6.789   8.695   4.133  1.9448  0.8921 -0.7445
11737SOL    HW240059   6.908   8.732   4.219  0.6109 -0.4273  1.7575
11738SOL     OW40060   4.068   1.158   2.397 -0.0220 -0.1105 -0.1048
11738SOL    HW140061   4.036   1.180   2.484 -0.3985 -0.3411 -0.1835
11738SOL    HW240062   3.997   1.107   2.357 -0.0718  0.4394 -0.7401
11739SOL     OW40063   3.734   1.039   2.705 -0.2718 -0.1080 -0.0419
11739SOL    HW140064   3.679   1.096   2.652  0.1067 -0.2034 -0.5487
11739SOL    HW240065   3.754   0.965   2.647  0.0889 -0.2449  0.2571
11740SOL     OW40066   4.292   1.215   2.090  0.8816 -0.3732 -0.2491
11740SOL    HW140067   4.210   1.199   2.137  1.4389 -0.3985  0.7516
11740SOL    HW240068   4.342   1.134   2.103  1.8582  0.3794  0.8891
11741SOL     OW40069   4.249   9.216   1.245 -0.0045 -0.4953 -0.3816
11741SOL    HW140070   4.193   9.141   1.221  0.2614 -0.9567  0.3934
11741SOL    HW240071   4.210   9.290   1.199 -0.0515 -1.1730 -1.4788
11742SOL     OW40072   5.632   1.472   1.013  0.1277 -0.1645  0.6899
11742SOL    HW140073   5.574   1.544   1.039  0.5512  0.6071 -0.4686
11742SOL    HW240074   5.573   1.397   1.004 -0.3154 -0.0008  1.9227
11743SOL     OW40075   7.282   5.804   2.699 -0.3848 -0.3749  0.5142
11743SOL    HW140076   7.234   5.815   2.617 -0.6918 -2.1389  0.4247
11743SOL    HW240077   7.357   5.749   2.675  0.6264  0.7126  1.0494
11744SOL     OW40078   2.466   4.622   4.169  0.1678  0.2352 -0.3514
11744SOL    HW140079   2.519   4.608   4.091  1.4429 -0.4096  0.5835
11744SOL    HW240080   2.425   4.708   4.156  3.7047  2.1558  0.0960
11745SOL     OW40081   3.612   1.176   2.495  0.3303  0.5719 -0.5107
11745SOL    HW140082   3.634   1.266   2.520  0.6422  0.3515  0.0488
11745SOL    HW240083   3.676   1.154   2.428  1.4503  0.1605  0.6424
11746SOL     OW40084   6.487   4.056   3.302 -0.0088  0.1114  0.3093
11746SOL    HW140085   6.512   3.975   3.346 -0.1950 -0.5195 -0.7362
11746SOL    HW240086   6.402   4.079   3.341 -0.8893 -1.2456 -0.7434
11747SOL     OW40087   5.455   9.069   2.690  0.2748 -0.8243  0.7200
11747SOL    HW140088   5.375   9.080   2.639 -0.6289 -2.2103  1.7493
11747SOL    HW240089   5.487   9.158   2.705 -1.9482 -0.1134  1.5924
11748SOL     OW40090   3.099   0.183   2.727 -0.1803 -0.5557 -0.8370
11748SOL    HW140091   3.164   0.251   2.709 -0.6525  0.6168  1.4527
11748SOL    HW240092   3.077   0.146   2.642  4.9671 -2.4745 -1.6786
11749SOL     OW40093   6.217   0.961   2.399  0.0811  0.4970  0.0493
11749SOL    HW140094   6.296   0.911   2.379 -1.4113 -2.0442  0.1330
11749SOL    HW240095   6.214   0.964   2.495 -0.0829  0.3200  0.0500
11750SOL     OW40096   2.600   1.770   3.537  0.4090  0.4154 -0.3495
11750SOL    HW140097   2.600   1.749   3.630 -0.6953  0.1214 -0.4021
11750SOL    HW240098   2.512   1.805   3.520  0.3449 -0.2364 -1.4318
11751SOL     OW40099   3.185   1.500   1.214  0.6012 -0.9486  0.3070
11751SOL    HW140100   3.207   1.409   1.230 -0.0891 -0.5832  4.0231
11751SOL    HW240101   3.091   1.500   1.197  0.7804 -0.9716 -0.8032
11752SOL     OW40102   5.333   1.695   1.752 -0.6924  0.0503  0.3444
11752SOL    HW140103   5.331   1.611   1.707  0.5473 -0.1529  0.6241
11752SOL    HW240104   5.391   1.749   1.698 -3.2799  1.5471 -1.1408
11753SOL     OW40105   3.731   9.838   3.693 -0.0156  0.6594  0.0468
11753SOL    HW140106   3.664   9.879   3.748 -2.0420 -1.6125 -0.5608
11753SOL    HW240107   3.702   9.854   3.603  1.2490  1.1429 -0.3008
11754SOL     OW40108   6.172   9.679   1.566  0.1793 -1.0978 -0.1322
11754SOL    HW140109   6.157   9.755   1.622 -3.7195 -0.3626 -1.8315
11754SOL    HW240110   6.157   9.603   1.622 -0.2826 -0.4930  0.5686
11755SOL     OW40111   5.703   8.716   2.861 -0.2942  0.2160 -0.5243
11755SOL    HW140112   5.621   8.674   2.889  0.6777 -1.5668 -0.1526
11755SOL    HW240113   5.681   8.808   2.853 -2.4853 -0.2779 -0.9798
11756SOL     OW40114   6.174   8.939   1.122  0.2985  0.5867 -0.5329
11756SOL    HW140115   6.174   8.852   1.080 -1.1660 -0.2454  1.0746
11756SOL    HW240116   6.224   8.994   1.062  1.8543 -1.5126 -1.2896
11757SOL     OW40117   4.371   3.191   2.136 -0.0403  0.6911  0.1935
11757SOL    HW140118   4.418   3.124   2.184  1.0034  0.5221 -1.0069
11757SOL    HW240119   4.282   3.188   2.170 -0.0367 -1.3551  0.1066
11758SOL     OW40120   3.949   0.449   1.254  0.4380 -0.5302  0.5341
11758SOL    HW140121   3.915   0.361   1.237 -0.0250 -0.1151 -0.8632
11758SOL    HW240122   3.880   0.508   1.222  1.8339  0.3261 -1.1178
11759SOL     OW40123   3.407   9.855   2.297  0.2837  0.3397 -0.1337
11759SOL    HW140124   3.326   9.885   2.255  0.4123  0.3662 -0.3642
11759SOL    HW240125   3.466   9.930   2.291  0.4477  0.1972 -0.2854
11760SOL     OW40126   4.562   1.867   9.650 -0.0273 -0.5830 -0.5246
11760SOL    HW140127   4.516   1.797   9.697  0.7617  0.1948  1.5321
11760SOL    HW240128   4.536   1.947   9.696  1.0575  0.1854 -1.2086
11761SOL     OW40129   2.401   9.086   4.142 -0.0535 -0.5415  0.2174
11761SOL    HW140130   2.320   9.132   4.164 -0.9630 -1.0882 -1.7658
11761SOL    HW240131   2.441   9.141   4.074  1.2839 -0.2731  1.1775
11762SOL     OW40132   3.456   2.109   3.461  0.2771  0.9178  0.1988
11762SOL    HW140133   3.456   2.013   3.453 -1.0364  0.8623  0.5752
11762SOL    HW240134   3.484   2.125   3.551  0.7319  0.9051  0.0624
11763SOL     OW40135   5.079   2.612   5.255  0.0735 -0.2894  0.0802
11763SOL    HW140136   4.984   2.616   5.267  0.1842  0.8551  0.6979
11763SOL    HW240137   5.096   2.522   5.226 -0.9073 -1.4290  2.7325
11764SOL     OW40138   5.607   2.113   3.176  0.0353  0.0329  0.3298
11764SOL    HW140139   5.622   2.206   3.193 -1.5806  0.4962 -0.5770
11764SOL    HW240140   5.599   2.074   3.264 -2.0811  1.2778  0.7563
11765SOL     OW40141   3.361   1.921   2.633  0.3713  0.7184  0.8150
11765SOL    HW140142   3.345   1.902   2.725 -3.4138 -0.5631  0.0677
11765SOL    HW240143   3.382   1.837   2.594 -2.4459  0.3382 -0.1176
11766SOL     OW40144   5.203   8.607   4.851 -0.4833 -0.1814  0.4573
11766SOL    HW140145   5.145   8.683   4.855  1.3233  1.2474  3.4267
11766SOL    HW240146   5.188   8.560   4.934  1.6827 -0.3759  0.8207
11767SOL     OW40147   4.396   0.286   4.860  0.2317 -0.4858 -0.2071
11767SOL    HW140148   4.489   0.290   4.883  0.5982 -2.1873 -1.2279
11767SOL    HW240149   4.393   0.232   4.781 -1.6695 -0.8178  0.0452
11768SOL     OW40150   3.808   8.996   6.786 -0.0686  0.2156  0.2195
11768SOL    HW140151   3.769   8.991   6.699 -1.5165  0.4718  0.8333
11768SOL    HW240152   3.753   9.058   6.834  0.7630  0.1557  1.3009
11769SOL     OW40153   6.210   2.801   6.691 -0.2320  0.4497  0.1841
11769SOL    HW140154   6.262   2.853   6.753 -1.7820  1.2721  0.8837
11769SOL    HW240155   6.269   2.734   6.659  0.5015 -0.4570  3.1086
11770SOL     OW40156   4.693   3.558   4.456  0.0625  0.0149 -0.4170
11770SOL    HW140157   4.600   3.566   4.438  0.0048  0.0163 -0.1292
11770SOL    HW240158   4.732   3.532   4.373  0.0610  1.8677 -1.0525
11771SOL     OW40159   4.098   2.118   4.435  0.2427 -0.6143 -0.3091
11771SOL    HW140160   4.175   2.174   4.436 -0.4169  0.3176 -0.2930
11771SOL    HW240161   4.028   2.175   4.402 -0.0576 -1.9348 -2.0996
11772SOL     OW40162   4.715   3.139   5.522 -0.3095  1.1512 -0.1920
11772SOL    HW140163   4.626   3.134   5.489  0.1311 -1.2012 -1.1977
11772SOL    HW240164   4.770   3.109   5.449  1.0347 -0.3122  1.3252
11773SOL     OW40165   4.358   8.842   5.658  0.2872 -0.3766  0.5271
11773SOL    HW140166   4.395   8.927   5.633  0.8378 -1.4247 -2.8290
11773SOL    HW240167   4.434   8.789   5.683  0.0909 -0.2907  1.3335
11774SOL     OW40168   3.974   8.977   3.138 -0.1790 -0.0049  0.2835
11774SOL    HW140169   3.886   9.010   3.120 -0.2002 -0.2842 -0.1106
11774SOL    HW240170   3.965   8.882   3.141  0.5577 -0.2500 -2.3746
11775SOL     OW40171   6.030   1.677   1.947 -0.5421  0.2145  0.4854
11775SOL    HW140172   5.937   1.696   1.963 -1.3440 -0.9158 -2.1696
11775SOL    HW240173   6.045   1.593   1.990 -1.8569 -1.4162 -1.9897
11776SOL     OW40174   3.513   0.218   6.271  0.2473  0.0973 -0.9052
11776SOL    HW140175   3.597   0.262   6.278  0.2885 -0.1605  0.4305
11776SOL    HW240176   3.502   0.203   6.177  1.5613  0.3681 -1.1234
11777SOL     OW40177   2.299   1.109   2.850  0.2803 -0.5871 -0.0036
11777SOL    HW140178   2.285   1.071   2.763 -0.8045 -1.2084  0.4225
11777SOL    HW240179   2.382   1.072   2.880 -0.4864 -2.2368  0.1754
11778SOL     OW40180   2.383   0.584   2.666 -0.0510 -0.1082  0.1250
11778SOL    HW140181   2.440   0.547   2.734  0.2823 -0.5467 -0.3830
11778SOL    HW240182   2.414   0.674   2.656 -0.4662  0.1354  0.9404
11779SOL     OW40183   2.009   0.162   2.965 -0.1899 -0.0549  0.2606
11779SOL    HW140184   1.941   0.140   3.030 -0.9356  2.8766  0.5895
11779SOL    HW240185   1.970   0.230   2.911  2.2293  1.2618  0.0175
11780SOL     OW40186   2.874   9.317   2.613  0.5687  0.4364  0.1315
11780SOL    HW140187   2.903   9.229   2.633 -0.7727  0.1041  0.7502
11780SOL    HW240188   2.850   9.314   2.521  0.2331  0.0600  0.2276
11781SOL     OW40189   7.383   8.862   4.267  0.4778  0.5875  0.5036
11781SOL    HW140190   7.341   8.947   4.271  2.7927  1.7679  1.6119
11781SOL    HW240191   7.454   8.867   4.330  1.5625 -1.6815 -0.4130
11782SOL     OW40192   5.026   1.254   4.183 -0.4896 -0.1939  0.0697
11782SOL    HW140193   5.071   1.251   4.098 -2.0822 -2.2543 -0.7970
11782SOL    HW240194   5.063   1.181   4.233 -1.2613 -0.5336  0.1713
11783SOL     OW40195   4.686   9.827   4.282  0.2399 -0.3224 -0.6119
11783SOL    HW140196   4.630   9.852   4.356  0.5901  0.0310 -0.4654
11783SOL    HW240197   4.650   9.875   4.208 -0.4483 -1.0902 -0.7986
11784SOL     OW40198   4.532   9.113   5.720  0.3403  0.1287  0.5574
11784SOL    HW140199   4.549   9.067   5.803 -0.3140  0.4577  0.8839
11784SOL    HW240200   4.601   9.179   5.715  1.3977 -0.9834 -0.0043
11785SOL     OW40201   2.155   1.474   5.534  0.0701  0.6943  0.5011
11785SOL    HW140202   2.192   1.421   5.605  1.5876  0.5533 -0.3624
11785SOL    HW240203   2.179   1.429   5.454 -1.2162  1.1122 -0.1558
11786SOL     OW40204   4.936   0.671   3.554  0.4925  0.4951 -0.1996
11786SOL    HW140205   4.995   0.679   3.629  0.0939 -0.5304  0.2377
11786SOL    HW240206   4.856   0.635   3.590  0.5833 -0.8190 -1.2516
11787SOL     OW40207   6.782   0.212   3.319  0.2485  0.1132 -0.0792
11787SOL    HW140208   6.797   0.180   3.408  0.6040  1.5760  0.4069
11787SOL    HW240209   6.828   0.149   3.263  0.6525 -0.4066  0.8115
11788SOL     OW40210   4.248   7.938   1.391 -0.1265  0.4841 -0.6091
11788SOL    HW140211   4.219   7.886   1.316  1.5744  0.3913 -1.2532
11788SOL    HW240212   4.274   8.022   1.354  0.3112  0.5971 -0.0605
11789SOL     OW40213   2.768   0.458   4.565  0.2544  0.0498 -0.2943
11789SOL    HW140214   2.689   0.405   4.579 -0.0492  0.7616  0.8220
11789SOL    HW240215   2.735   0.543   4.536  0.6677  0.0910 -0.6643
11790SOL     OW40216   5.241   9.548   3.362  0.3021 -0.3351 -0.6253
11790SOL    HW140217   5.173   9.615   3.372  1.2031  0.4761  0.2817
11790SOL    HW240218   5.248   9.535   3.268  0.1388  0.8886 -0.8252
11791SOL     OW40219   5.844   2.427   5.648  0.6828  0.7381 -0.1286
11791SOL    HW140220   5.923   2.479   5.634  1.8366 -0.6197  0.9857
11791SOL    HW240221   5.872   2.337   5.632 -0.2497  0.0845  1.6509
11792SOL     OW40222   1.666   0.287   5.238  0.3285  0.2134 -0.3851
11792SOL    HW140223   1.620   0.315   5.159 -0.5476 -1.0335 -0.3473
11792SOL    HW240224   1.626   0.337   5.309 -0.7596 -0.5785 -0.4055
11793SOL     OW40225   3.659   2.004   6.325 -0.0456 -0.5639  0.5679
11793SOL    HW140226   3.736   1.949   6.307 -0.0923 -0.2415 -0.7558
11793SOL    HW240227   3.601   1.989   6.250 -0.8037 -0.0023  1.0299
11794SOL     OW40228   6.670   2.492   3.672 -0.1740 -0.2062 -0.0484
11794SOL    HW140229   6.619   2.486   3.752 -0.9467  0.3338 -0.4941
11794SOL    HW240230   6.724   2.413   3.672 -0.0382 -0.1276  1.0818
11795SOL     OW40231   4.373   0.200   3.413 -0.3425 -0.7451  0.3412
11795SOL    HW140232   4.367   0.236   3.325  0.3512  0.4451  0.7445
11795SOL    HW240233   4.317   0.257   3.466 -0.4316 -1.1951  0.7331
11796SOL     OW40234   5.178   5.430   3.550 -0.1870  1.1005 -0.0818
11796SOL    HW140235   5.122   5.505   3.570 -1.5122 -0.0627  0.6776
11796SOL    HW240236   5.118   5.361   3.524  0.7567 -0.4921  1.6996
11797SOL     OW40237   3.969   9.824   5.718  0.4432 -0.1508 -0.3846
11797SOL    HW140238   3.947   9.899   5.773  0.2536 -0.3003 -0.2566
11797SOL    HW240239   4.045   9.853   5.667  2.2977 -0.8737  1.7963
11798SOL     OW40240   4.527   1.343   5.208  0.5013 -0.7590  0.4294
11798SOL    HW140241   4.507   1.421   5.260  1.1595 -0.8815  0.8721
11798SOL    HW240242   4.622   1.338   5.208  0.4882 -1.1060 -0.2845
11799SOL     OW40243   7.590   2.069   5.771  0.4631 -0.4639 -0.1679
11799SOL    HW140244   7.592   1.973   5.767  0.2308 -0.5987  1.8002
11799SOL    HW240245   7.682   2.094   5.772  0.6030 -0.8676  1.6097
11800SOL     OW40246   3.288   8.479   2.911  0.3588 -0.2168 -0.1927
11800SOL    HW140247   3.320   8.567   2.889 -3.0598  1.4594  0.9033
11800SOL    HW240248   3.210   8.467   2.858  0.2212 -2.2649  0.3676
11801SOL     OW40249   4.044   1.235   2.659 -0.3399 -0.1434  0.2809
11801SOL    HW140250   4.110   1.259   2.725 -0.0938 -0.8200  0.2918
11801SOL    HW240251   4.019   1.146   2.682 -1.3165  0.1261  0.3075
11802SOL     OW40252   4.010   7.056   5.462 -0.3364 -0.0013  0.5002
11802SOL    HW140253   3.956   7.130   5.489 -0.2214  0.0401  0.6186
11802SOL    HW240254   4.054   7.028   5.542 -0.2694 -0.1058  0.4271
11803SOL     OW40255   6.747   0.325   4.379 -0.4800  0.4294 -0.1428
11803SOL    HW140256   6.789   0.408   4.399  0.2387 -0.1552  0.9016
11803SOL    HW240257   6.819   0.265   4.358 -1.0496  0.3107 -1.9318
11804SOL     OW40258   6.804   8.810   3.631  0.2636  0.3802  0.1493
11804SOL    HW140259   6.815   8.731   3.579 -0.5538  0.1334  0.3378
11804SOL    HW240260   6.879   8.811   3.691  1.2162  0.6619 -0.9927
11805SOL     OW40261   5.089   7.620   6.882 -0.0168  0.2031  0.5099
11805SOL    HW140262   5.013   7.678   6.872  0.8565  1.4858  0.9609
11805SOL    HW240263   5.164   7.677   6.867  0.8644 -1.0785 -0.1037
11806SOL     OW40264   5.152   2.191   2.075  0.0368  0.3774 -0.6322
11806SOL    HW140265   5.159   2.146   1.991  0.2342  0.3118 -0.5807
11806SOL    HW240266   5.182   2.128   2.140 -3.1312 -0.7650 -0.0972
11807SOL     OW40267   4.441   0.486   3.307 -0.6236 -0.7048 -0.3543
11807SOL    HW140268   4.416   0.569   3.267 -0.5543 -0.9540 -0.9203
11807SOL    HW240269   4.536   0.483   3.298 -0.5531 -0.5256  0.2987
11808SOL     OW40270   5.969   1.194   5.092 -0.2739  0.2848  0.0183
11808SOL    HW140271   5.963   1.177   5.187  0.7034 -1.3886 -0.1717
11808SOL    HW240272   6.059   1.171   5.070 -0.4619  0.7853 -1.2998
11809SOL     OW40273   5.020   3.151   4.917 -0.1312 -0.7497 -0.1344
11809SOL    HW140274   4.988   3.183   5.001 -1.7506  1.8722 -1.6254
11809SOL    HW240275   5.115   3.143   4.929 -0.1001  1.2275  1.4613
11810SOL     OW40276   8.490   0.684   2.681  0.7853 -0.6375  0.7591
11810SOL    HW140277   8.578   0.718   2.661  0.4189 -0.3093 -0.3966
11810SOL    HW240278   8.492   0.594   2.650  0.4479 -0.3543 -0.1227
11811SOL     OW40279   3.753   0.631   6.319 -0.1575  0.5318 -0.2863
11811SOL    HW140280   3.705   0.659   6.397  0.6552 -1.3884  0.9716
11811SOL    HW240281   3.757   0.535   6.326  4.9269  0.5373  0.4528
11812SOL     OW40282   7.516   1.261   4.786 -0.0796 -0.3669 -0.3622
11812SOL    HW140283   7.476   1.178   4.814 -1.6566  0.9838  1.6996
11812SOL    HW240284   7.589   1.274   4.846 -1.3782  0.8730  1.0530
11813SOL     OW40285   2.505   9.250   3.939  0.3609  0.1574  0.0482
11813SOL    HW140286   2.460   9.276   3.858  0.0291 -0.4537  0.0268
11813SOL    HW240287   2.538   9.332   3.976 -2.4003  0.9438  1.0503
11814SOL     OW40288   6.794   1.530   2.788 -0.1610 -0.1602  0.4745
11814SOL    HW140289   6.762   1.561   2.703 -0.2033  2.4617  1.3500
11814SOL    HW240290   6.875   1.483   2.768 -0.3253  0.1556 -1.0370
11815SOL     OW40291   3.938   5.309   1.906  0.8579 -0.3967 -0.2551
11815SOL    HW140292   3.921   5.229   1.955 -0.8660  0.1823  0.1868
11815SOL    HW240293   3.873   5.371   1.940  0.9246  0.6137 -1.8939
11816SOL     OW40294   3.543   0.732   5.581 -0.0470  0.2015  0.3356
11816SOL    HW140295   3.460   0.719   5.535 -0.4402 -1.1719  1.3643
11816SOL    HW240296   3.552   0.655   5.637  1.1635  1.0776  1.4175
11817SOL     OW40297   4.722   1.747   2.819 -0.0468  0.7536 -0.5409
11817SOL    HW140298   4.701   1.688   2.892  1.5103 -1.2215 -1.5588
11817SOL    HW240299   4.638   1.766   2.778 -0.5635 -1.8434 -0.8828
11818SOL     OW40300   7.397   9.488   5.274  0.2405  0.2439 -0.5369
11818SOL    HW140301   7.432   9.402   5.252 -3.1531 -1.2491 -0.8796
11818SOL    HW240302   7.365   9.479   5.364  0.6172  1.4450 -0.2621
11819SOL     OW40303   3.331   0.740   2.834  0.3047 -0.2952  0.4770
11819SOL    HW140304   3.351   0.647   2.822  1.2313 -0.0198 -0.2573
11819SOL    HW240305   3.298   0.769   2.749  1.4470  0.3691  0.2305
11820SOL     OW40306   4.883   2.827   3.575  0.0265 -0.4290  0.2187
11820SOL    HW140307   4.857   2.749   3.624 -0.1210 -0.9109 -0.6121
11820SOL    HW240308   4.912   2.794   3.490 -0.5997  0.4597 -0.3614
11821SOL     OW40309   4.058   2.202   3.796  0.2444 -0.4468 -0.0026
11821SOL    HW140310   4.088   2.111   3.806  0.4564 -0.3204  0.5133
11821SOL    HW240311   4.088   2.226   3.708  2.2529 -0.1202  0.7235
11822SOL     OW40312   4.839   0.646   4.021  0.1569  0.6439 -0.2226
11822SOL    HW140313   4.857   0.570   4.076 -0.5756  1.4518  1.2162
11822SOL    HW240314   4.817   0.610   3.936  2.7303 -0.5989 -0.4323
11823SOL     OW40315   4.682   6.969   5.598  0.1921 -0.2301  0.5065
11823SOL    HW140316   4.770   6.998   5.621  0.2293 -0.1830  0.3026
11823SOL    HW240317   4.695   6.894   5.540  0.1155  0.8144 -0.9069
11824SOL     OW40318   4.323   0.550   4.387 -0.1223 -0.5188  0.1165
11824SOL    HW140319   4.243   0.563   4.437 -0.3489  0.2217 -0.4277
11824SOL    HW240320   4.323   0.456   4.366 -1.4330 -0.3235 -0.8561
11825SOL     OW40321   2.691   0.962   3.289 -0.4816 -0.0195  0.2449
11825SOL    HW140322   2.732   0.902   3.225 -0.4864  0.5987 -0.3482
11825SOL    HW240323   2.758   0.976   3.355  1.1213  2.5947 -1.7412
11826SOL     OW40324   2.624   8.818   5.371  0.2873  0.1536 -0.1308
11826SOL    HW140325   2.703   8.846   5.324  1.3129  0.8834  1.9246
11826SOL    HW240326   2.553   8.866   5.330  0.7259 -1.0756 -2.5407
11827SOL     OW40327   5.341   1.186   5.814  0.0150 -0.1994 -0.2095
11827SOL    HW140328   5.285   1.206   5.889 -0.7574 -1.9682 -0.2784
11827SOL    HW240329   5.281   1.171   5.742  0.6706 -0.3386 -0.7435
11828SOL     OW40330   4.798   2.621   5.633  0.1022  0.6642 -0.0908
11828SOL    HW140331   4.801   2.556   5.704 -1.4665  0.2039 -0.4239
11828SOL    HW240332   4.788   2.705   5.678 -2.6097  0.2336  0.2545
11829SOL     OW40333   4.795   3.244   4.321  0.2682 -0.1604  0.3120
11829SOL    HW140334   4.777   3.322   4.270  0.4721  0.6219  1.3962
11829SOL    HW240335   4.811   3.276   4.410  1.3080 -1.3365  0.5899
11830SOL     OW40336   4.048   1.254   3.606  0.5494  0.1840 -0.1118
11830SOL    HW140337   4.026   1.176   3.555 -1.1865  1.0611 -0.8052
11830SOL    HW240338   3.985   1.255   3.678  1.2246  0.4183  0.4949
11831SOL     OW40339   4.069   0.885   5.300  0.3336  0.2940 -0.5430
11831SOL    HW140340   4.015   0.962   5.317 -0.8798 -0.9198  1.4590
11831SOL    HW240341   4.148   0.899   5.353  1.4173  1.4025 -2.3604
11832SOL     OW40342   3.788   0.828   2.547 -0.2043  0.1126 -0.4181
11832SOL    HW140343   3.873   0.786   2.532 -0.2226 -0.5350  1.0772
11832SOL    HW240344   3.723   0.761   2.525 -0.2683 -0.0908  0.3518
11833SOL     OW40345   5.179   0.349   4.824 -0.0217  0.1700 -0.6717
11833SOL    HW140346   5.171   0.347   4.919  1.2728 -0.5178 -0.5561
11833SOL    HW240347   5.255   0.294   4.805 -1.5960 -1.6070 -2.2717
11834SOL     OW40348   3.800   9.569   2.927  0.1241  0.2170 -0.2457
11834SOL    HW140349   3.796   9.494   2.986 -0.2451  2.1702  2.4376
11834SOL    HW240350   3.886   9.562   2.884  0.0221 -1.7771 -0.1981
11835SOL     OW40351   6.315   2.194   6.463 -0.2597 -0.4600 -0.4052
11835SOL    HW140352   6.310   2.193   6.368  0.5057 -2.1956 -0.4721
11835SOL    HW240353   6.370   2.270   6.484 -1.3039  0.5579 -1.2642
11836SOL     OW40354   2.661   0.189   5.175 -0.7978  0.2635  0.1545
11836SOL    HW140355   2.567   0.177   5.170 -0.6532 -1.0685  0.4220
11836SOL    HW240356   2.698   0.112   5.132  0.1713  0.2803  0.9183
11837SOL     OW40357   4.394   8.575   4.462  0.2459  0.4708 -0.3010
11837SOL    HW140358   4.370   8.600   4.373  1.7743 -0.0477 -0.8787
11837SOL    HW240359   4.440   8.651   4.497 -0.6171  0.7903  0.1789
11838SOL     OW40360   3.969   1.582   1.626  0.4484  0.0676 -0.2824
11838SOL    HW140361   3.876   1.604   1.628  0.8946  2.2642  1.8468
11838SOL    HW240362   3.986   1.540   1.710  1.3955 -0.2607 -0.6212
11839SOL     OW40363   2.942   6.970   3.714  0.2796  0.0315  0.3235
11839SOL    HW140364   2.880   7.025   3.761  1.8525  0.9123  1.4672
11839SOL    HW240365   2.888   6.909   3.665 -1.4723  0.0892  2.0740
11840SOL     OW40366   2.779   0.712   2.527 -0.0206  0.6630 -0.2895
11840SOL    HW140367   2.791   0.617   2.540 -0.1372  0.9414  2.6030
11840SOL    HW240368   2.684   0.724   2.528  0.0043  0.9065  0.7413
11841SOL     OW40369   6.331   1.709   4.722  0.1333  0.3140  0.1842
11841SOL    HW140370   6.423   1.684   4.735  0.4094  1.8490  1.5722
11841SOL    HW240371   6.298   1.647   4.657  2.1787 -0.2129 -0.4236
11842SOL     OW40372   5.580   1.125   3.177  0.1161 -0.3316  0.1955
11842SOL    HW140373   5.587   1.214   3.142  0.7726 -0.7553 -0.8020
11842SOL    HW240374   5.486   1.113   3.194 -0.1141  0.2083 -0.6092
11843SOL     OW40375   5.898   1.963   4.079 -0.1718  0.1317 -0.1313
11843SOL    HW140376   5.815   1.961   4.127  1.5700 -0.8874  3.1709
11843SOL    HW240377   5.936   1.877   4.094  2.2535  1.1597  0.0618
11844SOL     OW40378   2.392   1.937   3.765  0.0561  0.1391 -0.1001
11844SOL    HW140379   2.343   1.872   3.715 -0.1373  0.4949 -0.3803
11844SOL    HW240380   2.324   1.989   3.808  0.1957  0.4414 -0.2443
11845SOL     OW40381   5.691   0.885   5.723 -0.8114  0.1108  0.4748
11845SOL    HW140382   5.706   0.842   5.807 -0.7511  0.1554  0.4866
11845SOL    HW240383   5.744   0.964   5.726  0.1075 -0.4675 -0.0653
11846SOL     OW40384   4.120   8.995   6.804 -0.3490  0.2184 -0.0901
11846SOL    HW140385   4.153   9.009   6.716 -0.2576 -1.3193 -0.3258
11846SOL    HW240386   4.024   8.994   6.794 -0.3329 -0.3358 -0.2563
11847SOL     OW40387   5.531   9.297   3.994  0.4041  0.2678  1.1540
11847SOL    HW140388   5.452   9.338   4.030  1.4187  1.9638  1.5465
11847SOL    HW240389   5.572   9.253   4.069  0.1555 -0.1128  1.0720
11848SOL     OW40390   4.173   1.282   4.473 -0.0597  0.2432  0.4809
11848SOL    HW140391   4.235   1.218   4.507 -0.1929  0.6800  1.5912
11848SOL    HW240392   4.228   1.347   4.428  0.0512 -0.7668 -0.9009
11849SOL     OW40393   5.744   2.286   5.920 -0.5128 -0.1665  0.2137
11849SOL    HW140394   5.725   2.206   5.870  2.2376 -1.7305  1.4191
11849SOL    HW240395   5.768   2.350   5.854  0.8954 -1.5282 -0.6705
11850SOL     OW40396   4.848   0.649   5.656 -0.0396 -0.3289  0.6686
11850SOL    HW140397   4.898   0.656   5.574  0.9893 -1.7868  1.1183
11850SOL    HW240398   4.787   0.576   5.641 -0.9793  0.4469  0.6597
11851SOL     OW40399   0.809   0.799   5.323  0.3215 -0.2421 -0.4953
11851SOL    HW140400   0.746   0.759   5.383 -0.6296  0.9614 -0.6473
11851SOL    HW240401   0.763   0.802   5.239  0.6379  0.4913 -0.6493
11852SOL     OW40402   3.627   2.539   3.720  0.1871  0.1651  0.1314
11852SOL    HW140403   3.572   2.483   3.775 -0.1589 -0.5535 -0.9159
11852SOL    HW240404   3.651   2.484   3.645  0.1070  1.3154 -0.7762
11853SOL     OW40405   6.562   1.797   4.289  0.2281 -0.1038 -0.0202
11853SOL    HW140406   6.506   1.737   4.338  2.2362 -0.3027  2.2600
11853SOL    HW240407   6.506   1.833   4.220 -1.9926 -1.9590  0.7119
11854SOL     OW40408   4.818   0.043   3.506  0.4285 -0.1985  0.5265
11854SOL    HW140409   4.858   0.103   3.569  2.3447  1.0405 -1.7174
11854SOL    HW240410   4.809   0.094   3.426 -0.4347 -2.1549 -0.7125
11855SOL     OW40411   5.546   0.783   6.160  0.3083  0.4100 -0.5644
11855SOL    HW140412   5.536   0.818   6.248  0.5414  1.0373 -0.7776
11855SOL    HW240413   5.476   0.718   6.151 -0.8496  1.6024 -0.5354
11856SOL     OW40414   0.270   1.925   5.439 -0.4545 -0.2977 -0.0137
11856SOL    HW140415   0.322   1.845   5.450  0.1273  0.0737 -0.0128
11856SOL    HW240416   0.314   1.973   5.369 -0.5642  0.2090  0.2604
11857SOL     OW40417   2.330   0.554   3.622 -0.0610  0.1494  0.5064
11857SOL    HW140418   2.272   0.480   3.638  0.1119 -0.2982 -0.8021
11857SOL    HW240419   2.310   0.581   3.532  0.3779  1.2390  0.7212
11858SOL     OW40420   3.165   0.707   5.183 -0.6923 -0.1210  0.5300
11858SOL    HW140421   3.192   0.734   5.095  0.3473 -0.7274  0.6410
11858SOL    HW240422   3.070   0.715   5.183 -0.6214  0.8469 -0.3253
11859SOL     OW40423   4.334   6.962   4.772  0.3156 -0.5001  0.4228
11859SOL    HW140424   4.292   6.938   4.690  0.7569 -1.1648  0.3896
11859SOL    HW240425   4.417   7.003   4.746 -0.0630  0.3547  0.5062
11860SOL     OW40426   2.473   0.182   5.472  0.0813 -0.1988 -0.1967
11860SOL    HW140427   2.459   0.138   5.388 -1.5119 -1.8647  0.8521
11860SOL    HW240428   2.564   0.163   5.494  0.1349 -0.8550 -0.9448
11861SOL     OW40429   4.008   2.588   6.862  0.7934 -0.1293  0.0018
11861SOL    HW140430   3.946   2.609   6.792  0.7881  1.1247  0.3573
11861SOL    HW240431   4.092   2.578   6.817  0.6656 -0.0410 -0.2611
11862SOL     OW40432   3.130   0.725   3.014  0.3219 -0.2830  0.2385
11862SOL    HW140433   3.061   0.743   2.950  1.1238 -0.9608 -0.8477
11862SOL    HW240434   3.210   0.722   2.963  1.1630  0.3341  1.4631
11863SOL     OW40435   5.068   1.962   7.456 -0.2855  0.2964  0.6266
11863SOL    HW140436   5.125   2.039   7.468  1.1572 -0.1775 -2.1823
11863SOL    HW240437   5.081   1.910   7.535  2.5960  0.6567  0.5050
11864SOL     OW40438   4.620   9.047   3.450  0.1975 -0.2364  0.1128
11864SOL    HW140439   4.545   9.079   3.399 -0.4529 -0.9871  0.5745
11864SOL    HW240440   4.693   9.047   3.388 -0.0350  1.0700 -0.1880
11865SOL     OW40441   6.946   0.674   3.974 -0.3937 -0.0827  0.5938
11865SOL    HW140442   6.869   0.656   3.919  0.2722  0.9518 -0.7633
11865SOL    HW240443   6.972   0.589   4.007 -1.6175 -0.5689  0.3857
11866SOL     OW40444   3.651   3.376   4.873 -0.5733  0.0624  0.9450
11866SOL    HW140445   3.603   3.428   4.809 -0.9007 -2.3602 -0.9071
11866SOL    HW240446   3.714   3.326   4.821  0.7119 -0.3328  2.7872
11867SOL     OW40447   5.749   1.518   4.180  0.2546  0.6582  0.2125
11867SOL    HW140448   5.730   1.486   4.091  0.2159 -1.3005  0.8803
11867SOL    HW240449   5.808   1.593   4.166  0.3088  0.3540 -1.4536
11868SOL     OW40450   5.283   2.634   5.483  0.1728  0.2399  0.4580
11868SOL    HW140451   5.197   2.658   5.448 -0.5977 -1.1832  1.2862
11868SOL    HW240452   5.333   2.603   5.407  0.0592  1.2735 -0.0611
11869SOL     OW40453   2.417   0.063   5.149 -0.1278  0.5774 -0.3818
11869SOL    HW140454   2.445  -0.027   5.166 -0.3161  0.4874 -0.5529
11869SOL    HW240455   2.411   0.069   5.053 -0.5044  0.6570 -0.3519
11870SOL     OW40456   3.300   9.531   4.281  0.1179  0.3013  0.2165
11870SOL    HW140457   3.213   9.532   4.320  0.2985 -1.7881  0.8441
11870SOL    HW240458   3.358   9.567   4.348 -0.0572  0.1446  0.4524
11871SOL     OW40459   5.835   8.193   3.532 -0.1040 -0.3860 -0.1017
11871SOL    HW140460   5.783   8.116   3.555  0.3530  0.1398  3.1368
11871SOL    HW240461   5.924   8.159   3.519  0.3859 -0.3605  2.6488
11872SOL     OW40462   3.827   9.025   2.327  0.5326  0.2356 -0.0364
11872SOL    HW140463   3.847   9.114   2.299  0.4390 -0.0088 -0.8998
11872SOL    HW240464   3.733   9.024   2.342  0.1246 -0.2959 -2.2761
11873SOL     OW40465   4.348   7.972   3.410  0.0686  0.7020  0.2176
11873SOL    HW140466   4.309   7.976   3.497 -1.4514  1.4099 -0.4575
11873SOL    HW240467   4.385   7.884   3.405 -1.0554  0.1475  1.0779
11874SOL     OW40468   2.854   8.372   4.191 -0.1500  0.1311  0.2054
11874SOL    HW140469   2.906   8.452   4.183 -0.8558  0.6211  0.5158
11874SOL    HW240470   2.778   8.397   4.243 -0.1775 -0.8363  0.6623
11875SOL     OW40471   5.001   9.471   5.494 -0.4625  0.1487 -0.5286
11875SOL    HW140472   4.956   9.515   5.566 -1.0249 -0.3541 -0.5596
11875SOL    HW240473   4.930   9.440   5.437 -0.1231 -1.4134 -0.1355
11876SOL     OW40474   3.322   2.524   3.222 -0.3118  0.0262  0.7852
11876SOL    HW140475   3.296   2.434   3.240  1.6686 -0.4813  1.3448
11876SOL    HW240476   3.297   2.572   3.301 -0.1456 -0.3016  1.0366
11877SOL     OW40477   2.120   9.604   4.928  0.4849 -0.0323 -0.2425
11877SOL    HW140478   2.074   9.591   4.846 -0.7628 -0.4463  0.4987
11877SOL    HW240479   2.091   9.532   4.984  0.8537  0.5669  0.7534
11878SOL     OW40480   4.721   0.540   5.283  0.0358 -0.4225  0.3503
11878SOL    HW140481   4.755   0.514   5.198 -0.8670  1.6652 -0.7170
11878SOL    HW240482   4.799   0.548   5.338  0.7155 -0.9373 -0.5069
11879SOL     OW40483   5.269   1.791   5.023 -0.4821 -0.6880  0.0074
11879SOL    HW140484   5.361   1.818   5.031 -0.6406 -0.6107  2.4522
11879SOL    HW240485   5.220   1.868   5.052 -1.3959 -0.5915 -1.6651
11880SOL     OW40486   4.325   2.536   4.843  0.2978  0.2446  0.2197
11880SOL    HW140487   4.351   2.579   4.762 -1.8559  0.4042 -0.4561
11880SOL    HW240488   4.260   2.471   4.816  1.3243 -1.4403  1.5614
11881SOL     OW40489   3.410   9.566   4.019  1.0858  0.1689 -0.5013
11881SOL    HW140490   3.327   9.601   3.986  1.5189  0.1913 -1.6146
11881SOL    HW240491   3.387   9.524   4.102  0.2474  1.5650  0.0199
11882SOL     OW40492   6.287   0.272   3.065  0.1108  0.5853 -0.8083
11882SOL    HW140493   6.241   0.189   3.055  2.2058 -0.6823 -0.6588
11882SOL    HW240494   6.287   0.311   2.978  0.5760 -0.4253 -1.2708
11883SOL     OW40495   4.491   7.469   4.858  0.5253 -0.8865 -0.2888
11883SOL    HW140496   4.558   7.409   4.826  0.5592 -1.8909  1.4874
11883SOL    HW240497   4.446   7.419   4.927  1.3828  1.5182  2.1958
11884SOL     OW40498   6.067   9.835   5.167  0.2651 -0.2564 -0.1788
11884SOL    HW140499   6.145   9.890   5.165  0.1305 -0.0344  0.4795
11884SOL    HW240500   6.066   9.799   5.255 -1.4284  1.2940  0.5050
11885SOL     OW40501   3.236   0.719   4.636 -0.0246 -0.3425 -0.0093
11885SOL    HW140502   3.174   0.758   4.574  2.0326  2.0265 -0.7590
11885SOL    HW240503   3.320   0.722   4.590  1.1240 -0.9377  1.9384
11886SOL     OW40504   3.343   8.861   3.476 -0.4476 -0.3600 -0.0958
11886SOL    HW140505   3.410   8.815   3.526 -0.1904 -0.6736 -0.7316
11886SOL    HW240506   3.390   8.899   3.402 -1.0004 -0.7176 -0.6305
11887SOL     OW40507   6.250   2.645   4.334  0.0695 -0.2533  0.8304
11887SOL    HW140508   6.190   2.591   4.282 -0.8207  1.1368  0.3594
11887SOL    HW240509   6.322   2.665   4.275 -0.4383  0.4760  0.4536
11888SOL     OW40510   4.682   2.744   2.578  0.2747 -0.5323  0.1761
11888SOL    HW140511   4.634   2.754   2.495 -1.9682  2.0885  1.6158
11888SOL    HW240512   4.765   2.704   2.553 -0.0651  0.6412 -3.4193
11889SOL     OW40513   5.171   3.896   4.064  0.4373 -0.3014 -0.0436
11889SOL    HW140514   5.121   3.951   4.004  0.7605 -1.6642 -1.6447
11889SOL    HW240515   5.262   3.906   4.036  0.6572 -0.5628  0.5521
11890SOL     OW40516   4.020   8.994   4.511  0.2457 -0.3208  0.2720
11890SOL    HW140517   3.979   9.065   4.562  0.2880  0.6565 -1.0278
11890SOL    HW240518   3.946   8.947   4.473  0.2744  0.5230 -0.8464
11891SOL     OW40519   5.918   1.828   6.560 -0.0392  0.9192 -0.1053
11891SOL    HW140520   5.990   1.821   6.497  0.6737  4.1020  0.1809
11891SOL    HW240521   5.899   1.737   6.584  2.6858 -0.1589 -1.5027
11892SOL     OW40522   4.229   0.729   5.949 -0.2582 -0.3681 -0.1959
11892SOL    HW140523   4.186   0.653   5.988 -0.2458 -1.1426 -1.6364
11892SOL    HW240524   4.316   0.731   5.990 -0.4417 -0.8157  0.2216
11893SOL     OW40525   6.182   8.725   3.911  0.3094 -0.2547 -0.4662
11893SOL    HW140526   6.189   8.756   3.821  2.8273 -0.4560 -0.4181
11893SOL    HW240527   6.179   8.806   3.963  0.3534 -0.1351 -0.6468
11894SOL     OW40528   3.345   2.280   1.687 -0.1871 -0.3115  0.0845
11894SOL    HW140529   3.322   2.191   1.714 -2.1040 -0.5144 -1.9437
11894SOL    HW240530   3.415   2.268   1.622  0.3068 -0.2319  0.5905
11895SOL     OW40531   5.103   1.752   3.754  0.0284 -0.1664  0.2113
11895SOL    HW140532   5.126   1.818   3.689  0.3776 -1.1726 -0.7322
11895SOL    HW240533   5.170   1.760   3.822 -0.5925  1.1880  0.6929
11896SOL     OW40534   5.007   1.127   3.567 -0.0044 -0.4502 -0.5206
11896SOL    HW140535   4.921   1.108   3.604 -0.7015 -1.0015 -2.3558
11896SOL    HW240536   5.041   1.042   3.539  0.5089 -0.0456 -1.1489
11897SOL     OW40537   4.807   1.532   3.684  0.1626 -0.0643 -0.6312
11897SOL    HW140538   4.796   1.584   3.764 -2.6681  1.8383 -2.1178
11897SOL    HW240539   4.756   1.453   3.700 -0.7041  0.4774 -0.6805
11898SOL     OW40540   6.272   3.208   0.210  0.4542 -0.1745 -0.2875
11898SOL    HW140541   6.241   3.227   0.298 -1.2083 -2.9478 -0.1620
11898SOL    HW240542   6.359   3.169   0.223  0.1398 -0.7345  0.1334
11899SOL     OW40543   3.020   1.724   4.175  0.0952 -0.1111 -0.0343
11899SOL    HW140544   2.978   1.649   4.132  0.3085 -1.3490  1.7963
11899SOL    HW240545   2.954   1.757   4.236  0.6957 -0.0920  0.6155
11900SOL     OW40546   5.130   0.653   3.332  0.8813 -0.4655  0.0395
11900SOL    HW140547   5.125   0.618   3.421 -0.2566 -1.0314 -0.2277
11900SOL    HW240548   5.198   0.601   3.289  3.6992  1.8274  1.4075
11901SOL     OW40549   6.673   2.274   4.662 -0.4101 -0.4478  0.2295
11901SOL    HW140550   6.766   2.251   4.665  0.3299  2.3397  1.2151
11901SOL    HW240551   6.646   2.278   4.754 -0.5457  2.0095  0.1501
11902SOL     OW40552   5.594   1.385   5.406  0.2287 -0.0989  0.5720
11902SOL    HW140553   5.529   1.372   5.475 -1.1667 -1.9694 -0.9937
11902SOL    HW240554   5.574   1.318   5.341  2.8721  0.1680 -0.6536
11903SOL     OW40555   4.618   0.806   5.375 -0.5144  0.5578 -0.1419
11903SOL    HW140556   4.690   0.834   5.432  0.9316 -0.2001 -1.5229
11903SOL    HW240557   4.635   0.713   5.359 -2.4033  0.0959  0.3290
11904SOL     OW40558   4.347   8.159   6.826  0.1419 -0.4818 -0.0587
11904SOL    HW140559   4.266   8.189   6.867 -1.3407 -2.6000 -1.2549
11904SOL    HW240560   4.342   8.194   6.737  1.5972  1.0574  0.4022
11905SOL     OW40561   4.404   0.964   5.544  0.1335  0.0111 -0.5786
11905SOL    HW140562   4.495   0.939   5.526 -0.1091 -1.0866 -0.3500
11905SOL    HW240563   4.407   1.002   5.632  0.4913  0.7317 -0.8898
11906SOL     OW40564   5.534   1.651   5.621  0.5946 -0.1009 -0.1094
11906SOL    HW140565   5.504   1.725   5.675 -0.0002 -0.6527  0.3293
11906SOL    HW240566   5.493   1.574   5.661  0.1851 -0.5341 -1.3294
11907SOL     OW40567   2.553   0.506   3.236 -0.3016 -0.2454  0.3033
11907SOL    HW140568   2.505   0.536   3.314  0.9616 -1.4680  1.6264
11907SOL    HW240569   2.558   0.583   3.180 -2.8149  0.2200  0.5804
11908SOL     OW40570   0.464   2.466   4.895  0.6128  0.1911 -0.2379
11908SOL    HW140571   0.397   2.496   4.833  1.1788 -0.4181 -1.1642
11908SOL    HW240572   0.500   2.547   4.932  0.0502  0.5534 -0.4630
11909SOL     OW40573   1.550   2.562   3.230  0.4629  0.1716 -0.1084
11909SOL    HW140574   1.464   2.603   3.237 -0.5177 -1.9312  0.9619
11909SOL    HW240575   1.590   2.575   3.315  1.3988  1.4714 -0.7209
11910SOL     OW40576   4.029   9.375   4.632  0.3430 -0.3849 -0.1030
11910SOL    HW140577   3.973   9.374   4.710  0.9052  0.3319  0.3205
11910SOL    HW240578   4.118   9.366   4.667  0.8153  2.2516 -0.4398
11911SOL     OW40579   3.569   0.097   4.253 -0.2122  1.0437 -0.1933
11911SOL    HW140580   3.614   0.013   4.246  0.6741  1.4047  0.8041
11911SOL    HW240581   3.477   0.075   4.268 -0.1505  0.2722 -0.9045
11912SOL     OW40582   5.436   0.790   2.968 -0.1878  0.2541 -0.3094
11912SOL    HW140583   5.489   0.821   2.894 -0.6085 -0.3192 -0.8638
11912SOL    HW240584   5.494   0.799   3.044  1.0686 -1.2309 -1.0223
11913SOL     OW40585   4.276   9.362   2.379  0.8065  0.5458  0.2161
11913SOL    HW140586   4.193   9.376   2.425  1.4125  0.5538  1.3305
11913SOL    HW240587   4.251   9.317   2.298 -0.2539  0.3007  0.6641
11914SOL     OW40588   3.313   8.761   4.826 -0.1585 -0.5509  0.2076
11914SOL    HW140589   3.300   8.769   4.732 -3.0503 -0.9507  0.4774
11914SOL    HW240590   3.263   8.684   4.851 -0.5493  0.2852  2.2355
11915SOL     OW40591   5.339   1.674   3.524 -0.3455 -0.3448 -0.0872
11915SOL    HW140592   5.306   1.587   3.502 -1.2968 -0.3711  1.3238
11915SOL    HW240593   5.433   1.669   3.509  0.0074 -2.4002  2.2490
11916SOL     OW40594   3.908   9.404   4.868 -0.1781  0.3018 -0.1625
11916SOL    HW140595   3.953   9.461   4.930  1.2428 -0.9158 -0.0199
11916SOL    HW240596   3.815   9.423   4.882  0.0971  0.3727  2.0778
11917SOL     OW40597   4.399   9.593   3.805  0.1692 -0.1221 -0.0755
11917SOL    HW140598   4.437   9.606   3.892 -0.6157 -0.3905  0.3215
11917SOL    HW240599   4.332   9.526   3.819 -0.4102  0.3039 -0.7588
11918SOL     OW40600   5.568   1.663   4.531  0.3293  0.8308  0.4646
11918SOL    HW140601   5.490   1.629   4.489  0.6498  1.3277 -0.5650
11918SOL    HW240602   5.540   1.683   4.621 -0.4068 -0.0793  0.4520
11919SOL     OW40603   4.635   0.265   4.969  0.3779  0.2992  0.0288
11919SOL    HW140604   4.663   0.189   5.020 -1.1519 -1.3113 -1.4144
11919SOL    HW240605   4.717   0.302   4.935  1.1348 -0.8489  0.5366
11920SOL     OW40606   3.570   1.269   3.043 -0.3402  0.0387  0.4861
11920SOL    HW140607   3.624   1.297   3.117  0.0772  2.0033 -0.4942
11920SOL    HW240608   3.612   1.189   3.011  0.0184 -0.3058  1.7484
11921SOL     OW40609   4.793   2.108   4.792  0.0446 -0.2309  0.1032
11921SOL    HW140610   4.775   2.014   4.798 -0.2223 -0.1984 -0.1825
11921SOL    HW240611   4.879   2.114   4.751 -0.0825 -0.3439 -0.1831
11922SOL     OW40612   5.977   4.188   4.794  0.3171  0.2077 -0.0959
11922SOL    HW140613   6.060   4.143   4.780  0.9177  1.1540  0.3455
11922SOL    HW240614   5.923   4.125   4.842 -0.6236 -1.8900 -3.5476
11923SOL     OW40615   4.400   2.337   4.537 -0.0393  0.3206  0.1510
11923SOL    HW140616   4.339   2.332   4.610  0.8250  3.1480  1.2095
11923SOL    HW240617   4.467   2.271   4.556 -1.3444 -0.9785  0.3449
11924SOL     OW40618   3.780   9.684   3.324  0.4705  0.5275  0.2300
11924SOL    HW140619   3.855   9.673   3.265  1.2775 -2.6686  1.6029
11924SOL    HW240620   3.706   9.701   3.266  1.8727  1.5067 -1.3498
11925SOL     OW40621   3.544   0.355   3.584 -0.1176 -0.6348 -0.6113
11925SOL    HW140622   3.547   0.403   3.667  0.0673 -1.8336  0.0997
11925SOL    HW240623   3.589   0.412   3.522  1.0143 -0.3351  0.4473
11926SOL     OW40624   2.527   1.377   3.711  0.5042  1.1184  0.8976
11926SOL    HW140625   2.500   1.299   3.759  1.5595 -0.0687 -0.3299
11926SOL    HW240626   2.447   1.426   3.696 -0.1785  0.2832  1.7202
11927SOL     OW40627   4.352   2.622   4.590  0.5323  0.4230 -0.4687
11927SOL    HW140628   4.412   2.573   4.533 -0.6782 -1.9497  0.1754
11927SOL    HW240629   4.267   2.614   4.548  0.3726  2.6651 -0.7022
11928SOL     OW40630   3.892   0.464   4.134  0.4468  0.1988 -0.2595
11928SOL    HW140631   3.938   0.503   4.209 -0.3993  1.7333 -0.4944
11928SOL    HW240632   3.910   0.524   4.062 -0.2742 -0.2645 -0.8305
11929SOL     OW40633   4.016   0.662   5.171  0.1399 -0.1442  0.2613
11929SOL    HW140634   3.938   0.662   5.116  0.3370 -0.7080 -0.0232
11929SOL    HW240635   4.012   0.745   5.218  1.1375  1.5067 -2.3008
11930SOL     OW40636   4.308   0.939   5.806 -0.4825 -0.2779 -0.1787
11930SOL    HW140637   4.279   0.869   5.864  0.5887 -1.0305 -0.5165
11930SOL    HW240638   4.258   1.016   5.834 -1.8213 -1.2016  0.0805
11931SOL     OW40639   3.308   9.025   4.886  0.2168  0.6485 -1.2045
11931SOL    HW140640   3.264   9.020   4.970 -3.8343  2.2090 -2.9815
11931SOL    HW240641   3.318   8.934   4.858 -0.1975  0.1948  0.0694
11932SOL     OW40642   3.747   9.482   4.299 -0.6802 -0.0836 -0.1973
11932SOL    HW140643   3.819   9.449   4.352 -2.0783 -0.4369  1.6017
11932SOL    HW240644   3.683   9.411   4.298 -2.2379  1.2123  0.7923
11933SOL     OW40645   4.748   1.611   3.102  0.0765  0.7661  0.3739
11933SOL    HW140646   4.816   1.666   3.142  0.1203  0.5671  0.5751
11933SOL    HW240647   4.782   1.522   3.110  1.6790  0.9182 -3.1461
11934SOL     OW40648   4.154   2.820   1.151  0.0985  0.1566 -0.2834
11934SOL    HW140649   4.165   2.879   1.225  0.6030 -1.0226  0.6130
11934SOL    HW240650   4.063   2.830   1.125  0.0960  1.0816  0.0697
11935SOL     OW40651   3.832   2.262   6.368 -0.5767 -0.2453  0.0967
11935SOL    HW140652   3.764   2.215   6.321 -0.5399 -0.1627 -0.0412
11935SOL    HW240653   3.870   2.198   6.428  1.8535 -1.4655 -2.5040
11936SOL     OW40654   3.837   1.914   7.758  0.2626 -0.4147 -0.4559
11936SOL    HW140655   3.930   1.910   7.781 -0.0496 -0.7005  0.8376
11936SOL    HW240656   3.792   1.886   7.837 -1.0442  2.2701 -0.1457
11937SOL     OW40657   3.718   9.348   6.309 -0.1615 -0.1614 -0.0238
11937SOL    HW140658   3.735   9.431   6.264  0.2755 -0.3823 -0.2778
11937SOL    HW240659   3.799   9.298   6.298 -0.6325 -0.8597 -0.4033
11938SOL     OW40660   3.620   1.227   8.774  0.7570  0.0633  0.3427
11938SOL    HW140661   3.645   1.222   8.682 -0.1396  3.2131 -0.1711
11938SOL    HW240662   3.702   1.233   8.822  1.2456 -1.9640 -0.1542
11939SOL     OW40663   5.122   0.879   6.459  0.8020  0.2607 -0.4495
11939SOL    HW140664   5.181   0.823   6.409  0.7873  1.4112 -1.7830
11939SOL    HW240665   5.059   0.817   6.498  2.9570 -1.0055  1.2268
11940SOL     OW40666   6.345   9.634   7.408 -0.1436 -0.2535 -0.2227
11940SOL    HW140667   6.352   9.558   7.351 -0.6204  0.0636 -0.7167
11940SOL    HW240668   6.262   9.675   7.383 -0.3766 -0.1298  0.7235
11941SOL     OW40669   5.419   0.468   6.163  0.8288 -0.3785  0.5175
11941SOL    HW140670   5.514   0.473   6.168  0.7508  0.1796  1.7595
11941SOL    HW240671   5.389   0.476   6.253 -0.4315  0.3711  0.0686
11942SOL     OW40672   5.587   1.621   7.913 -0.0248  0.6382  0.3223
11942SOL    HW140673   5.680   1.601   7.901 -0.4934 -0.1719 -2.9697
11942SOL    HW240674   5.570   1.599   8.005  2.6329 -0.9185  0.5587
11943SOL     OW40675   6.191   9.713   5.400 -0.0476 -0.2063 -0.2510
11943SOL    HW140676   6.163   9.623   5.415  1.0540 -0.5043  0.0773
11943SOL    HW240677   6.188   9.754   5.486 -1.1122  0.2520 -0.4904
11944SOL     OW40678   2.989   2.382   7.636 -0.0489 -0.0673 -0.0482
11944SOL    HW140679   3.022   2.410   7.721  0.2526  0.1925 -0.2488
11944SOL    HW240680   3.027   2.295   7.623  0.9981  0.4436 -0.5129
11945SOL     OW40681   2.363   1.886   8.253  0.2555 -0.0410 -0.1051
11945SOL    HW140682   2.436   1.902   8.313  0.6792  0.3588 -0.7160
11945SOL    HW240683   2.405   1.858   8.171 -0.3878 -2.3909  0.3210
11946SOL     OW40684   3.490   1.312   5.598 -0.1644  0.4211 -0.5183
11946SOL    HW140685   3.455   1.247   5.659 -1.6394  0.5036 -1.2339
11946SOL    HW240686   3.416   1.336   5.543  0.8423  1.2377 -1.5750
11947SOL     OW40687   3.059   7.363   5.953 -0.6435 -0.3400  0.3032
11947SOL    HW140688   3.027   7.337   5.867 -0.2022  0.7962 -0.2270
11947SOL    HW240689   3.144   7.403   5.936  0.1634 -1.4861  1.4562
11948SOL     OW40690   5.668   0.687   5.537 -0.7941  0.0928  0.3630
11948SOL    HW140691   5.683   0.750   5.607  0.2013 -0.9778  1.1522
11948SOL    HW240692   5.585   0.715   5.497 -1.5465  0.5662  2.1473
11949SOL     OW40693   4.435   0.423   6.498 -0.3299  0.3302  0.2169
11949SOL    HW140694   4.478   0.495   6.543 -2.7051  0.3022  2.7808
11949SOL    HW240695   4.506   0.373   6.458  1.9258  0.8056  3.3438
11950SOL     OW40696   4.494   1.346   7.459 -0.1780 -0.2295  0.3480
11950SOL    HW140697   4.589   1.333   7.458 -0.0729  0.5148 -0.8726
11950SOL    HW240698   4.482   1.428   7.507 -0.1867 -0.2031  0.3007
11951SOL     OW40699   5.144   1.799   4.505  0.4862 -0.4600 -0.5878
11951SOL    HW140700   5.073   1.735   4.507  0.1551 -0.2554 -2.9360
11951SOL    HW240701   5.129   1.854   4.582 -1.1654 -1.1840 -0.3564
11952SOL     OW40702   4.758   1.875   5.365  0.2283 -0.4201 -0.0446
11952SOL    HW140703   4.719   1.959   5.339 -1.2897 -1.7108 -2.2724
11952SOL    HW240704   4.738   1.867   5.458  0.3309  1.6123  0.2057
11953SOL     OW40705   3.980   4.623   9.272  0.3388  0.4769 -0.0251
11953SOL    HW140706   3.956   4.542   9.227 -0.4451  0.1930  0.8678
11953SOL    HW240707   3.904   4.643   9.327  0.7767  1.4811  0.2341
11954SOL     OW40708   5.856   9.316   6.565  0.1477  0.3153  0.1122
11954SOL    HW140709   5.845   9.411   6.553  0.9211  0.8826  3.1100
11954SOL    HW240710   5.857   9.304   6.660  2.1536 -2.4719 -0.1464
11955SOL     OW40711   5.682   0.490   7.441 -0.7152 -0.2494  0.1886
11955SOL    HW140712   5.711   0.559   7.501 -1.6654  0.1345  0.2412
11955SOL    HW240713   5.618   0.534   7.385 -1.7724 -1.2192  0.5959
11956SOL     OW40714   0.622   0.692   4.825  0.1242  0.4061  0.5592
11956SOL    HW140715   0.597   0.610   4.866  0.6152 -0.9293 -1.6449
11956SOL    HW240716   0.545   0.719   4.775  0.2915  0.7654  0.4921
11957SOL     OW40717   5.344   3.348   7.153 -0.2637 -0.0005  0.5478
11957SOL    HW140718   5.380   3.437   7.153  1.1497 -0.5359  0.8601
11957SOL    HW240719   5.322   3.331   7.244 -0.0889 -0.1352  0.5654
11958SOL     OW40720   5.178   1.165   6.301 -0.6035  0.1401 -0.1983
11958SOL    HW140721   5.139   1.106   6.366 -0.3457  2.2680  2.0463
11958SOL    HW240722   5.103   1.202   6.255 -0.7578 -2.2324 -2.0883
11959SOL     OW40723   7.410   0.829   8.633 -0.1049 -0.3952  0.0178
11959SOL    HW140724   7.476   0.849   8.568 -1.3909  2.2318 -0.6024
11959SOL    HW240725   7.445   0.753   8.679  1.3772 -1.6854 -2.9439
11960SOL     OW40726   5.949   0.473   5.891 -0.0468 -0.1252 -0.3676
11960SOL    HW140727   5.959   0.522   5.973  1.7245 -1.0061 -0.0091
11960SOL    HW240728   5.908   0.391   5.917  0.1198 -0.2278 -0.4276
11961SOL     OW40729   5.118   2.210   6.507 -0.1020 -0.5827  0.0447
11961SOL    HW140730   5.145   2.289   6.553 -0.8229 -0.2080 -0.1549
11961SOL    HW240731   5.056   2.241   6.441  1.5302 -0.9939 -1.7678
11962SOL     OW40732   5.894   2.031   7.908  0.1656  0.6913  0.0465
11962SOL    HW140733   5.802   2.038   7.932  0.1272  2.1839 -0.4785
11962SOL    HW240734   5.914   1.937   7.919 -2.3568 -0.4139 -3.2534
11963SOL     OW40735   5.244   1.009   6.695  0.1726  0.1882 -0.0101
11963SOL    HW140736   5.284   1.075   6.638 -1.3701  0.8346 -0.3837
11963SOL    HW240737   5.214   0.941   6.635  0.9949 -0.4779  0.3057
11964SOL     OW40738   3.037   9.507   4.610  0.2276 -0.0516  0.0316
11964SOL    HW140739   2.979   9.561   4.557 -0.6432 -1.0654 -0.0930
11964SOL    HW240740   3.124   9.543   4.596 -0.1581  0.4677 -1.1054
11965SOL     OW40741   3.527   9.310   4.258 -0.1222  0.1132 -0.2046
11965SOL    HW140742   3.488   9.390   4.292 -0.1410  0.3633 -0.8132
11965SOL    HW240743   3.509   9.244   4.326 -1.6586  0.1986 -0.4924
11966SOL     OW40744   5.997   9.764   6.957 -0.5292 -0.3274  0.0110
11966SOL    HW140745   5.953   9.834   7.006 -1.3816 -0.3797 -0.6508
11966SOL    HW240746   6.026   9.702   7.024 -0.2519  0.3838  0.5653
11967SOL     OW40747   2.557   2.440   5.808  0.0131 -0.6021 -0.1509
11967SOL    HW140748   2.652   2.427   5.804 -0.0969 -1.6043  0.3435
11967SOL    HW240749   2.527   2.380   5.876 -1.1823 -1.5190 -1.4326
11968SOL     OW40750   4.973   0.694   7.479  0.7101 -0.0434  0.3540
11968SOL    HW140751   4.963   0.738   7.394  1.8017 -0.7646 -0.1761
11968SOL    HW240752   5.063   0.713   7.505  0.3236  0.3108  1.4414
11969SOL     OW40753   4.912   0.601   7.804 -0.3375  0.1608  0.2128
11969SOL    HW140754   4.877   0.686   7.829  1.1936  1.7272 -2.5487
11969SOL    HW240755   4.895   0.545   7.880 -1.6442  2.8169  2.0247
11970SOL     OW40756   3.668   0.344   5.124 -0.0186 -0.0640 -0.2865
11970SOL    HW140757   3.639   0.321   5.213 -0.2492  1.3276  0.0237
11970SOL    HW240758   3.588   0.368   5.078  0.3136  1.3711 -0.1780
11971SOL     OW40759   6.785   9.783   7.395 -0.1546  0.3926 -0.0351
11971SOL    HW140760   6.752   9.800   7.307  2.6542 -1.2323 -1.5407
11971SOL    HW240761   6.791   9.688   7.402  2.3134  0.5109  0.7459
11972SOL     OW40762   2.977   2.634   6.568  0.0398 -0.1823 -0.0897
11972SOL    HW140763   2.888   2.599   6.567 -0.0969  0.0354 -2.7655
11972SOL    HW240764   3.029   2.566   6.612 -1.4929  0.0201  2.1901
11973SOL     OW40765   2.753   0.616   6.636  0.1198 -0.1431  0.1544
11973SOL    HW140766   2.688   0.562   6.681 -0.3715  1.2071  1.1486
11973SOL    HW240767   2.718   0.706   6.644  1.0795  0.3693 -1.1126
11974SOL     OW40768   4.992   2.137   6.762  0.3802  0.0121 -0.3722
11974SOL    HW140769   4.914   2.090   6.734  1.0800 -0.1534 -2.1398
11974SOL    HW240770   5.030   2.173   6.682  0.7570  2.2706  0.7325
11975SOL     OW40771   7.807   0.379   6.331  0.4421 -0.2970  0.1757
11975SOL    HW140772   7.843   0.336   6.409  0.4674  0.5352  0.6299
11975SOL    HW240773   7.714   0.388   6.349  0.0683 -1.8795 -0.7376
11976SOL     OW40774   4.846   5.570   7.787  0.3402  0.0783 -0.3406
11976SOL    HW140775   4.926   5.603   7.746  0.3219  0.1113 -0.3501
11976SOL    HW240776   4.869   5.482   7.818  0.3106 -0.0109 -0.5611
11977SOL     OW40777   5.155   0.687   7.239 -0.5728 -0.5381  0.0696
11977SOL    HW140778   5.161   0.765   7.184 -0.4915  0.0675  0.9207
11977SOL    HW240779   5.192   0.714   7.323  1.6414 -2.1608 -0.3071
11978SOL     OW40780   5.891   0.208   5.155 -0.6314 -0.1351 -0.2435
11978SOL    HW140781   5.965   0.165   5.198 -0.7413 -0.7638 -0.6805
11978SOL    HW240782   5.927   0.242   5.073 -0.7814 -0.2578 -0.3597
11979SOL     OW40783   5.817   9.496   9.858  0.5284  0.3776  0.0957
11979SOL    HW140784   5.884   9.505   9.790 -0.5759 -1.4055 -1.3350
11979SOL    HW240785   5.858   9.443   9.926  1.1470  0.8801  0.1253
11980SOL     OW40786   4.391   2.415   6.953  0.0589  0.5558 -0.3180
11980SOL    HW140787   4.476   2.389   6.989 -0.1047 -0.8023 -0.8539
11980SOL    HW240788   4.410   2.440   6.863  0.0430  1.3216 -0.1180
11981SOL     OW40789   5.169   3.126   6.654  0.0772 -0.0071 -0.4621
11981SOL    HW140790   5.180   3.097   6.745 -3.5490 -0.0609  0.1153
11981SOL    HW240791   5.171   3.221   6.659 -0.4919 -0.0038 -0.2476
11982SOL     OW40792   3.101   1.035   3.650 -0.1779  0.2941  0.0738
11982SOL    HW140793   3.119   1.043   3.557  1.1333 -0.2055  0.2697
11982SOL    HW240794   3.058   1.117   3.673  0.8992  1.0829 -0.6527
11983SOL     OW40795   2.662   9.665   5.842  0.0311 -0.4363  0.4256
11983SOL    HW140796   2.617   9.601   5.787 -0.9292  0.6888 -0.1440
11983SOL    HW240797   2.594   9.724   5.872  0.7930 -0.0736  1.5136
11984SOL     OW40798   2.713   0.388   7.500  0.1700  0.4678 -0.2541
11984SOL    HW140799   2.654   0.437   7.442 -0.7718 -2.5427 -2.0539
11984SOL    HW240800   2.664   0.379   7.582 -2.0866 -2.0507 -1.7404
11985SOL     OW40801   5.845   2.588   6.004  0.2590 -0.0317 -0.2773
11985SOL    HW140802   5.826   2.590   6.098 -2.5313  0.1954 -0.7484
11985SOL    HW240803   5.940   2.582   5.999  0.4240 -1.9517  2.5649
11986SOL     OW40804   2.434   2.593   2.512 -0.3929 -0.0647 -0.8141
11986SOL    HW140805   2.400   2.589   2.423 -1.9071 -2.9526 -0.2290
11986SOL    HW240806   2.359   2.573   2.567  0.3212  2.3850  1.2477
11987SOL     OW40807   4.630   1.066   7.209  0.1513  0.0365 -0.3486
11987SOL    HW140808   4.546   1.055   7.165  0.0978  1.2238 -0.5782
11987SOL    HW240809   4.694   1.068   7.138  0.1173  1.4522 -0.3618
11988SOL     OW40810   3.500   2.391   8.941  0.1525  0.0738 -0.1268
11988SOL    HW140811   3.546   2.472   8.920 -1.3553  1.1101  0.3240
11988SOL    HW240812   3.408   2.409   8.918 -0.6411 -0.6422  2.1592
11989SOL     OW40813   4.235   1.932   7.342  0.6551  0.4793  0.3281
11989SOL    HW140814   4.234   1.933   7.246  1.1928  1.6679  0.3134
11989SOL    HW240815   4.252   1.841   7.365 -2.6186 -0.5202 -0.6279
11990SOL     OW40816   4.289   8.480   6.171  0.0306 -0.3204  0.1785
11990SOL    HW140817   4.371   8.494   6.124 -0.0955  0.9243  0.2861
11990SOL    HW240818   4.253   8.568   6.182 -0.9422 -0.7830  0.8081
11991SOL     OW40819   4.515   9.038   7.339  0.6036  0.1494  0.2818
11991SOL    HW140820   4.460   8.988   7.400  0.8205 -1.6603 -0.9521
11991SOL    HW240821   4.597   8.989   7.334  1.5331  1.6211  0.3830
11992SOL     OW40822   6.502   9.277   8.053 -0.1701 -0.1033  0.0924
11992SOL    HW140823   6.415   9.258   8.018  0.7317 -1.1194 -1.7742
11992SOL    HW240824   6.517   9.208   8.117 -1.8399  1.7727  2.6909
11993SOL     OW40825   3.058   9.574   7.430  0.0012 -0.4516  0.1729
11993SOL    HW140826   3.108   9.634   7.485 -0.2835  0.3838 -0.4571
11993SOL    HW240827   2.973   9.565   7.473  0.5373 -1.6008  1.0605
11994SOL     OW40828   1.960   1.607   5.315 -0.4422  0.7587  0.0397
11994SOL    HW140829   1.944   1.570   5.402 -0.6826  0.9630  0.0803
11994SOL    HW240830   2.044   1.652   5.324  0.7609 -1.2545 -0.4711
11995SOL     OW40831   6.271   0.826   6.521  0.0262  0.3223 -0.4188
11995SOL    HW140832   6.201   0.872   6.476 -0.4150 -0.6774 -0.7840
11995SOL    HW240833   6.343   0.823   6.458  0.2266  0.9015 -0.2257
11996SOL     OW40834   3.794   0.066   5.130  0.7424 -0.3625  0.0704
11996SOL    HW140835   3.773   0.159   5.119  0.6029 -0.5909 -1.9452
11996SOL    HW240836   3.881   0.057   5.091  1.1747 -0.9167  1.1358
11997SOL     OW40837   2.368   2.355   5.637 -0.5544  0.2342 -0.2383
11997SOL    HW140838   2.437   2.369   5.702  0.7663 -1.6265 -1.1620
11997SOL    HW240839   2.290   2.334   5.689  0.5750 -1.6695  0.8057
11998SOL     OW40840   3.906   8.506   7.242  0.6601 -0.8508  0.0139
11998SOL    HW140841   3.937   8.423   7.279 -1.2824 -0.6493  2.3364
11998SOL    HW240842   3.818   8.517   7.277  0.9001  2.2938 -0.0603
11999SOL     OW40843   4.092   8.916   7.464  0.6451 -0.2886  0.2879
11999SOL    HW140844   4.046   8.879   7.388  0.6370 -1.5718  0.8934
11999SOL    HW240845   4.066   8.861   7.537 -0.4221  1.7802  1.5226
12000SOL     OW40846   4.693   8.760   6.411 -0.5277  0.5632 -0.0990
12000SOL    HW140847   4.685   8.843   6.363  1.3370 -0.5031 -2.4635
12000SOL    HW240848   4.771   8.771   6.465  0.0460  0.1744 -0.8400
12001SOL     OW40849   4.405   1.227   5.677 -0.6082  0.0535  0.3324
12001SOL    HW140850   4.330   1.285   5.663 -2.0622 -1.5976  0.8954
12001SOL    HW240851   4.460   1.275   5.739  0.2608  2.4909 -2.0961
12002SOL     OW40852   5.351   1.142   5.375 -0.2661 -0.2566 -0.2396
12002SOL    HW140853   5.339   1.107   5.463  2.3788 -0.7848  0.0099
12002SOL    HW240854   5.290   1.216   5.370 -0.4877 -0.2036  2.0426
12003SOL     OW40855   2.217   0.998   7.180 -0.9522  0.6457  0.1595
12003SOL    HW140856   2.285   0.973   7.118 -0.0052 -0.0858  1.4442
12003SOL    HW240857   2.150   1.040   7.126 -0.2147 -0.0350 -1.3555
12004SOL     OW40858   4.755   8.994   8.070  0.4460  0.0168 -0.4732
12004SOL    HW140859   4.850   8.996   8.077  0.4197 -1.4283  1.2141
12004SOL    HW240860   4.732   9.076   8.027  2.4146  0.5852 -0.5462
12005SOL     OW40861   2.917   0.031   5.365 -0.5349  0.0361  0.1240
12005SOL    HW140862   2.922  -0.063   5.384 -0.0289 -0.1651 -0.9229
12005SOL    HW240863   2.863   0.037   5.287  1.2166  0.3967 -1.1244
12006SOL     OW40864   4.654   0.791   4.255  0.0701 -0.1555  0.2637
12006SOL    HW140865   4.674   0.735   4.330 -0.9511  0.8235  1.2895
12006SOL    HW240866   4.569   0.759   4.224  0.9036 -1.1742 -1.1120
12007SOL     OW40867   6.626   9.519   6.549 -0.0739  0.1726 -0.2112
12007SOL    HW140868   6.679   9.511   6.629  1.1057  0.2574 -0.9646
12007SOL    HW240869   6.638   9.609   6.521  0.5007 -0.1809 -1.1420
12008SOL     OW40870   7.122   8.840   8.040  0.2662 -0.2387  0.1530
12008SOL    HW140871   7.067   8.777   7.995  0.7698 -0.5345 -0.0546
12008SOL    HW240872   7.144   8.797   8.123 -1.5474  0.7313  1.2135
12009SOL     OW40873   6.059   3.544   5.214  0.5602 -0.8734 -0.2732
12009SOL    HW140874   6.126   3.477   5.229  0.8432 -0.5356 -0.0254
12009SOL    HW240875   5.982   3.494   5.186  1.2853 -1.1549 -1.8522
12010SOL     OW40876   5.184   0.433   5.904  0.7464  0.0388 -0.4375
12010SOL    HW140877   5.129   0.384   5.843  0.9511 -1.2205  0.3573
12010SOL    HW240878   5.122   0.475   5.963  0.5956 -1.3969  0.4723
12011SOL     OW40879   4.642   9.517   5.233 -0.3616  0.4503 -0.1629
12011SOL    HW140880   4.661   9.440   5.180 -0.4874  0.0758  0.3306
12011SOL    HW240881   4.690   9.503   5.315 -1.4926  0.2307  0.4789
12012SOL     OW40882   2.696   1.078   4.726 -0.5458  0.2091 -0.5521
12012SOL    HW140883   2.782   1.063   4.765 -1.0542  0.1885  0.6191
12012SOL    HW240884   2.700   1.168   4.694 -0.6394  0.8233  1.0652
12013SOL     OW40885   4.812   0.092   6.638  0.2361 -0.4755  0.2047
12013SOL    HW140886   4.894   0.138   6.655 -0.3162  0.9278 -0.7097
12013SOL    HW240887   4.748   0.161   6.627 -1.1022 -1.5558  0.9727
12014SOL     OW40888   4.593   9.287   7.382  0.2940 -0.7133  0.4595
12014SOL    HW140889   4.607   9.292   7.476  1.6341 -1.0984  0.2951
12014SOL    HW240890   4.567   9.197   7.366 -1.0426 -0.3765  0.5712
12015SOL     OW40891   5.601   0.359   6.503 -0.2358 -0.0734 -0.3098
12015SOL    HW140892   5.568   0.375   6.591  0.7264  1.0405 -0.1282
12015SOL    HW240893   5.623   0.266   6.502  0.1589 -0.0053  0.7891
12016SOL     OW40894   2.721   2.067   6.558  0.1185 -0.4233 -0.1567
12016SOL    HW140895   2.779   2.098   6.489  1.7065 -1.7656  0.5058
12016SOL    HW240896   2.661   2.007   6.514  1.8716 -2.2036 -0.2522
12017SOL     OW40897   4.735   0.788   6.690 -0.5060  0.7844 -0.4808
12017SOL    HW140898   4.693   0.836   6.761  0.1906 -0.1122  0.5588
12017SOL    HW240899   4.669   0.725   6.661 -0.0572 -0.3821  0.9120
12018SOL     OW40900   4.058   9.548   5.050 -0.2427  0.5379 -0.1977
12018SOL    HW140901   4.017   9.579   5.131  0.2197 -0.8144  0.5927
12018SOL    HW240902   4.150   9.572   5.059 -0.3580  1.2562 -0.7946
12019SOL     OW40903   3.216   1.517   7.278 -0.2281  1.0620  0.6978
12019SOL    HW140904   3.234   1.464   7.200 -0.5065  0.9782  0.6886
12019SOL    HW240905   3.279   1.486   7.343 -1.7169 -0.7655  1.3707
12020SOL     OW40906   5.970   0.645   7.140  0.0841  0.3251  0.1907
12020SOL    HW140907   5.875   0.639   7.139  0.1727 -3.2143 -1.9218
12020SOL    HW240908   5.998   0.572   7.195  1.5889 -0.1046 -1.0910
12021SOL     OW40909   4.703   0.776   5.843 -0.0573 -0.3006 -0.2347
12021SOL    HW140910   4.752   0.742   5.768 -2.1246 -0.3231 -1.6728
12021SOL    HW240911   4.690   0.869   5.824 -0.5091 -0.2798  0.1527
12022SOL     OW40912   4.110   1.153   6.868 -0.0934  0.5190  0.3433
12022SOL    HW140913   4.020   1.188   6.871  0.0168  0.7960  0.4413
12022SOL    HW240914   4.159   1.208   6.928  0.3545  0.9756 -0.4179
12023SOL     OW40915   3.732   3.331   6.479 -0.0543 -0.0942  0.1377
12023SOL    HW140916   3.723   3.269   6.406 -0.6645 -0.3305  0.4062
12023SOL    HW240917   3.691   3.288   6.553  0.4828  0.1856  0.6089
12024SOL     OW40918   5.362   0.955   5.594 -0.5521 -0.8607 -0.6612
12024SOL    HW140919   5.279   0.908   5.597 -0.8815 -0.2141  0.6236
12024SOL    HW240920   5.394   0.940   5.504 -0.1079 -4.4397 -0.0836
12025SOL     OW40921   3.835   2.726   5.809  0.2226 -0.2013  0.3857
12025SOL    HW140922   3.852   2.646   5.859  1.2956 -1.8312 -2.3522
12025SOL    HW240923   3.739   2.729   5.801  0.0783 -0.3535  1.7191
12026SOL     OW40924   3.066   0.068   6.953  0.1141 -0.1831 -0.5922
12026SOL    HW140925   3.148   0.117   6.956 -0.9003  1.5762  0.3946
12026SOL    HW240926   3.040   0.068   6.861  0.3462  0.7865 -0.6600
12027SOL     OW40927   4.906   8.770   6.578  0.2304 -0.3778  0.4246
12027SOL    HW140928   4.909   8.760   6.673 -0.5013  1.5483  0.6969
12027SOL    HW240929   4.997   8.782   6.552  0.2453  1.5386  1.2308
12028SOL     OW40930   3.471   9.648   6.483  0.4910 -0.5034  0.4769
12028SOL    HW140931   3.561   9.674   6.500  1.2230 -2.8442  0.5795
12028SOL    HW240932   3.462   9.652   6.388  0.3782  0.6782  0.5331
12029SOL     OW40933   4.044   7.622   8.411 -0.1036 -0.1108 -0.5147
12029SOL    HW140934   4.038   7.718   8.402  2.6768 -0.0012 -2.6101
12029SOL    HW240935   3.961   7.590   8.374 -0.5128  1.4804 -1.0675
12030SOL     OW40936   4.072   9.599   6.483  0.2786  0.2618  0.1293
12030SOL    HW140937   4.029   9.555   6.556  0.8732  0.0758  0.3712
12030SOL    HW240938   4.164   9.601   6.507  0.5047  0.0590 -0.6867
12031SOL     OW40939   6.402   1.841   9.197  0.4563 -0.0066  0.5550
12031SOL    HW140940   6.405   1.892   9.116  2.2395 -0.4275  0.3124
12031SOL    HW240941   6.427   1.904   9.265 -0.0217  0.1010  0.6286
12032SOL     OW40942   3.226   0.021   5.471 -0.5963  0.3330 -0.6784
12032SOL    HW140943   3.238   0.082   5.398 -0.6214 -0.4150 -1.3113
12032SOL    HW240944   3.145  -0.026   5.450  0.0596 -0.7642 -0.8044
12033SOL     OW40945   4.953   0.807   8.051  0.2078 -0.6085 -0.2352
12033SOL    HW140946   5.004   0.824   7.972 -0.1712  0.2000 -0.3195
12033SOL    HW240947   4.901   0.887   8.063 -1.2292 -1.5039 -0.2867
12034SOL     OW40948   4.267   2.392   5.297 -0.0818 -0.0905 -0.4173
12034SOL    HW140949   4.334   2.330   5.325  0.6090  0.7641 -0.1237
12034SOL    HW240950   4.305   2.478   5.316 -1.1146  0.4164 -0.5857
12035SOL     OW40951   4.018   8.625   7.572  0.2152 -0.1210 -0.2477
12035SOL    HW140952   4.108   8.631   7.539  0.0892 -1.0608 -0.7850
12035SOL    HW240953   4.027   8.578   7.655  0.2568  0.1057 -0.1227
12036SOL     OW40954   4.121   9.206   7.182  0.1884  0.5255 -0.2904
12036SOL    HW140955   4.208   9.237   7.159  1.7082 -3.6313 -0.9452
12036SOL    HW240956   4.128   9.183   7.275 -1.1186  2.5650  0.3830
12037SOL     OW40957   5.652   0.393   6.248  0.3573  0.2718  0.1840
12037SOL    HW140958   5.743   0.423   6.251  0.8102 -1.0847  2.0291
12037SOL    HW240959   5.630   0.375   6.339 -1.9089  0.8748 -0.1781
12038SOL     OW40960   4.885   8.622   7.252  0.1959  0.4292  0.3437
12038SOL    HW140961   4.868   8.587   7.164 -0.6364 -0.9610  1.0203
12038SOL    HW240962   4.872   8.716   7.243  2.4912  0.6768 -1.5508
12039SOL     OW40963   4.321   0.472   7.484 -0.1433  0.8034  0.4304
12039SOL    HW140964   4.386   0.405   7.502 -1.7469 -0.8036  0.4913
12039SOL    HW240965   4.341   0.501   7.395  2.1056  2.1226  1.2918
12040SOL     OW40966   4.651   2.997   6.443  0.5494 -0.1874 -0.0677
12040SOL    HW140967   4.725   3.014   6.501 -1.2497  1.7169  1.8901
12040SOL    HW240968   4.675   3.038   6.360  2.7537 -2.0344 -0.4228
12041SOL     OW40969   2.891   0.606   6.389 -0.2884  0.1258 -0.5706
12041SOL    HW140970   2.935   0.689   6.406  0.3577 -0.3358  0.0519
12041SOL    HW240971   2.833   0.593   6.463  1.0012 -0.8766  0.3113
12042SOL     OW40972   6.325   0.704   4.841  0.0344 -0.1979  0.3785
12042SOL    HW140973   6.250   0.698   4.782 -1.0548 -1.6450  1.8261
12042SOL    HW240974   6.287   0.714   4.928  1.5459 -0.1273  1.0719
12043SOL     OW40975   6.703   1.898   5.922  0.0001 -0.2128 -0.0168
12043SOL    HW140976   6.654   1.972   5.959 -1.0497 -0.3319 -1.1049
12043SOL    HW240977   6.648   1.822   5.940  1.5728 -0.9609  2.0640
12044SOL     OW40978   4.942   1.618   8.059  0.8589  0.6299 -0.1348
12044SOL    HW140979   4.991   1.563   7.997  3.0726  0.4980  1.6007
12044SOL    HW240980   4.881   1.558   8.102 -0.5075  0.6698 -1.8913
12045SOL     OW40981   1.453   2.269   6.102  0.3569  0.5080 -0.4022
12045SOL    HW140982   1.371   2.238   6.140  1.2846 -0.5157  0.8604
12045SOL    HW240983   1.436   2.360   6.078 -1.5994 -0.1149 -1.6323
12046SOL     OW40984   4.191   0.167   6.155 -0.0734  0.0131  0.1552
12046SOL    HW140985   4.164   0.242   6.208 -0.3606 -0.2448  0.3791
12046SOL    HW240986   4.229   0.105   6.218 -3.7437 -1.9345  0.7746
12047SOL     OW40987   5.435   8.670   7.334  0.4174  0.1361 -0.4299
12047SOL    HW140988   5.367   8.678   7.267  0.6701 -1.1991 -0.8776
12047SOL    HW240989   5.388   8.639   7.412  0.4822 -0.6657 -0.7029
12048SOL     OW40990   5.849   1.349   5.921 -0.2499 -0.3614  0.1168
12048SOL    HW140991   5.894   1.273   5.886 -0.4068 -0.5951  0.4144
12048SOL    HW240992   5.816   1.320   6.006 -0.8295 -0.1527 -0.0271
12049SOL     OW40993   4.642   3.308   7.568  0.3134 -0.1893  0.1456
12049SOL    HW140994   4.602   3.273   7.648  0.8634 -0.6731  0.2169
12049SOL    HW240995   4.617   3.245   7.500 -0.6389  0.5310 -0.1830
12050SOL     OW40996   2.748   1.712   6.475  0.4316 -0.1102  0.5547
12050SOL    HW140997   2.679   1.777   6.472  1.1342  0.5997 -0.9876
12050SOL    HW240998   2.790   1.716   6.389  0.5029 -2.6024  0.3975
12051SOL     OW40999   6.609   1.969   4.606 -0.4839  0.2016 -0.6749
12051SOL    HW141000   6.657   2.001   4.529  1.1516  3.4280  1.4368
12051SOL    HW241001   6.674   1.967   4.676 -2.0202 -2.0705  0.8139
12052SOL     OW41002   3.564   1.139   6.611 -0.0875 -0.4450  0.0842
12052SOL    HW141003   3.498   1.168   6.549 -0.0614  0.1360  0.3252
12052SOL    HW241004   3.644   1.186   6.586  0.1222 -0.8022  0.0714
12053SOL     OW41005   5.350   0.638   7.708 -0.5052  0.2104 -0.0293
12053SOL    HW141006   5.363   0.593   7.624 -3.1473 -0.0512 -0.4002
12053SOL    HW241007   5.301   0.717   7.686 -0.9166  0.3280  1.2336
12054SOL     OW41008   3.439   1.264   6.384 -0.3870  0.7641  0.3964
12054SOL    HW141009   3.374   1.324   6.419  0.1915  1.9740 -0.5356
12054SOL    HW241010   3.467   1.304   6.302  1.9261  0.5825  1.0122
12055SOL     OW41011   6.381   1.788   6.342  0.1353 -0.3456  0.2494
12055SOL    HW141012   6.423   1.795   6.428 -3.0690  2.0921  1.8429
12055SOL    HW241013   6.361   1.878   6.317 -0.6000 -1.1100 -2.2252
12056SOL     OW41014   4.337   1.527   8.382  0.6719 -0.3396 -0.1287
12056SOL    HW141015   4.268   1.515   8.447  0.9052  0.4168  0.2730
12056SOL    HW241016   4.333   1.620   8.360 -0.2759 -0.8080 -2.2000
12057SOL     OW41017   3.345   2.055   4.388  0.3523  0.0070 -0.4044
12057SOL    HW141018   3.285   2.115   4.345  0.3731 -0.3990 -1.0084
12057SOL    HW241019   3.300   1.971   4.388  0.7350 -0.2036 -0.4742
12058SOL     OW41020   5.276   8.409   5.886  0.4297  0.2113 -0.1132
12058SOL    HW141021   5.270   8.504   5.878 -0.2266  0.1650 -0.2079
12058SOL    HW241022   5.370   8.391   5.884  0.6655  1.0064  1.6586
12059SOL     OW41023   4.266   0.253   9.175  0.3677 -0.1360  0.2896
12059SOL    HW141024   4.214   0.308   9.116 -0.4530  1.6314  2.5146
12059SOL    HW241025   4.202   0.215   9.235  1.0799 -2.6451 -0.4259
12060SOL     OW41026   6.603   1.047   7.481 -0.1466 -0.1698  0.0694
12060SOL    HW141027   6.600   1.140   7.456 -0.7074 -0.4683 -1.0441
12060SOL    HW241028   6.582   1.046   7.574  0.0633  0.8404  0.1390
12061SOL     OW41029   3.690   1.353   4.175  0.4166  0.1491  0.7702
12061SOL    HW141030   3.625   1.350   4.245 -0.7910 -0.1152 -0.3199
12061SOL    HW241031   3.715   1.261   4.161 -0.0730  0.0979  0.2090
12062SOL     OW41032   4.525   9.135   7.061  0.3281 -0.4892  0.1386
12062SOL    HW141033   4.448   9.113   7.009  1.1503 -1.7492 -0.6066
12062SOL    HW241034   4.506   9.102   7.148 -0.5040  0.4011  0.3018
12063SOL     OW41035   1.289   9.811   8.172  0.3744 -0.0402 -0.0337
12063SOL    HW141036   1.315   9.774   8.256  0.8186 -0.4718 -0.3550
12063SOL    HW241037   1.214   9.867   8.193 -0.2092 -0.9898  0.4985
12064SOL     OW41038   5.828   9.073   5.664  0.3255  0.2475  0.0373
12064SOL    HW141039   5.800   9.154   5.623  0.7825  0.1252 -0.5283
12064SOL    HW241040   5.802   9.004   5.603  0.2479 -0.0015  0.3490
12065SOL     OW41041   2.551   1.890   6.898 -0.0956  0.3676  0.0184
12065SOL    HW141042   2.473   1.892   6.842  0.3341  2.3999 -0.5659
12065SOL    HW241043   2.553   1.975   6.940  0.1827 -0.7303  2.3989
12066SOL     OW41044   4.399   0.473   8.196  0.1620 -0.3828 -0.3412
12066SOL    HW141045   4.319   0.421   8.196 -0.1924  0.1542 -0.3219
12066SOL    HW241046   4.397   0.521   8.113  1.3161 -1.6399 -1.1445
12067SOL     OW41047   2.940   2.634   5.897 -0.1024 -0.3032 -0.2562
12067SOL    HW141048   2.902   2.547   5.887  0.3527 -0.4822 -0.4543
12067SOL    HW241049   2.944   2.649   5.991 -0.1274 -0.5203 -0.2220
12068SOL     OW41050   5.470   0.560   8.680  0.1908 -0.1139 -0.4911
12068SOL    HW141051   5.478   0.571   8.585  0.0367 -1.5750 -0.7036
12068SOL    HW241052   5.377   0.568   8.697  0.3994  2.2059 -0.1319
12069SOL     OW41053   2.876   0.909   5.034 -0.3011  0.0865  0.1526
12069SOL    HW141054   2.951   0.867   4.993  0.6499  1.4851  0.3712
12069SOL    HW241055   2.904   1.000   5.048 -1.9800  0.6067  0.3842
12070SOL     OW41056   5.305   9.567   6.371  0.1458  0.3026  0.0297
12070SOL    HW141057   5.224   9.618   6.373 -0.6483 -0.9164  0.4680
12070SOL    HW241058   5.335   9.573   6.280 -1.9930 -1.4976 -0.8799
12071SOL     OW41059   3.043   0.928   7.432  0.1790  0.1589 -0.3591
12071SOL    HW141060   3.087   1.009   7.406 -0.0747  0.1192 -0.9062
12071SOL    HW241061   2.986   0.906   7.359  1.7178 -1.6081 -1.1102
12072SOL     OW41062   5.656   2.012   5.502 -0.4533  0.1691 -0.5013
12072SOL    HW141063   5.637   1.920   5.483 -0.9236  0.0415  0.5257
12072SOL    HW241064   5.582   2.060   5.464 -1.2214 -0.0531  0.6882
12073SOL     OW41065   5.436   9.789   5.349  0.4478  0.0394  0.1864
12073SOL    HW141066   5.449   9.868   5.401  2.9246 -0.8763  1.1239
12073SOL    HW241067   5.390   9.729   5.408  0.4736  0.0581  0.2261
12074SOL     OW41068   3.325   3.834   5.969  0.5557  0.1482  0.1640
12074SOL    HW141069   3.314   3.919   5.927 -0.0426 -0.0938 -0.1904
12074SOL    HW241070   3.346   3.854   6.060 -0.3236  0.6791  0.2604
12075SOL     OW41071   5.184   0.286   5.390  0.2756  0.1525  0.7357
12075SOL    HW141072   5.189   0.357   5.326 -0.8915  1.5903  2.1455
12075SOL    HW241073   5.090   0.274   5.405  0.5061  0.4505  2.7499
12076SOL     OW41074   5.954   1.785   8.398 -0.0592  0.2438 -0.5618
12076SOL    HW141075   6.032   1.815   8.351 -0.3632  0.8451 -0.6892
12076SOL    HW241076   5.984   1.775   8.489  0.1304  0.6381 -0.5745
12077SOL     OW41077   0.553   0.195   7.771  0.1624 -0.1060  0.4365
12077SOL    HW141078   0.494   0.121   7.757  0.1221  0.1757 -0.9467
12077SOL    HW241079   0.567   0.232   7.684  1.2183  0.7266  0.9395
12078SOL     OW41080   4.310   1.687   6.421 -0.1976 -0.3254 -0.0828
12078SOL    HW141081   4.285   1.765   6.371  1.6064  0.5552  0.3039
12078SOL    HW241082   4.360   1.634   6.359  0.2073 -0.2570  0.1817
12079SOL     OW41083   2.679   0.186   4.146 -0.2976  0.3336  0.0116
12079SOL    HW141084   2.703   0.112   4.203 -1.8462  0.3196  0.6987
12079SOL    HW241085   2.602   0.224   4.188 -0.7514  1.0845 -1.4472
12080SOL     OW41086   4.228   0.897   7.959 -0.0444 -0.0408 -0.9235
12080SOL    HW141087   4.269   0.983   7.943 -1.5949  0.9085 -0.0537
12080SOL    HW241088   4.298   0.844   7.997  1.0684  0.6786 -1.8952
12081SOL     OW41089   3.565   9.259   5.662 -0.1969  0.2237  0.3211
12081SOL    HW141090   3.576   9.280   5.569 -1.3911 -0.5737 -0.0105
12081SOL    HW241091   3.655   9.250   5.695  0.2585 -1.7019 -1.2779
12082SOL     OW41092   3.693   1.708   6.739  0.0596  0.1288 -0.5217
12082SOL    HW141093   3.755   1.747   6.800  0.1403  1.2650 -1.2787
12082SOL    HW241094   3.672   1.779   6.678 -2.0934 -0.1602 -0.2169
12083SOL     OW41095   4.133   9.750   6.753 -0.3070  0.8051  0.0130
12083SOL    HW141096   4.057   9.694   6.738  0.0526 -0.2129  1.7302
12083SOL    HW241097   4.201   9.715   6.695 -0.7392  0.8666 -0.5348
12084SOL     OW41098   3.204   2.231   5.866 -0.0688 -0.2966 -0.2008
12084SOL    HW141099   3.155   2.231   5.784 -0.2026 -0.9564 -0.1189
12084SOL    HW241100   3.146   2.191   5.930  0.5029 -0.9285 -0.0622
12085SOL     OW41101   4.074   0.877   7.742  0.4308 -0.3583 -0.1042
12085SOL    HW141102   4.119   0.884   7.827  0.5852 -1.3151 -0.0967
12085SOL    HW241103   4.144   0.870   7.678  0.4807  4.0670 -0.7906
12086SOL     OW41104   3.013   9.095   7.912  0.6392  0.4983  0.1792
12086SOL    HW141105   2.980   9.027   7.972 -1.8908  0.4564 -1.1207
12086SOL    HW241106   3.012   9.053   7.826  1.4489  1.4356 -0.3029
12087SOL     OW41107   7.470   1.330   6.805  0.0630 -0.3709 -0.3977
12087SOL    HW141108   7.382   1.343   6.769 -0.8979 -1.9411  1.2206
12087SOL    HW241109   7.502   1.418   6.824 -2.0975  0.1743  1.0709
12088SOL     OW41110   5.752   9.793   7.589 -0.2262  0.5641 -0.1809
12088SOL    HW141111   5.672   9.840   7.567 -1.2080 -0.4360  1.0927
12088SOL    HW241112   5.726   9.701   7.591  1.0794  0.1747 -0.2674
12089SOL     OW41113   3.140   9.855   5.010  0.1029  0.0136 -0.2155
12089SOL    HW141114   3.143   9.781   5.071 -0.9682  0.1703  0.0527
12089SOL    HW241115   3.230   9.866   4.981  0.4295 -0.8213  0.4371
12090SOL     OW41116   4.026   0.595   4.308 -0.1717 -0.3731  0.1924
12090SOL    HW141117   4.008   0.685   4.279 -5.2900 -0.7437  1.1502
12090SOL    HW241118   4.031   0.602   4.403  1.3752 -0.9537  0.1768
12091SOL     OW41119   5.432   0.831   6.582 -0.0919  0.2734  0.3173
12091SOL    HW141120   5.496   0.871   6.523 -1.0824  1.0283 -0.2832
12091SOL    HW241121   5.408   0.750   6.539  0.1102  0.2173  0.3088
12092SOL     OW41122   3.150   1.941   4.826 -0.1684  0.0841  0.5069
12092SOL    HW141123   3.163   1.890   4.746  0.0709 -0.8828  1.1558
12092SOL    HW241124   3.109   1.881   4.887 -4.5414  1.9228 -0.2115
12093SOL     OW41125   5.045   9.842   7.098  0.4130 -0.2044  0.1572
12093SOL    HW141126   5.121   9.891   7.066  0.6262 -1.1082 -0.8003
12093SOL    HW241127   4.984   9.841   7.024 -0.2533 -0.0598  0.6943
12094SOL     OW41128   2.456   1.055   6.901 -0.4086  0.0648 -0.1671
12094SOL    HW141129   2.429   1.144   6.878 -1.4937  0.2306  1.5570
12094SOL    HW241130   2.534   1.067   6.954 -0.6717  0.0167  0.2361
12095SOL     OW41131   3.371   0.422   5.160 -0.2867  0.3169  0.0359
12095SOL    HW141132   3.406   0.445   5.074 -2.7460  1.5533 -0.7427
12095SOL    HW241133   3.359   0.507   5.204  0.6827 -0.2781  1.5428
12096SOL     OW41134   3.302   0.853   7.788  0.2683 -0.8108 -0.4415
12096SOL    HW141135   3.395   0.867   7.803  0.3610 -1.3207 -0.5255
12096SOL    HW241136   3.264   0.847   7.876  0.1813  0.2235 -0.4007
12097SOL     OW41137   3.696   0.789   5.884 -0.3607 -0.3626  0.4857
12097SOL    HW141138   3.764   0.763   5.823  0.6237 -1.0155  1.8089
12097SOL    HW241139   3.636   0.715   5.887  0.6693 -1.1993  1.7640
12098SOL     OW41140   3.775   1.827   8.324 -0.1952  0.0152 -0.0249
12098SOL    HW141141   3.824   1.765   8.378 -0.7576 -0.4124  0.0032
12098SOL    HW241142   3.685   1.793   8.324 -0.3749  0.4795 -0.5331
12099SOL     OW41143   4.429   1.082   6.306 -0.4179 -0.2587 -0.0250
12099SOL    HW141144   4.463   1.122   6.386 -0.8018  0.5229 -0.2444
12099SOL    HW241145   4.476   0.999   6.298  1.2140  0.6601 -0.1780
12100SOL     OW41146   4.490   0.665   7.347  0.1739  0.1639  0.2014
12100SOL    HW141147   4.472   0.699   7.435  1.4561 -0.7475  0.8493
12100SOL    HW241148   4.570   0.614   7.358  1.7928  2.0294 -1.9798
12101SOL     OW41149   4.911   9.823   6.843  0.1331 -0.1134 -0.2300
12101SOL    HW141150   4.852   9.753   6.872 -0.7370  0.5479 -0.3362
12101SOL    HW241151   4.865   9.863   6.769  0.4131  0.8416  0.0984
12102SOL     OW41152   5.373   1.702   6.540 -0.6360  0.3729  0.2904
12102SOL    HW141153   5.288   1.678   6.503 -0.3103  0.5899 -0.6546
12102SOL    HW241154   5.414   1.619   6.561 -0.1805  0.1120 -1.4165
12103SOL     OW41155   4.249   0.792   5.052 -0.0737 -0.1496  0.4508
12103SOL    HW141156   4.175   0.762   5.104 -0.3643  1.6857  1.1781
12103SOL    HW241157   4.308   0.834   5.116  0.4181  0.5601 -0.4434
12104SOL     OW41158   4.689   0.432   5.960  0.3780  0.0026 -0.2916
12104SOL    HW141159   4.713   0.441   5.868  0.7938  0.7190 -0.1174
12104SOL    HW241160   4.731   0.350   5.988  0.4141 -0.1137 -0.6826
12105SOL     OW41161   6.191   9.533   5.995 -0.0271 -0.0643  0.9424
12105SOL    HW141162   6.141   9.465   6.039 -0.7837  0.1266  0.3909
12105SOL    HW241163   6.154   9.615   6.028  0.4204  0.0836  1.0867
12106SOL     OW41164   5.274   1.454   3.822  0.1007  0.4796 -0.2342
12106SOL    HW141165   5.240   1.536   3.786 -0.2280 -0.3716 -1.9182
12106SOL    HW241166   5.358   1.479   3.862 -1.4025  2.2007  2.1048
12107SOL     OW41167   4.144   9.459   7.362  0.1725  0.3555  0.3822
12107SOL    HW141168   4.218   9.451   7.301 -0.4750 -1.3439 -0.2616
12107SOL    HW241169   4.167   9.401   7.435  0.0112  0.7696  0.7683
12108SOL     OW41170   3.617   1.171   8.489  0.1355  0.2261 -0.0563
12108SOL    HW141171   3.682   1.110   8.453  0.0131 -0.4574  0.8435
12108SOL    HW241172   3.544   1.166   8.428 -0.7801 -2.2194  1.0816
12109SOL     OW41173   4.189   0.108   7.746  0.4044  0.2029 -0.5977
12109SOL    HW141174   4.216   0.078   7.832  0.3146  1.2169 -0.1993
12109SOL    HW241175   4.254   0.175   7.722 -1.8744  3.0138  0.5768
12110SOL     OW41176   1.380   2.305   7.787  0.5867 -0.4866  0.3312
12110SOL    HW141177   1.421   2.254   7.858  1.4095 -2.1254 -1.2339
12110SOL    HW241178   1.453   2.351   7.746  0.5370 -1.5353 -0.9867
12111SOL     OW41179   6.077   1.187   7.371 -0.3726  0.2350 -0.0223
12111SOL    HW141180   6.127   1.175   7.290 -1.3569  1.1375 -0.7946
12111SOL    HW241181   6.068   1.099   7.407  1.6702  0.0169  0.1214
12112SOL     OW41182   4.623   0.934   7.901  0.4221 -0.4156  0.2214
12112SOL    HW141183   4.639   0.934   7.995 -0.3966  1.8957  0.4398
12112SOL    HW241184   4.702   0.974   7.864 -0.8541  2.5461  0.4155
12113SOL     OW41185   5.902   0.079   8.161 -0.3423 -0.0803  0.1146
12113SOL    HW141186   5.977   0.025   8.138  0.4219  1.2922 -0.7453
12113SOL    HW241187   5.845   0.075   8.084 -0.3017  0.3003  0.0639
12114SOL     OW41188   2.202   1.199   8.093  0.0026 -0.1214  0.1018
12114SOL    HW141189   2.165   1.185   8.005 -0.1127 -0.4018  0.1949
12114SOL    HW241190   2.288   1.236   8.077 -0.3570  0.6418 -0.1186
12115SOL     OW41191   4.072   0.130   9.666 -0.1307 -0.0647 -0.1830
12115SOL    HW141192   4.143   0.097   9.612 -2.1189 -2.3034 -1.6759
12115SOL    HW241193   4.104   0.121   9.756  1.7118 -0.2315 -0.8119
12116SOL     OW41194   5.234   0.974   0.655  0.1467 -0.4065  0.2035
12116SOL    HW141195   5.147   0.991   0.618 -0.5612 -0.1974  1.8972
12116SOL    HW241196   5.250   1.047   0.714  1.0831 -0.9281  0.6195
12117SOL     OW41197   3.079   1.378   8.949  0.0750  0.0190 -0.2730
12117SOL    HW141198   3.166   1.400   8.982 -0.5879  1.3553  0.6482
12117SOL    HW241199   3.018   1.428   9.004 -1.3154 -1.2583 -0.5795
12118SOL     OW41200   2.082   1.816   5.875  0.2655 -0.0648  0.2418
12118SOL    HW141201   2.121   1.741   5.919  0.4247 -0.7296 -0.9907
12118SOL    HW241202   2.156   1.870   5.848  0.4015 -1.2739 -2.0049
12119SOL     OW41203   3.804   9.645   0.469  0.0328  0.7739  0.2202
12119SOL    HW141204   3.784   9.581   0.401 -1.0045  0.4514  0.8194
12119SOL    HW241205   3.757   9.724   0.442 -0.2756  0.6845  0.4824
12120SOL     OW41206   3.097   9.704   9.838  0.4374 -0.0682 -0.2345
12120SOL    HW141207   3.073   9.642   9.769  3.5554 -1.0595 -0.5760
12120SOL    HW241208   3.085   9.655   9.920  1.2112 -0.5541 -0.4007
12121SOL     OW41209   6.253   1.334   8.577 -0.2198  0.0896 -0.0637
12121SOL    HW141210   6.255   1.261   8.639 -2.6857 -0.8140 -0.9675
12121SOL    HW241211   6.261   1.294   8.491  1.9743  1.2451 -0.4856
12122SOL     OW41212   1.881   8.914   7.773 -0.5511 -0.2973  0.7461
12122SOL    HW141213   1.792   8.881   7.784 -2.0017  1.2401 -4.0955
12122SOL    HW241214   1.935   8.835   7.769 -2.2366 -1.4911  0.3255
12123SOL     OW41215   4.595   0.015   9.091 -0.3528  0.5841  0.4117
12123SOL    HW141216   4.567   0.021   9.183  0.5034 -0.3193  0.7498
12123SOL    HW241217   4.619  -0.077   9.080  0.6844  0.9404 -0.3872
12124SOL     OW41218   3.826   2.829   8.983  0.5714 -0.3904 -0.2569
12124SOL    HW141219   3.811   2.916   9.019 -0.3124 -0.7794  0.3574
12124SOL    HW241220   3.906   2.837   8.932  0.3402  0.8576 -0.4553
12125SOL     OW41221   3.361   2.062   7.583 -0.0891 -0.5420 -0.1420
12125SOL    HW141222   3.329   2.150   7.604  1.4344 -0.0315  0.1863
12125SOL    HW241223   3.295   2.003   7.620 -1.0961  0.4412 -0.3003
12126SOL     OW41224   3.628   1.935   7.930 -0.4341 -0.4094  0.3047
12126SOL    HW141225   3.583   1.850   7.933  2.6010 -2.1361  1.6482
12126SOL    HW241226   3.631   1.963   8.022  0.5033  0.0549  0.1423
12127SOL     OW41227   3.135   1.293   8.285 -0.3006  0.3953 -0.0085
12127SOL    HW141228   3.052   1.336   8.265 -0.3931  0.2621  0.0912
12127SOL    HW241229   3.157   1.245   8.206 -0.3356  0.4037 -0.0234
12128SOL     OW41230   3.965   0.015   9.046 -0.1777 -0.8821  0.8003
12128SOL    HW141231   3.951   0.109   9.048 -1.5697 -1.0784  1.4389
12128SOL    HW241232   3.909  -0.017   8.976  1.0833 -1.1395 -0.1236
12129SOL     OW41233   5.435   2.601   7.916  0.1219 -0.1382 -0.3254
12129SOL    HW141234   5.350   2.559   7.931 -0.1220  0.5331  0.2668
12129SOL    HW241235   5.470   2.559   7.838 -0.3237 -1.0968 -0.0210
12130SOL     OW41236   4.411   1.217   6.916  0.1064 -0.5056  0.1344
12130SOL    HW141237   4.422   1.124   6.935 -2.7204 -1.0921 -0.7049
12130SOL    HW241238   4.406   1.222   6.821  3.3722  1.0205 -0.1157
12131SOL     OW41239   6.641   7.544   0.068 -0.1751 -0.2987 -0.1951
12131SOL    HW141240   6.551   7.508   0.068 -0.0832 -0.5326 -0.2866
12131SOL    HW241241   6.644   7.600   0.146 -0.5314  0.0428 -0.4233
12132SOL     OW41242   6.551   9.701   0.107  0.2733 -0.3100 -0.1637
12132SOL    HW141243   6.460   9.671   0.112  1.2740 -3.8997 -0.9162
12132SOL    HW241244   6.553   9.760   0.032 -1.0924 -1.9489 -1.5876
12133SOL     OW41245   2.505   1.748   8.889  0.8910  0.7195  0.0769
12133SOL    HW141246   2.563   1.684   8.930  0.1969  0.2012  0.2758
12133SOL    HW241247   2.417   1.712   8.902  0.5174  1.5248 -0.1489
12134SOL     OW41248   1.475   2.200   7.370 -0.1288 -0.2578  0.5249
12134SOL    HW141249   1.477   2.212   7.276  0.3010  2.3118  0.7973
12134SOL    HW241250   1.537   2.264   7.404 -1.3505 -0.1122  2.6478
12135SOL     OW41251   6.487   2.212   8.971 -0.2803 -0.5963 -0.1465
12135SOL    HW141252   6.509   2.120   8.980 -0.2203 -0.9313 -2.8366
12135SOL    HW241253   6.463   2.222   8.879  0.8991  2.2946 -0.2581
12136SOL     OW41254   3.369   2.192   8.603  0.2162 -0.3331 -0.6907
12136SOL    HW141255   3.435   2.165   8.667 -0.7177  0.1038  0.4958
12136SOL    HW241256   3.420   2.220   8.527  1.3184 -2.2524 -0.7447
12137SOL     OW41257   5.424   2.976   7.913  0.0708  0.2023 -0.3703
12137SOL    HW141258   5.440   2.923   7.991 -1.3623  0.3353  0.0379
12137SOL    HW241259   5.334   2.956   7.888 -0.1116  1.5510 -0.8991
12138SOL     OW41260   9.523   9.246   0.442  0.2727  0.1202  0.1545
12138SOL    HW141261   9.595   9.308   0.453 -1.3824  2.5483 -1.6223
12138SOL    HW241262   9.444   9.298   0.456 -1.2163 -2.0082  0.1785
12139SOL     OW41263   5.395   1.547   6.827  0.2754  0.4299  0.2146
12139SOL    HW141264   5.425   1.634   6.855  0.4567  0.9280 -1.3717
12139SOL    HW241265   5.449   1.527   6.750 -2.2971  0.6639 -1.8058
12140SOL     OW41266   3.476   0.996   6.354  0.4673 -0.2501  0.1843
12140SOL    HW141267   3.530   0.976   6.277  1.5638 -1.5837  1.2517
12140SOL    HW241268   3.468   1.091   6.353  4.1352  0.2192  0.7554
12141SOL     OW41269   4.963   2.563   7.222  0.5927 -0.3030 -0.2272
12141SOL    HW141270   5.023   2.502   7.265 -0.6377 -0.3461  1.5085
12141SOL    HW241271   4.888   2.569   7.280 -0.1324  1.4736 -1.2461
12142SOL     OW41272   6.724   3.773   7.299  0.2595 -0.1017 -0.3393
12142SOL    HW141273   6.771   3.767   7.215 -1.4274  1.5714 -1.4847
12142SOL    HW241274   6.683   3.687   7.309 -1.6134  0.4229 -2.6001
12143SOL     OW41275   3.514   9.465   0.118  0.4909 -0.0741 -0.5254
12143SOL    HW141276   3.434   9.420   0.093 -1.3376  1.9422  1.3342
12143SOL    HW241277   3.545   9.507   0.038 -1.2803  0.5133 -0.9352
12144SOL     OW41278   3.853   2.965   7.371 -0.3287 -0.3822 -0.1096
12144SOL    HW141279   3.893   2.999   7.291  0.3759 -0.7843  0.0560
12144SOL    HW241280   3.769   3.010   7.378 -0.6500 -0.7545 -1.3681
12145SOL     OW41281   5.532   1.972   8.957  0.0030  0.1137  0.4207
12145SOL    HW141282   5.470   1.995   9.026  0.0579  1.3842  0.0649
12145SOL    HW241283   5.585   1.901   8.994  0.4809  1.2272  1.9484
12146SOL     OW41284   5.289   0.817   8.058 -0.1348  0.3918 -0.0970
12146SOL    HW141285   5.254   0.880   8.120  1.0980 -0.5248  1.6372
12146SOL    HW241286   5.382   0.810   8.080  0.1176 -0.7617 -1.3487
12147SOL     OW41287   1.742   9.811   7.847  0.0544  0.0188  0.6225
12147SOL    HW141288   1.652   9.798   7.818  0.4257 -2.2416  0.2938
12147SOL    HW241289   1.738   9.806   7.943 -0.2041  0.2321  0.6225
12148SOL     OW41290   3.226   2.332   7.437 -0.3888  0.6121 -0.1042
12148SOL    HW141291   3.296   2.294   7.384 -0.1126  0.8713  0.0754
12148SOL    HW241292   3.146   2.289   7.405 -0.4603  1.9130 -1.8272
12149SOL     OW41293   4.492   4.180   9.650  0.0718  0.2043  0.5845
12149SOL    HW141294   4.491   4.091   9.613  2.4187  1.0495 -1.8559
12149SOL    HW241295   4.572   4.184   9.701  0.2206  1.0358  0.3009
12150SOL     OW41296   3.956   7.310   5.684  0.1900 -0.0377 -0.0676
12150SOL    HW141297   3.941   7.392   5.637  0.2152 -1.9626 -3.8106
12150SOL    HW241298   3.872   7.264   5.678  0.9182 -1.3743 -0.5538
12151SOL     OW41299   6.451   9.687   9.322 -0.8933  0.2091 -0.7583
12151SOL    HW141300   6.361   9.702   9.351 -0.7480 -0.5406  0.0933
12151SOL    HW241301   6.474   9.601   9.357  0.0502  0.2486 -1.2485
12152SOL     OW41302   5.982   2.489   6.392 -0.0712  0.2282 -0.2546
12152SOL    HW141303   6.005   2.581   6.377 -2.5362  1.0018  0.2925
12152SOL    HW241304   5.934   2.463   6.313  0.9178 -0.7428 -0.5697
12153SOL     OW41305   5.517   8.877   8.881 -0.0800 -0.0453 -0.2361
12153SOL    HW141306   5.485   8.902   8.795 -0.9066  0.2423  0.1454
12153SOL    HW241307   5.491   8.949   8.938  0.9140  0.0114  0.1649
12154SOL     OW41308   3.362   1.418   8.494  0.0943  0.1422  0.2765
12154SOL    HW141309   3.373   1.348   8.430  0.3179  1.1033 -0.7829
12154SOL    HW241310   3.406   1.387   8.573 -1.1592 -1.5426  0.3450
12155SOL     OW41311   2.496   2.666   0.757  0.2586 -0.0592 -0.3481
12155SOL    HW141312   2.555   2.726   0.711  0.2090 -0.2099 -0.6091
12155SOL    HW241313   2.549   2.589   0.775  0.3386  0.0826  0.0391
12156SOL     OW41314   6.516   1.451   9.186  0.3469  1.1588 -0.5113
12156SOL    HW141315   6.462   1.404   9.121  0.8464  1.2708 -1.0155
12156SOL    HW241316   6.568   1.382   9.227  0.2089  1.1197 -0.4005
12157SOL     OW41317   7.442   8.988   9.021 -0.1441 -0.1438 -0.5062
12157SOL    HW141318   7.404   8.918   9.075 -0.3681  0.2257 -0.1867
12157SOL    HW241319   7.515   8.945   8.976  1.7840  0.1373  2.0884
12158SOL     OW41320   2.151   9.842   6.728  0.5986 -0.2117  0.2986
12158SOL    HW141321   2.092   9.867   6.799  0.7759  1.5050 -0.1110
12158SOL    HW241322   2.098   9.847   6.649  0.7647 -0.7155  0.1524
12159SOL     OW41323   5.120   0.917   6.109  0.2623  0.3208  0.1760
12159SOL    HW141324   5.163   0.990   6.153 -1.2474  2.7572 -2.0731
12159SOL    HW241325   5.160   0.914   6.022 -0.3780 -0.9297 -0.1002
12160SOL     OW41326   3.555   1.167   7.326  0.6069 -0.5207  0.2335
12160SOL    HW141327   3.505   1.149   7.405  0.1465 -0.6356 -0.0791
12160SOL    HW241328   3.616   1.094   7.319 -0.8360 -1.6780 -0.6948
12161SOL     OW41329   4.503   0.057   6.585 -0.2169  0.2274  0.5266
12161SOL    HW141330   4.512   0.151   6.604 -1.1951  0.6179 -0.7495
12161SOL    HW241331   4.497   0.053   6.490  0.5364 -1.2232  0.5220
12162SOL     OW41332   5.043   0.892   9.254 -0.2441 -0.0300 -0.0909
12162SOL    HW141333   5.091   0.945   9.190  0.9707 -0.6553  0.2683
12162SOL    HW241334   5.069   0.928   9.339  2.7294 -2.7084  0.3511
12163SOL     OW41335   2.037   2.902   6.978  0.2793  0.1249  0.1625
12163SOL    HW141336   2.012   2.940   7.062 -0.2626 -1.3071  0.6721
12163SOL    HW241337   2.013   2.970   6.914  1.6700  1.6676  1.1985
12164SOL     OW41338   5.410   9.560   6.123  0.4308 -0.3532  0.4695
12164SOL    HW141339   5.463   9.640   6.128  1.1819 -0.6450 -1.9063
12164SOL    HW241340   5.365   9.567   6.039 -0.8345 -1.6614  1.0018
12165SOL     OW41341   1.414   2.278   6.777  0.2269 -0.0420 -0.2935
12165SOL    HW141342   1.510   2.285   6.784  0.2664 -1.3430  0.6026
12165SOL    HW241343   1.400   2.212   6.710 -0.0999  1.6392 -1.9820
12166SOL     OW41344   3.740   3.879   6.898 -0.2183  0.0028  0.6327
12166SOL    HW141345   3.657   3.867   6.943 -0.0308 -1.5095  0.6281
12166SOL    HW241346   3.801   3.907   6.967 -0.4390 -0.1459  0.8898
12167SOL     OW41347   3.430   1.764   7.288 -0.5447  0.2275 -0.3428
12167SOL    HW141348   3.448   1.762   7.382 -0.0004  0.7284 -0.4235
12167SOL    HW241349   3.516   1.776   7.248 -0.7623 -0.0746 -0.9123
12168SOL     OW41350   4.996   9.792   7.896 -0.2539  0.0297 -0.1183
12168SOL    HW141351   4.995   9.767   7.988 -0.6882  0.1884 -0.0808
12168SOL    HW241352   5.084   9.768   7.866  0.7146  2.0566  0.9182
12169SOL     OW41353   4.588   0.254   6.264  0.0294  0.3926 -0.2662
12169SOL    HW141354   4.505   0.216   6.236 -0.3176  0.7158  0.2908
12169SOL    HW241355   4.644   0.251   6.186 -1.3871  2.6623 -1.4947
12170SOL     OW41356   5.187   9.293   7.927  0.1229 -0.3950 -0.3209
12170SOL    HW141357   5.243   9.326   7.997  0.2092 -0.2480 -0.4612
12170SOL    HW241358   5.234   9.217   7.892 -0.3108 -0.9887  0.3410
12171SOL     OW41359   3.986   0.601   6.841 -0.2415 -0.1637  0.2492
12171SOL    HW141360   4.006   0.585   6.749 -1.3300 -1.7664  0.2496
12171SOL    HW241361   3.892   0.618   6.843 -0.4127 -1.1068  1.1556
12172SOL     OW41362   2.969   0.925   8.476  0.1554  0.0537  0.3250
12172SOL    HW141363   2.956   0.904   8.569 -2.5439 -0.1532 -0.0216
12172SOL    HW241364   2.906   0.869   8.431  2.5103 -1.0656 -1.8434
12173SOL     OW41365   4.719   0.423   7.606 -0.4924 -0.4324 -0.0652
12173SOL    HW141366   4.679   0.390   7.687  0.6927 -0.7914  0.3958
12173SOL    HW241367   4.645   0.456   7.555 -1.3309 -0.7188  0.9178
12174SOL     OW41368   4.397   1.379   8.142  0.0769 -0.1823 -0.3785
12174SOL    HW141369   4.412   1.435   8.219 -0.1951 -1.5263  0.6958
12174SOL    HW241370   4.374   1.294   8.179  1.4077 -1.2779 -1.9684
12175SOL     OW41371   5.352   0.395   9.464  0.1469  0.4430  0.5636
12175SOL    HW141372   5.423   0.376   9.525 -0.2575 -1.4581  0.5033
12175SOL    HW241373   5.298   0.459   9.510  1.0179  0.6806  1.2827
12176SOL     OW41374   3.794   0.923   9.251  0.0723  0.6390 -0.1415
12176SOL    HW141375   3.827   0.844   9.292 -1.9404 -0.0334  0.2865
12176SOL    HW241376   3.828   0.994   9.306  1.6160  0.0938 -0.3371
12177SOL     OW41377   3.121   1.189   8.622  0.3450 -0.3422  0.5881
12177SOL    HW141378   3.194   1.134   8.652 -1.5244 -1.8581  2.6559
12177SOL    HW241379   3.044   1.154   8.666 -1.5025  1.9425 -0.5724
12178SOL     OW41380   2.997   3.359   8.537 -0.3247  0.4659  0.2580
12178SOL    HW141381   2.915   3.408   8.529 -1.0592 -0.6528  0.7485
12178SOL    HW241382   2.980   3.276   8.492  0.7196  0.4214 -0.0872
12179SOL     OW41383   4.044   0.413   8.692  0.0930 -0.2653  0.0834
12179SOL    HW141384   4.028   0.319   8.695 -1.3383 -0.0389  1.7604
12179SOL    HW241385   4.062   0.437   8.783  0.8980  1.0137 -0.3864
12180SOL     OW41386   4.520   2.040   1.017 -0.5460  0.2884 -0.4212
12180SOL    HW141387   4.524   2.082   0.932 -2.4520 -0.0532 -0.7334
12180SOL    HW241388   4.607   2.052   1.055  0.9209 -1.0438 -3.1009
12181SOL     OW41389   4.430   2.064   7.601 -0.0337 -0.1035 -0.2702
12181SOL    HW141390   4.426   2.062   7.696 -1.6002  1.2800 -0.2615
12181SOL    HW241391   4.438   2.156   7.578 -0.8508 -0.3067 -1.4944
12182SOL     OW41392   5.094   2.557   7.571  0.2210  0.3110  0.8840
12182SOL    HW141393   5.115   2.651   7.568  0.6196  0.2184  0.7913
12182SOL    HW241394   5.156   2.516   7.511 -0.0010 -0.0057  0.8690
12183SOL     OW41395   4.960   1.697   8.356  0.0318 -0.4241  0.1915
12183SOL    HW141396   4.871   1.720   8.381  0.3324  1.9604 -0.5783
12183SOL    HW241397   4.967   1.725   8.265  2.2577  1.9591  0.9555
12184SOL     OW41398   5.683   3.750   7.179 -0.0469 -0.1748  0.0706
12184SOL    HW141399   5.778   3.762   7.178 -0.2043  1.3128 -1.9536
12184SOL    HW241400   5.647   3.838   7.189 -1.2861 -0.8906  2.9273
12185SOL     OW41401   5.468   0.156   8.460 -0.2983 -0.1745  0.0892
12185SOL    HW141402   5.512   0.199   8.532  1.5283 -0.0900 -1.0205
12185SOL    HW241403   5.514   0.186   8.382  0.7625 -3.6726 -0.8090
12186SOL     OW41404   5.897   0.917   6.420  0.2135  0.9556  0.1726
12186SOL    HW141405   5.980   0.960   6.399  0.5135  1.2795  1.8649
12186SOL    HW241406   5.922   0.846   6.480 -0.2338 -1.7518 -2.5700
12187SOL     OW41407   4.601   1.591   0.635 -0.4102 -0.4731 -0.1767
12187SOL    HW141408   4.561   1.518   0.587 -0.4023  0.0860 -1.0637
12187SOL    HW241409   4.545   1.666   0.616  0.0455 -0.0717  0.0360
12188SOL     OW41410   3.919   1.860   5.375 -0.3243 -0.1361  0.3793
12188SOL    HW141411   3.902   1.877   5.282  3.1504  1.0916 -0.1767
12188SOL    HW241412   3.888   1.770   5.388 -0.7718 -0.4091 -2.0169
12189SOL     OW41413   5.843   9.277   8.255  0.2864  0.4574 -0.1052
12189SOL    HW141414   5.818   9.254   8.165  0.5799  0.2481 -0.1359
12189SOL    HW241415   5.880   9.365   8.248  2.0000 -0.2547 -0.5061
12190SOL     OW41416   5.979   1.219   9.102  0.2026 -0.0087 -0.3045
12190SOL    HW141417   5.988   1.257   9.190 -0.2378  3.0205 -1.4194
12190SOL    HW241418   6.069   1.205   9.073  0.6798  3.5624 -1.0339
12191SOL     OW41419   5.991   9.573   8.246 -0.2049 -0.0385  0.1037
12191SOL    HW141420   6.067   9.626   8.226 -0.2110  0.2485  0.8202
12191SOL    HW241421   5.919   9.636   8.253 -0.3049 -0.1931  0.4716
12192SOL     OW41422   3.826   0.254   9.057  0.3499  0.3910  0.5771
12192SOL    HW141423   3.847   0.322   8.993  0.9587  1.3697  1.7717
12192SOL    HW241424   3.734   0.269   9.079  0.6155  1.1772  1.2062
12193SOL     OW41425   5.110   1.107   8.041 -0.2332  0.1021  0.2073
12193SOL    HW141426   5.016   1.106   8.056 -0.4247  0.2271 -0.9264
12193SOL    HW241427   5.148   1.075   8.123 -1.2420  0.3017  0.7602
12194SOL     OW41428   5.223   9.837   8.731  0.4897  0.3828 -0.0508
12194SOL    HW141429   5.127   9.837   8.729  0.4316  0.9585  1.2604
12194SOL    HW241430   5.245   9.766   8.791  0.9824 -1.0890 -1.9074
12195SOL     OW41431   4.931   2.390   9.583 -0.3996  0.4015  0.2150
12195SOL    HW141432   5.023   2.369   9.571 -0.4732  0.2504 -0.0824
12195SOL    HW241433   4.927   2.429   9.670  0.2939  2.3389 -0.5520
12196SOL     OW41434   5.729   2.412   8.059  0.6544 -0.2973  0.7174
12196SOL    HW141435   5.713   2.391   7.967 -2.6260  1.2459  0.8086
12196SOL    HW241436   5.715   2.329   8.105 -0.9653 -0.3958  0.0956
12197SOL     OW41437   3.967   2.115   6.873  0.1976  0.0405 -0.1891
12197SOL    HW141438   3.878   2.139   6.897 -0.2124 -1.0853 -0.4914
12197SOL    HW241439   4.017   2.197   6.876 -0.0423  0.1974  3.2803
12198SOL     OW41440   4.493   1.447   6.343 -0.2233  0.1915  0.1103
12198SOL    HW141441   4.556   1.394   6.293 -0.7065 -0.2267 -0.0658
12198SOL    HW241442   4.520   1.437   6.434 -0.7583 -0.9876  0.1568
12199SOL     OW41443   4.980   7.402   8.502  0.0646  0.2444 -0.0981
12199SOL    HW141444   5.019   7.488   8.509  3.2906 -1.0530 -0.4413
12199SOL    HW241445   4.993   7.363   8.589  2.7786 -1.3845 -1.1224
12200SOL     OW41446   2.725   3.852   8.239 -0.1819 -0.5752 -0.2572
12200SOL    HW141447   2.721   3.907   8.317  0.9011 -1.3922  0.4173
12200SOL    HW241448   2.818   3.851   8.215 -0.2781 -1.5263 -0.6609
12201SOL     OW41449   3.792   9.317   8.576  0.3942 -0.6391 -0.6057
12201SOL    HW141450   3.706   9.276   8.562  0.6540 -1.4319 -0.0098
12201SOL    HW241451   3.829   9.327   8.489  0.0311 -1.0451 -0.8094
12202SOL     OW41452   2.552   9.593   9.019 -0.3044 -0.2130 -0.3072
12202SOL    HW141453   2.536   9.667   9.077 -0.9278  0.9781 -1.9427
12202SOL    HW241454   2.608   9.534   9.070  2.8070  2.7273  0.0490
12203SOL     OW41455   5.754   2.211   9.287  0.2020  0.0364 -0.1027
12203SOL    HW141456   5.754   2.175   9.199 -0.2732 -1.4910  0.4782
12203SOL    HW241457   5.745   2.134   9.344  0.6317  0.9636  1.2778
12204SOL     OW41458   4.705   1.966   9.114  0.3830  0.8404  0.0809
12204SOL    HW141459   4.751   1.913   9.048  0.7103  0.5755  0.5178
12204SOL    HW241460   4.643   2.018   9.063  1.1283  1.1699 -0.5254
12205SOL     OW41461   4.230   1.584   8.006 -0.4229 -0.1080  0.4398
12205SOL    HW141462   4.172   1.628   8.068 -0.2414  0.6217  0.1003
12205SOL    HW241463   4.268   1.511   8.056 -2.7152 -1.5070  0.2550
12206SOL     OW41464   4.328   8.528   9.092  0.3396 -0.0111 -0.4012
12206SOL    HW141465   4.323   8.587   9.167 -0.1892  0.3032 -0.6770
12206SOL    HW241466   4.252   8.551   9.038  0.1165 -0.9526 -0.5075
12207SOL     OW41467   4.835   2.032   8.610 -0.2808  0.5065  0.5903
12207SOL    HW141468   4.770   2.051   8.677  1.4204  1.2532  2.0998
12207SOL    HW241469   4.794   1.964   8.555 -2.6131  1.5178  0.9729
12208SOL     OW41470   4.321   9.627   8.581  0.0633 -0.0960  0.4441
12208SOL    HW141471   4.252   9.561   8.574 -0.7726  0.7592  0.4406
12208SOL    HW241472   4.340   9.651   8.490 -0.0288  0.0687  0.4686
12209SOL     OW41473   3.692   2.217   7.284 -0.2466  0.2279 -0.4292
12209SOL    HW141474   3.728   2.291   7.235 -0.3582  0.5705  0.0031
12209SOL    HW241475   3.706   2.142   7.227 -2.0148  0.8793 -1.8079
12210SOL     OW41476   3.472   2.904   8.764  0.3292 -0.3931  0.0328
12210SOL    HW141477   3.405   2.961   8.802  0.1560 -0.4831 -0.1342
12210SOL    HW241478   3.428   2.860   8.691  0.4185 -0.8295  0.2329
12211SOL     OW41479   5.603   3.006   7.278 -0.5594 -0.1409  0.0795
12211SOL    HW141480   5.560   2.988   7.362  0.1406 -0.1196  0.4455
12211SOL    HW241481   5.613   2.920   7.237 -0.1335 -0.2486  0.4002
12212SOL     OW41482   6.081   9.563   0.821 -0.0460  0.4558 -0.2788
12212SOL    HW141483   6.160   9.520   0.855 -2.0929 -0.9463  3.1902
12212SOL    HW241484   6.075   9.645   0.871 -0.9466  0.3938 -0.2754
12213SOL     OW41485   4.423   9.202   7.636 -0.5161 -0.1641  0.6327
12213SOL    HW141486   4.392   9.253   7.711  0.9147 -0.5084  1.4988
12213SOL    HW241487   4.518   9.201   7.645 -0.3463 -0.6601 -0.9144
12214SOL     OW41488   4.303   0.095   9.544 -0.4949  0.3977 -0.1579
12214SOL    HW141489   4.267   0.121   9.459 -0.7007  1.1573  0.1599
12214SOL    HW241490   4.304  -0.001   9.541  1.3208  0.3995 -1.7903
12215SOL     OW41491   4.772   1.391   8.504  0.3472 -0.2190 -0.4730
12215SOL    HW141492   4.826   1.427   8.434 -0.7003 -1.2291 -1.8632
12215SOL    HW241493   4.827   1.396   8.582  0.5839  3.4904 -0.7007
12216SOL     OW41494   4.135   3.277   8.515 -0.2063  0.5027 -0.1051
12216SOL    HW141495   4.205   3.243   8.572 -1.1812  0.4634  1.1178
12216SOL    HW241496   4.109   3.202   8.462 -0.0414  0.2315  0.1917
12217SOL     OW41497   4.825   0.636   9.299 -0.1281  0.5095 -0.0881
12217SOL    HW141498   4.784   0.573   9.239 -0.2722  1.5067 -1.0673
12217SOL    HW241499   4.783   0.719   9.278  1.9786  1.4720 -0.7145
12218SOL     OW41500   2.766   9.659   0.172  0.0182 -0.1630  0.2672
12218SOL    HW141501   2.771   9.754   0.176  1.0264 -0.0986 -1.4922
12218SOL    HW241502   2.681   9.640   0.133  0.3598  0.0768 -0.6028
12219SOL     OW41503   4.097   1.417   7.509 -0.1805 -0.2318  0.0436
12219SOL    HW141504   4.113   1.439   7.600  0.1568  0.0634 -0.0828
12219SOL    HW241505   4.090   1.502   7.464 -1.9049 -0.3306  0.0414
12220SOL     OW41506   6.975   9.826   8.103  0.0898 -0.0677  0.2607
12220SOL    HW141507   6.950   9.873   8.183 -0.5517  0.7081 -0.3885
12220SOL    HW241508   7.071   9.829   8.103  0.0661  0.7883  0.4865
12221SOL     OW41509   4.206   7.872   8.056  0.1144 -0.6878 -0.3628
12221SOL    HW141510   4.175   7.961   8.039 -0.5676 -0.7439  0.5403
12221SOL    HW241511   4.148   7.838   8.124 -0.4823 -2.3140 -1.6274
12222SOL     OW41512   4.171   0.232   7.084  0.3527  0.1207 -0.2560
12222SOL    HW141513   4.173   0.161   7.149 -2.5701 -0.2040 -0.3554
12222SOL    HW241514   4.251   0.220   7.033  1.5896 -1.0375  1.8262
12223SOL     OW41515   6.103   9.131   8.222  0.4299  0.0232  0.0833
12223SOL    HW141516   6.138   9.046   8.196  1.9518  0.3133  1.0958
12223SOL    HW241517   6.009   9.125   8.204 -0.0154 -2.8905  2.6937
12224SOL     OW41518   7.355   0.848   9.504  0.6448 -0.0891  0.2746
12224SOL    HW141519   7.352   0.761   9.464 -0.4848 -0.2858  0.7504
12224SOL    HW241520   7.361   0.908   9.430  0.0403 -0.5144 -0.1271
12225SOL     OW41521   3.632   2.764   6.460  0.4852 -0.2020  0.8334
12225SOL    HW141522   3.572   2.798   6.526  0.2463 -0.4724  0.7617
12225SOL    HW241523   3.620   2.669   6.464 -0.8795 -0.1576 -0.8205
12226SOL     OW41524   2.850   1.871   8.030 -1.1433  0.5201 -0.1004
12226SOL    HW141525   2.815   1.835   8.112 -0.0396 -1.7679 -0.5461
12226SOL    HW241526   2.900   1.948   8.057  2.3420 -2.2239  2.0420
12227SOL     OW41527   4.615   1.462   9.842 -0.2938  0.7441 -0.1343
12227SOL    HW141528   4.564   1.515   9.904 -0.2720  0.2048  0.3570
12227SOL    HW241529   4.559   1.387   9.823 -0.0019  0.5400 -0.1989
12228SOL     OW41530   4.529   9.215   8.829 -0.1919 -0.2635  0.7563
12228SOL    HW141531   4.441   9.219   8.792 -0.8780  0.8550  2.4147
12228SOL    HW241532   4.523   9.260   8.913  2.1978  0.7374  0.4907
12229SOL     OW41533   2.797   0.630   9.551  0.1095  0.1310 -0.7213
12229SOL    HW141534   2.721   0.689   9.560  2.0369  2.5020  2.3661
12229SOL    HW241535   2.789   0.570   9.625  1.1770  0.3917 -0.3733
12230SOL     OW41536   3.171   1.716   0.607  0.2244 -0.0298  0.4657
12230SOL    HW141537   3.250   1.728   0.660  0.1793 -0.7911  0.7121
12230SOL    HW241538   3.139   1.629   0.630 -0.0878 -0.1671 -0.4359
12231SOL     OW41539   2.250   9.728   7.319  0.4693  0.2432 -0.1186
12231SOL    HW141540   2.228   9.818   7.296  0.1822 -0.1210 -1.4028
12231SOL    HW241541   2.302   9.734   7.399  1.2710  1.6223 -0.7217
12232SOL     OW41542   5.322   0.977   0.015 -0.2734 -0.4099 -0.1386
12232SOL    HW141543   5.312   0.996   0.109 -0.4849  1.7265 -0.5425
12232SOL    HW241544   5.255   0.912  -0.004 -2.4205  1.4833  0.5792
12233SOL     OW41545   2.362   3.569   9.341 -0.3298  0.0788 -0.2025
12233SOL    HW141546   2.451   3.542   9.319  0.0109  0.5927  0.4946
12233SOL    HW241547   2.315   3.487   9.357  0.8683 -0.1891  2.6094
12234SOL     OW41548   2.328   1.605   6.898 -0.0132 -0.0035 -0.1588
12234SOL    HW141549   2.238   1.626   6.921  0.4576  0.8827  0.9557
12234SOL    HW241550   2.345   1.658   6.820 -0.3176  0.1747 -0.1074
12235SOL     OW41551   4.360   3.069   7.795  0.0785 -0.3670  0.8666
12235SOL    HW141552   4.336   3.078   7.703 -0.4729  0.1992  1.0615
12235SOL    HW241553   4.420   2.994   7.797 -0.4052 -0.7833  0.1388
12236SOL     OW41554   3.026   3.149   9.812  0.0771  0.3495  0.0921
12236SOL    HW141555   3.059   3.183   9.729  0.0253  0.7587  0.2386
12236SOL    HW241556   3.004   3.227   9.863  0.1804  0.0989  0.5204
12237SOL     OW41557   3.588   1.645   8.308  0.0193  0.4042 -0.5812
12237SOL    HW141558   3.601   1.553   8.284 -0.7110 -0.8223  2.9889
12237SOL    HW241559   3.541   1.683   8.234 -0.1998 -2.2801 -1.9418
12238SOL     OW41560   4.828   1.577   6.480 -0.1431 -0.0110  0.1043
12238SOL    HW141561   4.862   1.505   6.534  0.8358  1.9035  2.1664
12238SOL    HW241562   4.844   1.548   6.390  1.8761 -1.6027  0.8954
12239SOL     OW41563   7.341   2.105   7.574 -0.2808  0.1926  0.2674
12239SOL    HW141564   7.270   2.076   7.632  0.6362 -1.4203  0.6596
12239SOL    HW241565   7.307   2.094   7.486 -0.4812 -0.6925  0.4498
12240SOL     OW41566   6.895   3.300   6.940 -0.2029 -0.6081  0.0621
12240SOL    HW141567   6.912   3.340   7.024 -0.8239 -1.9639  0.8698
12240SOL    HW241568   6.838   3.226   6.960 -3.3246  1.0557 -1.9208
12241SOL     OW41569   2.695   2.990   6.893  0.2197  0.9339 -0.2436
12241SOL    HW141570   2.628   3.048   6.856 -0.2446  0.7449  0.2813
12241SOL    HW241571   2.698   3.015   6.986 -0.4870 -0.3417  0.1455
12242SOL     OW41572   3.508   8.694   7.714  0.5571  0.5476 -0.2262
12242SOL    HW141573   3.582   8.731   7.667 -0.3136  3.3970  0.4101
12242SOL    HW241574   3.432   8.739   7.678 -0.6151 -0.6249  0.6860
12243SOL     OW41575   3.877   2.122   5.786  0.0028 -0.0433  0.2311
12243SOL    HW141576   3.832   2.192   5.738 -2.5440 -1.0998  0.9512
12243SOL    HW241577   3.845   2.041   5.747 -0.5815 -0.8891  2.3341
12244SOL     OW41578   2.981   4.340   0.114  0.5431  0.0699  0.5278
12244SOL    HW141579   2.951   4.287   0.188  0.2513 -2.0171 -1.0047
12244SOL    HW241580   3.076   4.335   0.118  0.5586  0.8357  1.3387
12245SOL     OW41581   7.170   0.766   7.603 -0.1083 -0.4992 -0.2497
12245SOL    HW141582   7.143   0.691   7.551 -0.5492 -0.4004 -0.1668
12245SOL    HW241583   7.262   0.779   7.581 -0.3814 -0.2463 -1.2475
12246SOL     OW41584   4.634   1.098   7.533  0.9072 -0.6706 -0.7404
12246SOL    HW141585   4.685   1.109   7.453  0.8243 -1.5649 -0.9266
12246SOL    HW241586   4.682   1.030   7.582 -0.3482 -1.8760 -1.1355
12247SOL     OW41587   5.169   0.604   0.467  0.1994  0.3966 -0.0851
12247SOL    HW141588   5.163   0.566   0.379 -0.0857  2.0854 -0.8197
12247SOL    HW241589   5.199   0.693   0.453 -1.8443  1.3927  1.3457
12248SOL     OW41590   6.869   1.825   9.307 -0.6509 -0.0687  0.2875
12248SOL    HW141591   6.774   1.816   9.298 -0.8011  1.6044 -0.0447
12248SOL    HW241592   6.903   1.737   9.288 -2.1385 -0.7956  0.8122
12249SOL     OW41593   4.273   1.056   7.213 -0.2483  0.4542  0.2032
12249SOL    HW141594   4.308   1.070   7.126  0.4085  1.5069  0.6166
12249SOL    HW241595   4.250   1.143   7.244 -0.0167  0.1586  1.2632
12250SOL     OW41596   5.019   0.260   6.734  0.2763  0.2729 -0.0710
12250SOL    HW141597   5.104   0.271   6.778 -0.0861  0.7113  0.5281
12250SOL    HW241598   4.971   0.340   6.754  0.3830  0.8545 -1.9315
12251SOL     OW41599   2.741   3.801   7.007 -0.1369 -0.6231 -0.1681
12251SOL    HW141600   2.747   3.859   7.083 -0.6611 -1.6548  0.7044
12251SOL    HW241601   2.679   3.733   7.035  0.5887 -1.6839 -1.0863
12252SOL     OW41602   4.779   9.633   7.180 -0.6584 -0.0653 -0.0408
12252SOL    HW141603   4.769   9.648   7.086  0.1586  1.2258  0.0459
12252SOL    HW241604   4.689   9.626   7.213 -0.9585 -3.3179 -1.2722
12253SOL     OW41605   6.324   1.463   8.891 -0.1843  0.0236 -0.0124
12253SOL    HW141606   6.328   1.466   8.986  2.3456  1.1678 -0.0887
12253SOL    HW241607   6.414   1.446   8.863 -0.5467  1.3642 -2.2304
12254SOL     OW41608   3.616   1.358   8.191 -0.5397 -0.8678  0.2291
12254SOL    HW141609   3.700   1.318   8.169  0.1730 -0.1481  1.5184
12254SOL    HW241610   3.551   1.298   8.155  0.4451  0.0211 -3.4822
12255SOL     OW41611   4.496   1.739   5.947  0.3387 -0.3669 -0.2035
12255SOL    HW141612   4.532   1.723   6.034 -1.8078 -1.8815  0.4683
12255SOL    HW241613   4.500   1.655   5.903 -1.1820 -0.2876 -0.5405
12256SOL     OW41614   5.094   8.587   9.057  0.0339  0.1399  0.1383
12256SOL    HW141615   5.008   8.614   9.088  0.5894 -0.3697  2.2412
12256SOL    HW241616   5.145   8.669   9.054 -0.0060  0.1833  0.6411
12257SOL     OW41617   3.691   1.656   8.577  0.6366  0.0429  0.0284
12257SOL    HW141618   3.668   1.637   8.486  0.1977 -0.6119  0.2747
12257SOL    HW241619   3.771   1.606   8.592  1.9978  1.8884 -0.6609
12258SOL     OW41620   5.204   2.368   8.932  0.6837 -0.3029 -0.4210
12258SOL    HW141621   5.139   2.404   8.992  1.3438  0.3347 -0.0722
12258SOL    HW241622   5.177   2.278   8.918 -0.7085  0.1706 -0.8929
12259SOL     OW41623   2.390   1.369   6.136  0.1415 -0.3069 -0.0794
12259SOL    HW141624   2.474   1.378   6.181 -0.4412  0.9465  0.8187
12259SOL    HW241625   2.329   1.338   6.203 -0.2944 -0.4350 -0.5209
12260SOL     OW41626   3.165   2.679   7.965  0.0998 -0.1778 -0.4068
12260SOL    HW141627   3.213   2.602   7.996 -0.6228 -0.5125 -0.0959
12260SOL    HW241628   3.118   2.649   7.887  0.2201  0.0904 -0.5860
12261SOL     OW41629   3.263   1.150   9.158 -0.3391  0.2164 -0.3672
12261SOL    HW141630   3.176   1.157   9.196 -0.0033 -0.7732  0.6323
12261SOL    HW241631   3.299   1.068   9.194  0.5016 -0.0704 -1.7904
12262SOL     OW41632   2.862   1.881   7.446 -0.5426  0.7190  0.2953
12262SOL    HW141633   2.809   1.898   7.368 -1.5795  0.8834  1.0130
12262SOL    HW241634   2.911   1.802   7.426 -0.2409  1.1723 -0.7991
12263SOL     OW41635   4.019   0.028   8.415 -0.2752  0.7560  0.0171
12263SOL    HW141636   4.095   0.023   8.473  0.1207  0.3901 -0.5307
12263SOL    HW241637   3.973   0.108   8.442 -0.1907  0.4973  0.9500
12264SOL     OW41638   4.429   8.836   7.492 -0.1821  0.6053  0.0943
12264SOL    HW141639   4.515   8.804   7.520 -0.1783  0.3558 -0.1959
12264SOL    HW241640   4.423   8.809   7.400 -1.7679 -1.9719  0.8500
12265SOL     OW41641   5.199   3.030   7.278  0.1196  0.0542 -0.3872
12265SOL    HW141642   5.259   3.058   7.346  1.0449 -0.9866 -0.7386
12265SOL    HW241643   5.236   3.067   7.197  0.3621 -0.6791 -0.6184
12266SOL     OW41644   3.910   0.873   8.034 -0.3085 -0.4258  0.5101
12266SOL    HW141645   3.884   0.788   8.068  2.0075 -1.4160 -0.0327
12266SOL    HW241646   4.005   0.867   8.022 -0.3117  1.6360 -1.2068
12267SOL     OW41647   9.549   1.125   7.702 -0.4460  0.0536 -0.1258
12267SOL    HW141648   9.622   1.062   7.699  0.5061  1.0800 -3.4105
12267SOL    HW241649   9.591   1.209   7.720 -1.0275  0.4269 -0.4953
12268SOL     OW41650   6.164   8.212   8.892  0.1190 -0.0386 -0.2185
12268SOL    HW141651   6.173   8.121   8.921  4.6913 -0.6965 -2.7213
12268SOL    HW241652   6.206   8.264   8.961  0.4019 -0.2268 -0.2458
12269SOL     OW41653   5.870   0.619   9.098 -0.3523  0.4339 -0.1385
12269SOL    HW141654   5.783   0.632   9.060 -0.7567  1.2401  1.0324
12269SOL    HW241655   5.904   0.707   9.113  0.5021  0.1270 -0.1664
12270SOL     OW41656   4.967   0.671   6.609 -0.5110  0.1487  0.2144
12270SOL    HW141657   5.023   0.622   6.669 -1.1684 -1.0657 -0.1057
12270SOL    HW241658   4.892   0.697   6.662 -0.9573 -0.6795  0.0142
12271SOL     OW41659   4.748   1.365   7.291 -0.0312 -0.3042 -0.8355
12271SOL    HW141660   4.815   1.315   7.244  1.2026 -0.3275  0.8824
12271SOL    HW241661   4.669   1.353   7.238  1.1767 -0.6667 -2.6684
12272SOL     OW41662   5.605   0.287   9.191  0.3547 -0.1963 -0.2209
12272SOL    HW141663   5.525   0.332   9.164 -0.3501 -0.1754  1.6961
12272SOL    HW241664   5.660   0.356   9.228  2.1066  0.1017 -3.1339
12273SOL     OW41665   6.393   9.636   6.817  0.3757 -0.0879 -0.3199
12273SOL    HW141666   6.435   9.676   6.893 -0.6272 -1.0485  0.7814
12273SOL    HW241667   6.320   9.695   6.797  1.4485  0.9132 -1.4531
12274SOL     OW41668   7.718   1.335   6.599  1.0976  0.3140 -0.0149
12274SOL    HW141669   7.809   1.361   6.616  0.8698  0.2948  1.3824
12274SOL    HW241670   7.714   1.243   6.624  0.3940  0.6646  1.2768
12275SOL     OW41671   2.876   1.038   8.926 -0.3969 -0.2634  0.1673
12275SOL    HW141672   2.853   0.953   8.964  0.4644 -0.4390  0.3062
12275SOL    HW241673   2.796   1.066   8.880 -1.0427 -0.6258  1.0455
12276SOL     OW41674   5.586   0.711   7.836  0.6728 -0.3530 -0.1181
12276SOL    HW141675   5.498   0.696   7.803  1.0733 -1.4863 -0.7213
12276SOL    HW241676   5.643   0.664   7.775  1.9620  2.5855 -1.3677
12277SOL     OW41677   2.966   0.866   8.146  0.2916 -0.3046 -0.1534
12277SOL    HW141678   2.900   0.842   8.212 -0.5608 -0.7383 -1.1389
12277SOL    HW241679   3.037   0.804   8.160 -0.1341 -0.7668 -0.0021
12278SOL     OW41680   4.889   1.574   7.151 -0.3257  0.0874 -0.4051
12278SOL    HW141681   4.916   1.641   7.214 -2.1317  0.4180  0.0782
12278SOL    HW241682   4.841   1.510   7.204 -2.2615  0.5842 -1.4581
12279SOL     OW41683   3.882   1.797   9.664  0.0729 -0.6720 -0.2908
12279SOL    HW141684   3.898   1.738   9.737  0.0456 -0.6073 -0.2318
12279SOL    HW241685   3.968   1.815   9.628  0.3952  1.3522  1.3258
12280SOL     OW41686   4.077   9.477   8.551  0.5916  0.0646  0.3103
12280SOL    HW141687   4.002   9.535   8.539  0.5846 -0.1632 -0.8341
12280SOL    HW241688   4.063   9.437   8.637 -0.0877  0.7528  0.5269
12281SOL     OW41689   6.475   8.873   7.894 -0.2220 -0.6562 -0.1065
12281SOL    HW141690   6.493   8.811   7.823  1.4392  0.4285 -0.7032
12281SOL    HW241691   6.379   8.879   7.898 -0.3667 -1.9836 -1.1397
12282SOL     OW41692   5.649   1.699   0.499  0.0354  0.2112  0.0321
12282SOL    HW141693   5.647   1.670   0.590 -2.3321  0.4754  0.1056
12282SOL    HW241694   5.624   1.622   0.449  3.8907 -0.7665 -0.7755
12283SOL     OW41695   5.944   8.975   7.837 -0.4515  0.2497 -0.1867
12283SOL    HW141696   5.875   8.946   7.896 -0.0672  1.9016  1.1222
12283SOL    HW241697   6.025   8.943   7.877 -0.3123 -0.2976 -0.8739
12284SOL     OW41698   1.652   9.505   9.787 -0.2082 -0.3116  0.0797
12284SOL    HW141699   1.568   9.495   9.831  0.2316 -0.2288  0.9497
12284SOL    HW241700   1.673   9.598   9.795  0.5862 -0.5585  1.0349
12285SOL     OW41701   4.414   0.565   7.852 -0.5050  0.1447  0.0886
12285SOL    HW141702   4.418   0.471   7.835 -0.3522 -0.1414  1.6029
12285SOL    HW241703   4.322   0.588   7.841 -0.3775  0.0669 -1.3854
12286SOL     OW41704   4.873   8.729   9.186 -0.0278  0.6132  0.0617
12286SOL    HW141705   4.787   8.725   9.228 -0.5018  0.5529 -0.8929
12286SOL    HW241706   4.869   8.805   9.128  0.4485  0.4234 -0.2361
12287SOL     OW41707   3.162   2.414   6.499 -0.0718  0.4089  0.0456
12287SOL    HW141708   3.090   2.355   6.478 -1.4443  2.1429 -0.3622
12287SOL    HW241709   3.238   2.378   6.453 -1.0316 -0.6353 -0.7499
12288SOL     OW41710   3.830   0.772   5.625 -0.0892  0.5001 -0.2756
12288SOL    HW141711   3.740   0.803   5.614  0.3392  2.5547  1.4279
12288SOL    HW241712   3.874   0.796   5.544 -0.7615  0.6705 -0.5928
12289SOL     OW41713   4.526   2.256   8.168 -0.3106  0.3980 -0.2784
12289SOL    HW141714   4.463   2.300   8.112 -0.9250 -0.4350 -0.2521
12289SOL    HW241715   4.476   2.188   8.213  0.5170 -0.0137  0.0493
12290SOL     OW41716   2.976   2.887   6.907  0.1400 -0.3733  0.2078
12290SOL    HW141717   2.995   2.827   6.979 -1.2376  0.7925  1.6070
12290SOL    HW241718   2.881   2.887   6.900  0.0814  1.8070  0.4380
12291SOL     OW41719   6.762   2.789   6.083  0.2577 -0.2816  0.3681
12291SOL    HW141720   6.752   2.819   6.173  0.1280  0.2746  0.1750
12291SOL    HW241721   6.837   2.837   6.049  0.5052 -0.7294  0.2771
12292SOL     OW41722   3.660   1.584   6.304  0.4464  0.0898 -0.3525
12292SOL    HW141723   3.710   1.602   6.384  1.7860  0.4496 -1.2290
12292SOL    HW241724   3.584   1.642   6.310  0.6719  0.3146  0.5354
12293SOL     OW41725   5.881   0.375   7.337 -0.2471 -0.0999 -0.4408
12293SOL    HW141726   5.803   0.422   7.366 -0.2887 -0.8037  0.6577
12293SOL    HW241727   5.858   0.282   7.346  1.1377 -0.3557  1.2534
12294SOL     OW41728   2.989   1.609   9.448 -0.7025  0.2239  0.2294
12294SOL    HW141729   2.936   1.596   9.527 -0.4188  2.3811  0.8362
12294SOL    HW241730   3.072   1.565   9.468 -1.2336 -0.7163  0.4202
12295SOL     OW41731   4.632   2.838   9.040  0.2338 -0.8393 -0.3854
12295SOL    HW141732   4.648   2.781   8.965  0.6261  0.0419 -0.9918
12295SOL    HW241733   4.709   2.894   9.044 -0.7799  0.6129 -0.6787
12296SOL     OW41734   4.420   0.387   0.022  0.2500 -0.1032 -0.2421
12296SOL    HW141735   4.372   0.425  -0.051 -1.8498 -0.2674  0.9498
12296SOL    HW241736   4.483   0.328  -0.018  0.3486  1.1111 -1.9455
12297SOL     OW41737   2.513   1.248   0.260  0.1597  0.3143  0.3378
12297SOL    HW141738   2.559   1.286   0.186 -0.3128 -0.3419 -0.2993
12297SOL    HW241739   2.421   1.271   0.246 -0.0370 -0.4520  0.3160
12298SOL     OW41740   5.301   2.037   6.403  0.4461  0.1556  0.0306
12298SOL    HW141741   5.388   2.076   6.388  0.2405 -0.1193 -2.4085
12298SOL    HW241742   5.250   2.108   6.441  1.1006  1.1495 -0.8535
12299SOL     OW41743   3.345   1.717   8.539 -0.5821 -0.2154  0.2061
12299SOL    HW141744   3.412   1.708   8.471  0.0463  0.3227  0.7437
12299SOL    HW241745   3.291   1.639   8.530  0.2476 -0.7652 -0.0997
12300SOL     OW41746   5.668   0.883   0.431 -0.5082 -0.0516  0.1384
12300SOL    HW141747   5.580   0.904   0.463 -0.5395  1.5158 -0.8714
12300SOL    HW241748   5.659   0.797   0.391 -1.0070 -0.9863  2.1155
12301SOL     OW41749   6.776   2.261   0.699 -0.2792 -0.2099 -0.0256
12301SOL    HW141750   6.701   2.207   0.725  0.8672 -1.4752  0.8348
12301SOL    HW241751   6.739   2.328   0.641 -2.4368  0.6316  2.1425
12302SOL     OW41752   5.545   0.274   8.700  0.2413 -0.3523  0.0793
12302SOL    HW141753   5.565   0.226   8.780 -2.7964  0.4525  1.5013
12302SOL    HW241754   5.529   0.364   8.729  0.2829  0.2596 -1.6450
12303SOL     OW41755   4.200   8.140   0.957 -0.1864 -0.2561  0.5081
12303SOL    HW141756   4.139   8.192   1.010 -0.9492 -0.0186 -0.5746
12303SOL    HW241757   4.256   8.096   1.022 -1.1241 -0.0224  1.5092
12304SOL     OW41758   6.429   1.912   0.734 -0.0722  0.4844  0.0834
12304SOL    HW141759   6.401   1.853   0.804  1.2029 -0.6591 -0.3141
12304SOL    HW241760   6.391   1.874   0.655  0.1815  0.5986 -0.0934
12305SOL     OW41761   6.235   6.566   0.213 -0.3327  0.3320  0.3941
12305SOL    HW141762   6.282   6.622   0.151 -1.9954  2.8578  1.2431
12305SOL    HW241763   6.147   6.604   0.217 -2.1358 -3.3255 -0.1039
12306SOL     OW41764   5.268   2.150   7.477  0.1471  0.1146 -0.0755
12306SOL    HW141765   5.289   2.196   7.558 -0.2072  0.8892 -0.4112
12306SOL    HW241766   5.342   2.170   7.419 -0.8909  1.8703 -0.8632
12307SOL     OW41767   2.908   2.400   9.018  0.1831 -0.1452 -0.2470
12307SOL    HW141768   2.905   2.495   9.027 -0.9906 -0.3263  1.7996
12307SOL    HW241769   2.837   2.368   9.073 -0.1766 -2.1828 -1.7681
12308SOL     OW41770   4.200   1.898   9.809  0.5967  0.0360 -0.0987
12308SOL    HW141771   4.116   1.883   9.853  2.1179  0.2509  3.1612
12308SOL    HW241772   4.207   1.993   9.803  0.6294  0.0200 -0.3145
12309SOL     OW41773   4.478   9.269   9.366 -0.3369 -0.4522  0.7242
12309SOL    HW141774   4.470   9.174   9.355 -0.7595 -0.6475  2.4057
12309SOL    HW241775   4.397   9.304   9.328 -0.0969 -0.7362 -0.0648
12310SOL     OW41776   5.665   1.530   0.741  0.1933 -0.8608 -0.0371
12310SOL    HW141777   5.649   1.492   0.828 -0.7283 -0.8785 -0.2035
12310SOL    HW241778   5.755   1.507   0.721  0.0049 -2.0025  0.3566
12311SOL     OW41779   3.298   2.005   9.034 -0.3991 -0.2420  0.7982
12311SOL    HW141780   3.304   2.048   9.119 -0.4874  0.0791  0.6438
12311SOL    HW241781   3.242   2.062   8.982 -0.0130 -0.2225  0.3981
12312SOL     OW41782   4.960   0.946   0.287 -0.4211  0.5617 -0.2712
12312SOL    HW141783   4.906   1.025   0.295 -0.3837  0.5221  0.4783
12312SOL    HW241784   4.901   0.881   0.248 -0.4032  0.9986 -1.0390
12313SOL     OW41785   4.469   0.936   8.352 -0.4773  0.3673 -0.3607
12313SOL    HW141786   4.409   0.884   8.405 -0.2074 -0.1437 -0.5526
12313SOL    HW241787   4.487   0.881   8.276  0.1859  0.5466 -0.3339
12314SOL     OW41788   4.128   2.272   0.858  0.1445  0.0072 -0.1847
12314SOL    HW141789   4.055   2.317   0.814  0.8256  0.5213 -0.8175
12314SOL    HW241790   4.171   2.224   0.788  1.4333  1.0819 -0.1547
12315SOL     OW41791   5.904   1.796   0.223 -0.4112 -0.9513  0.6503
12315SOL    HW141792   5.887   1.779   0.316  1.1471 -2.4067  0.7134
12315SOL    HW241793   5.935   1.886   0.220 -1.1829 -0.6399  1.4192
12316SOL     OW41794   3.217   8.946   8.156 -0.0096  0.0376  0.1997
12316SOL    HW141795   3.125   8.935   8.181 -0.2664 -0.2346 -0.7941
12316SOL    HW241796   3.226   9.040   8.141 -0.1416  0.0628  0.2758
12317SOL     OW41797   3.997   0.280   0.161  0.0348 -0.2941 -0.1282
12317SOL    HW141798   4.063   0.337   0.200  0.5054 -0.8371 -0.1158
12317SOL    HW241799   4.009   0.196   0.205  0.1743 -0.7479 -0.9975
12318SOL     OW41800   5.477   2.786   8.118 -0.4698  0.3372  0.1463
12318SOL    HW141801   5.394   2.776   8.164 -0.8044  0.8696 -0.3335
12318SOL    HW241802   5.476   2.718   8.051 -0.8931  0.8643 -0.3953
12319SOL     OW41803   3.392   8.376   9.698 -0.9317 -0.5493  0.1104
12319SOL    HW141804   3.463   8.352   9.757 -0.7798 -1.0736 -0.2749
12319SOL    HW241805   3.361   8.460   9.730  0.3244  0.0328 -0.1370
12320SOL     OW41806   4.909   0.399   0.501 -0.3301 -0.4306  0.2595
12320SOL    HW141807   4.958   0.318   0.482  0.4493 -0.3316  1.7572
12320SOL    HW241808   4.952   0.436   0.578  0.7984  2.6448 -1.6772
12321SOL     OW41809   6.325   0.900   0.537 -0.3492 -0.6506  0.2404
12321SOL    HW141810   6.405   0.923   0.489  0.8672 -2.1757  1.4437
12321SOL    HW241811   6.272   0.980   0.534  1.1201  0.3492 -0.7670
12322SOL     OW41812   5.375   2.813   8.835  0.5272  0.3895 -0.1688
12322SOL    HW141813   5.446   2.754   8.862  1.2216  1.3364  0.1322
12322SOL    HW241814   5.391   2.828   8.742  0.2533 -0.0291 -0.2833
12323SOL     OW41815   6.613   8.257   9.392  0.2705  0.6557 -0.0577
12323SOL    HW141816   6.692   8.202   9.388 -0.0406  0.2203 -0.1960
12323SOL    HW241817   6.609   8.286   9.483  0.1063 -0.0376  0.1578
12324SOL     OW41818   4.336   0.219   0.201 -0.2833 -0.2364  0.0862
12324SOL    HW141819   4.348   0.299   0.149 -1.8181  0.3057  0.4981
12324SOL    HW241820   4.316   0.151   0.137  0.8686 -0.2769 -0.2553
12325SOL     OW41821   5.612   0.535   0.010  0.5504 -0.2603  0.1102
12325SOL    HW141822   5.629   0.628  -0.005 -0.2401 -0.0312  0.5839
12325SOL    HW241823   5.516   0.527   0.008  0.4715 -0.5901  2.6821
12326SOL     OW41824   2.131   1.103   0.899 -0.2081 -0.0659  0.1057
12326SOL    HW141825   2.108   1.133   0.811 -1.1239  2.2086  1.0524
12326SOL    HW241826   2.227   1.105   0.901 -0.2152  1.4310 -0.3436
12327SOL     OW41827   3.765   0.668   9.388  0.2244  0.1170 -0.9102
12327SOL    HW141828   3.781   0.600   9.322  1.4917 -1.8870  1.3079
12327SOL    HW241829   3.681   0.643   9.427  1.2275 -0.9571  0.6849
12328SOL     OW41830   3.602   0.032   0.566 -0.1444 -0.0875 -0.3083
12328SOL    HW141831   3.604  -0.050   0.614  0.1212  0.1876  0.1585
12328SOL    HW241832   3.539   0.017   0.495  0.0839 -0.7654 -0.3693
12329SOL     OW41833   6.233   9.090   8.836 -0.6501  0.2486 -0.0179
12329SOL    HW141834   6.260   9.001   8.861 -0.3472  0.0481 -1.0391
12329SOL    HW241835   6.174   9.078   8.762  0.2816  0.9534 -0.8944
12330SOL     OW41836   4.748   2.145   0.116 -0.2388  0.3481  0.5884
12330SOL    HW141837   4.821   2.085   0.128  0.7987  1.5503  0.5119
12330SOL    HW241838   4.681   2.094   0.070  0.7065 -0.6419  0.2890
12331SOL     OW41839   4.095   0.119   9.328 -0.0664  0.1959 -0.1509
12331SOL    HW141840   4.000   0.116   9.334 -0.0177 -3.2148  1.2664
12331SOL    HW241841   4.121   0.029   9.307  2.9145  0.1498  2.8217
12332SOL     OW41842   3.957   2.214   8.754 -0.3450 -0.1026  0.5740
12332SOL    HW141843   3.969   2.133   8.706  1.2955  1.0138 -1.0075
12332SOL    HW241844   3.942   2.281   8.687 -2.8005  0.7912  1.8623
12333SOL     OW41845   5.392   1.323   8.408  0.0756 -0.1248 -0.0222
12333SOL    HW141846   5.387   1.387   8.480  0.3313  0.2885 -0.3662
12333SOL    HW241847   5.303   1.290   8.400 -0.1137  0.3599  0.0142
12334SOL     OW41848   3.538   0.897   0.572  0.2612 -0.3888 -0.5072
12334SOL    HW141849   3.525   0.882   0.478 -1.7381  0.2451 -0.3800
12334SOL    HW241850   3.564   0.988   0.579 -1.3653  0.0976 -0.3672
12335SOL     OW41851   5.841   9.852   0.386  0.0242 -0.1080  0.1141
12335SOL    HW141852   5.930   9.819   0.398 -0.3786 -0.9514  0.9170
12335SOL    HW241853   5.822   9.899   0.466 -0.2232  0.1552 -0.0980
12336SOL     OW41854   5.054   1.343   0.042 -0.4398  0.6254 -0.1262
12336SOL    HW141855   5.014   1.402   0.106 -1.1524  0.1629 -0.1372
12336SOL    HW241856   4.995   1.268   0.038 -0.2056  0.4766 -1.0441
12337SOL     OW41857   6.191   1.585   9.561 -0.2415 -0.6364 -0.1499
12337SOL    HW141858   6.248   1.633   9.502 -0.9918 -1.5634 -1.6839
12337SOL    HW241859   6.250   1.526   9.609  0.2174 -0.8509 -0.9643
12338SOL     OW41860   4.450   8.108   0.752 -0.2603  0.2273 -0.1058
12338SOL    HW141861   4.364   8.112   0.712 -0.3253  1.5098  0.0909
12338SOL    HW241862   4.449   8.179   0.817  1.3080  1.0109 -0.8743
12339SOL     OW41863   4.644   1.427   9.177 -0.0297  0.1365  0.2819
12339SOL    HW141864   4.571   1.439   9.117  0.0550 -2.3159 -0.4225
12339SOL    HW241865   4.722   1.428   9.121  0.1114 -1.4003  0.4039
12340SOL     OW41866   3.722   0.707   0.077  0.5170  0.0960 -0.4322
12340SOL    HW141867   3.747   0.647   0.147 -0.6519 -1.0562 -0.9818
12340SOL    HW241868   3.802   0.759   0.061  1.4919 -1.1659  0.1834
12341SOL     OW41869   3.557   2.497   7.073 -0.0191 -0.3068  0.8598
12341SOL    HW141870   3.525   2.407   7.082  0.5826 -0.4455  1.7364
12341SOL    HW241871   3.526   2.525   6.987 -0.0478 -1.4162  0.4908
12342SOL     OW41872   4.355   0.949   9.757  0.0440 -0.3296  0.2828
12342SOL    HW141873   4.260   0.945   9.766  0.0157  0.5566  0.5220
12342SOL    HW241874   4.369   0.974   9.666 -0.0849  2.4716  0.9354
12343SOL     OW41875   3.454   1.207   8.053 -0.0341 -0.3594  0.3599
12343SOL    HW141876   3.364   1.184   8.032 -0.0070 -1.0811  1.0024
12343SOL    HW241877   3.504   1.180   7.976 -0.1616 -1.4235  0.6332
12344SOL     OW41878   3.168   2.264   9.605  0.4589 -0.0150  0.3513
12344SOL    HW141879   3.134   2.230   9.523  0.8202 -0.5208  0.4053
12344SOL    HW241880   3.201   2.351   9.584 -0.5345  0.3429  0.2258
12345SOL     OW41881   3.571   0.895   0.301 -0.0135  0.6074  0.0867
12345SOL    HW141882   3.495   0.905   0.244  0.4712 -1.2685 -0.9707
12345SOL    HW241883   3.615   0.981   0.298 -0.1730  0.6591 -2.1455
12346SOL     OW41884   4.202   1.237   7.733  0.2365 -0.2447 -0.0774
12346SOL    HW141885   4.259   1.301   7.690  0.4333 -1.0985 -1.1183
12346SOL    HW241886   4.262   1.175   7.773  0.0437 -0.8925 -0.7843
12347SOL     OW41887   2.206   3.338   2.013  0.5471  0.1951 -0.7964
12347SOL    HW141888   2.185   3.367   2.102 -0.5791 -1.7638 -0.3659
12347SOL    HW241889   2.133   3.369   1.960 -1.1363 -2.3301 -0.1797
12348SOL     OW41890   5.716   7.879   0.728 -0.3032  0.0660  0.0733
12348SOL    HW141891   5.766   7.806   0.690 -0.4363  0.4062 -0.7937
12348SOL    HW241892   5.632   7.877   0.681 -1.6755 -1.2849  2.3681
12349SOL     OW41893   3.429   0.859   0.822  0.0774 -0.0698  0.2128
12349SOL    HW141894   3.461   0.880   0.735 -1.1692 -1.5236 -0.6492
12349SOL    HW241895   3.427   0.943   0.868 -0.9287  1.0321 -1.7346
12350SOL     OW41896   2.574   1.932   0.702 -0.1790 -0.1028 -0.2374
12350SOL    HW141897   2.586   1.857   0.644  0.1383  0.3742 -0.7920
12350SOL    HW241898   2.660   1.947   0.742 -0.3957 -0.4352  0.3732
12351SOL     OW41899   4.469   1.239   9.800  0.5137 -0.0806  0.0775
12351SOL    HW141900   4.534   1.177   9.766  0.9634  0.3800  0.0834
12351SOL    HW241901   4.410   1.253   9.726  0.6257 -0.2307 -0.0443
12352SOL     OW41902   5.213   2.280   0.205 -0.4399 -0.2974  0.0605
12352SOL    HW141903   5.293   2.314   0.163  0.2971 -2.0457 -0.0091
12352SOL    HW241904   5.181   2.354   0.257  0.7995  0.6770 -0.4978
12353SOL     OW41905   4.168   4.896   8.412  0.0278 -0.4069 -0.4539
12353SOL    HW141906   4.211   4.895   8.498 -1.9001  0.1241  0.5878
12353SOL    HW241907   4.077   4.872   8.431 -0.7873  1.1529 -2.1265
12354SOL     OW41908   2.557   2.652   2.849  0.1280 -0.0799  0.4508
12354SOL    HW141909   2.481   2.693   2.890  0.2609 -0.1173  0.7352
12354SOL    HW241910   2.526   2.564   2.826  0.1005 -0.1147  0.6179
12355SOL     OW41911   4.593   2.665   1.561 -0.3033 -0.0983  0.0947
12355SOL    HW141912   4.508   2.705   1.546  0.1514  2.2996  2.9984
12355SOL    HW241913   4.651   2.705   1.496 -1.2040 -1.5544 -1.7227
12356SOL     OW41914   5.384   4.504   0.513 -0.2161  0.1955 -0.2622
12356SOL    HW141915   5.450   4.525   0.578  0.1454  0.1231 -0.6012
12356SOL    HW241916   5.331   4.583   0.505 -0.1012  0.2904 -0.0695
12357SOL     OW41917   6.249   1.479   0.424 -0.0858  0.0796 -0.1981
12357SOL    HW141918   6.214   1.487   0.336 -1.4215 -0.9306  0.1981
12357SOL    HW241919   6.284   1.389   0.428  1.8274  0.7738 -0.3058
12358SOL     OW41920   4.094   1.547   0.719 -0.1147  0.6808 -0.1605
12358SOL    HW141921   4.085   1.594   0.802 -0.1751 -0.3242  0.4231
12358SOL    HW241922   4.178   1.501   0.726  0.0171  0.8236 -0.7762
12359SOL     OW41923   5.012   2.022   1.665  0.2208  0.0501  0.2349
12359SOL    HW141924   5.077   1.979   1.721  0.0235 -1.8426 -0.8991
12359SOL    HW241925   5.063   2.078   1.607  0.4575  1.7656  1.9852
12360SOL     OW41926   3.404   9.731   9.264  0.5585  0.7198  0.4239
12360SOL    HW141927   3.381   9.822   9.250  2.3316  1.5027  2.0056
12360SOL    HW241928   3.345   9.701   9.334 -2.1735 -0.4177 -2.1776
12361SOL     OW41929   3.531   3.624   0.210  0.4911  0.1454 -0.4210
12361SOL    HW141930   3.461   3.565   0.237  0.5657 -0.1993 -0.9693
12361SOL    HW241931   3.525   3.698   0.271 -1.1406  0.7166 -1.2292
12362SOL     OW41932   5.248   3.178   9.814  0.3428  0.5143  0.5734
12362SOL    HW141933   5.214   3.120   9.882  3.1401 -3.8035 -1.2738
12362SOL    HW241934   5.338   3.195   9.842  0.4348  1.6316 -0.3591
12363SOL     OW41935   2.450   4.174   9.636 -0.5819 -0.0374  0.0878
12363SOL    HW141936   2.417   4.226   9.709  0.8134 -0.9886  1.4438
12363SOL    HW241937   2.493   4.238   9.579 -0.6313  0.5620  0.7088
12364SOL     OW41938   4.269   2.137   0.658 -0.2499 -0.3401 -0.4923
12364SOL    HW141939   4.298   2.153   0.568  4.2801  0.5280  0.8580
12364SOL    HW241940   4.292   2.045   0.673 -2.3165 -0.9200 -0.5117
12365SOL     OW41941   5.646   1.036   3.529 -0.1449  0.4741 -0.1208
12365SOL    HW141942   5.655   1.116   3.477 -0.2676 -0.5847 -1.8516
12365SOL    HW241943   5.561   1.000   3.502  0.4551 -0.8580 -0.3074
12366SOL     OW41944   4.296   2.884   9.507  0.1817  0.1189  0.1161
12366SOL    HW141945   4.211   2.913   9.539 -0.3766 -0.8991 -0.3745
12366SOL    HW241946   4.358   2.948   9.540 -0.8113  1.0247  0.2639
12367SOL     OW41947   4.912   4.799   8.358  0.5422 -0.2107 -0.5520
12367SOL    HW141948   4.854   4.751   8.418  0.2332  0.1340 -0.5751
12367SOL    HW241949   4.975   4.842   8.416 -0.5829  1.2447 -0.3610
12368SOL     OW41950   4.948   2.344   1.495 -0.7102  0.4030 -0.0362
12368SOL    HW141951   4.884   2.277   1.473  0.7088 -1.7580  1.9727
12368SOL    HW241952   5.028   2.296   1.516  0.7736  2.8101  0.2942
12369SOL     OW41953   3.590   1.469   1.165  0.1760  0.1021 -0.1883
12369SOL    HW141954   3.610   1.426   1.248 -1.0919 -0.2922 -0.0716
12369SOL    HW241955   3.666   1.448   1.109 -0.7951 -3.2636 -0.4787
12370SOL     OW41956   2.622   1.898   0.137 -0.3790  0.4427 -0.5295
12370SOL    HW141957   2.703   1.926   0.096  0.4462 -0.4835  0.4200
12370SOL    HW241958   2.584   1.978   0.173  1.1456  0.6201  0.7771
12371SOL     OW41959   1.622   4.668   1.345  0.0260 -0.1355  0.5289
12371SOL    HW141960   1.535   4.677   1.382  0.2270 -2.2640  1.7149
12371SOL    HW241961   1.608   4.638   1.255 -0.4800 -0.5008  0.7264
12372SOL     OW41962   5.660   2.523   0.253 -0.4271  0.5664  0.6122
12372SOL    HW141963   5.599   2.539   0.181 -0.4164  0.0296  0.4766
12372SOL    HW241964   5.611   2.547   0.331 -0.5772  0.7765  0.4558
12373SOL     OW41965   4.311   1.865   0.708 -0.7617  0.0167 -0.0045
12373SOL    HW141966   4.401   1.842   0.687 -0.0695  2.6996 -0.3340
12373SOL    HW241967   4.284   1.800   0.773  0.7241 -1.9861 -1.2906
12374SOL     OW41968   4.296   3.115   8.641  0.3498  0.4612  0.1457
12374SOL    HW141969   4.322   3.052   8.709  0.1864  0.7649  0.4903
12374SOL    HW241970   4.378   3.136   8.596  0.2308 -0.9195 -0.7644
12375SOL     OW41971   5.990   1.720   9.715  0.1124  0.0542  0.5132
12375SOL    HW141972   6.041   1.748   9.638 -0.1837  0.1182  0.3375
12375SOL    HW241973   6.021   1.632   9.734  0.0111 -0.0571  0.1655
12376SOL     OW41974   5.034   3.353   9.819  0.3719  0.0694 -0.2933
12376SOL    HW141975   5.073   3.275   9.779  1.1557  0.8949 -1.1802
12376SOL    HW241976   4.940   3.346   9.799  0.6444  0.1154 -1.7164
12377SOL     OW41977   5.660   1.246   9.129  0.5499 -0.2506  0.3938
12377SOL    HW141978   5.575   1.216   9.097 -0.0108  1.2290  0.4025
12377SOL    HW241979   5.652   1.245   9.224  0.3522  0.3559  0.3893
12378SOL     OW41980   2.413   3.406   2.351  0.1237 -0.1351 -0.0768
12378SOL    HW141981   2.443   3.320   2.381  1.2300  0.3090  0.1521
12378SOL    HW241982   2.366   3.443   2.427  0.6597 -0.0696  0.2285
12379SOL     OW41983   4.906   2.698   0.226 -0.0412 -0.3697  0.2811
12379SOL    HW141984   4.811   2.694   0.220 -0.0325 -1.7915  0.7419
12379SOL    HW241985   4.932   2.757   0.154 -1.3412  1.5964  1.3399
12380SOL     OW41986   6.899   3.705   2.316  0.1978  0.2793 -0.4374
12380SOL    HW141987   6.940   3.681   2.233  0.8949  0.1995 -0.0778
12380SOL    HW241988   6.935   3.791   2.337  1.1699 -0.3392  0.5089
12381SOL     OW41989   4.120   3.770   9.139 -0.2233 -0.7926  0.1644
12381SOL    HW141990   4.059   3.829   9.182  1.3858  1.9728 -1.0663
12381SOL    HW241991   4.202   3.782   9.187  0.7874  0.0126 -1.6695
12382SOL     OW41992   7.978   3.110   0.245  0.0458 -0.1374  0.0507
12382SOL    HW141993   7.927   3.128   0.166  0.1184  1.6465  0.3745
12382SOL    HW241994   7.919   3.130   0.317  0.2168 -1.0645  0.4721
12383SOL     OW41995   5.571   2.100   0.186 -0.4877  0.1367 -0.2759
12383SOL    HW141996   5.605   2.054   0.110  0.6136  3.1904 -1.8001
12383SOL    HW241997   5.513   2.167   0.150 -1.5138  0.4277  1.7428
12384SOL     OW41998   2.512   1.279   2.696 -0.2185  0.3398 -0.2658
12384SOL    HW141999   2.545   1.259   2.784 -0.0749  1.8295  0.0430
12384SOL    HW242000   2.418   1.294   2.708 -0.6197 -1.5480 -0.7497
12385SOL     OW42001   5.577   4.443   9.751  0.0757 -0.5277 -0.0725
12385SOL    HW142002   5.484   4.461   9.756  0.2652  0.6586 -0.3556
12385SOL    HW242003   5.618   4.530   9.748  1.2479 -1.0060  1.0851
12386SOL     OW42004   2.669   1.638   0.172  0.3363 -0.4607 -0.1159
12386SOL    HW142005   2.654   1.732   0.160  0.1034 -0.5256 -0.3446
12386SOL    HW242006   2.618   1.615   0.250  1.1530 -0.2121  0.5099
12387SOL     OW42007   4.966   2.449   7.897  0.6214 -0.7294 -0.0872
12387SOL    HW142008   4.964   2.407   7.812  0.6538 -0.5834 -0.1610
12387SOL    HW242009   4.888   2.505   7.898  0.3802 -1.0652  0.1508
12388SOL     OW42010   3.967   4.085   0.450 -0.6942 -0.0886  0.2713
12388SOL    HW142011   3.997   4.002   0.412  0.0552  0.6704 -0.8286
12388SOL    HW242012   3.882   4.063   0.488 -1.1039 -1.0839 -1.1171
12389SOL     OW42013   5.190   2.386   1.786 -0.5481  0.4711 -0.0416
12389SOL    HW142014   5.144   2.439   1.721 -0.6257  1.3818  0.7330
12389SOL    HW242015   5.263   2.441   1.815  0.2824 -0.4547 -0.3293
12390SOL     OW42016   6.308   2.859   0.834  0.0532  0.5873 -1.3914
12390SOL    HW142017   6.231   2.823   0.791 -1.1157  0.7897  0.4476
12390SOL    HW242018   6.372   2.788   0.833 -1.8960 -1.3880  1.3993
12391SOL     OW42019   3.704   4.013   2.479  0.1893 -0.6295  0.4638
12391SOL    HW142020   3.700   4.088   2.539 -0.8306  0.0358 -0.4044
12391SOL    HW242021   3.783   4.029   2.427 -0.9654  0.8094 -0.9147
12392SOL     OW42022   4.308   2.432   0.434  0.2372  0.4823 -0.3253
12392SOL    HW142023   4.297   2.339   0.415 -1.5474  0.7463 -0.7388
12392SOL    HW242024   4.304   2.475   0.349  1.3891  0.9415 -0.1724
12393SOL     OW42025   4.367   2.485   8.220 -0.2255  0.4452 -0.2142
12393SOL    HW142026   4.404   2.569   8.247  0.0109 -0.0961  1.2644
12393SOL    HW242027   4.293   2.507   8.164 -0.1044  1.6356  0.0753
12394SOL     OW42028   2.355   3.188   1.526  0.2053 -0.3668 -0.1646
12394SOL    HW142029   2.389   3.100   1.543 -1.2708 -0.9500 -0.0475
12394SOL    HW242030   2.402   3.245   1.586  1.0268 -1.1118 -0.0903
12395SOL     OW42031   2.626   4.597   3.960  1.0044 -0.6965  0.1816
12395SOL    HW142032   2.583   4.626   3.880  0.3256 -0.2129  0.7121
12395SOL    HW242033   2.716   4.629   3.952  0.9686 -0.7478 -0.4302
12396SOL     OW42034   5.389   2.252   7.698 -0.0219  0.2328 -0.0172
12396SOL    HW142035   5.311   2.274   7.750  0.6335  0.3918  0.9121
12396SOL    HW242036   5.444   2.329   7.704  0.3281  0.0171 -0.4554
12397SOL     OW42037   6.324   2.599   1.368  0.5033  0.1550  0.2341
12397SOL    HW142038   6.280   2.580   1.285 -1.4621 -0.9754  1.4713
12397SOL    HW242039   6.385   2.526   1.380 -0.5288 -0.6628  0.6336
12398SOL     OW42040   4.552   1.144   1.388  0.1294  0.0781 -1.1607
12398SOL    HW142041   4.556   1.111   1.298  0.0196  1.1082 -1.5576
12398SOL    HW242042   4.643   1.169   1.407  0.3430 -1.0798 -0.6109
12399SOL     OW42043   4.695   3.857   1.721  0.2939  0.3961  0.2991
12399SOL    HW142044   4.690   3.777   1.668 -2.3052  1.2754 -0.9520
12399SOL    HW242045   4.605   3.889   1.724  1.0653  2.6464  1.8015
12400SOL     OW42046   5.918   2.230   9.770 -0.4879 -0.0738 -0.1043
12400SOL    HW142047   5.978   2.292   9.813 -0.1986 -0.0030 -0.6037
12400SOL    HW242048   5.975   2.174   9.718 -0.7862 -0.5345  0.0579
12401SOL     OW42049   3.441   6.407   0.408 -0.0324  0.0831  0.1972
12401SOL    HW142050   3.413   6.375   0.494 -0.0065  0.6480  0.4189
12401SOL    HW242051   3.361   6.444   0.370 -0.4684 -1.7257 -0.7617
12402SOL     OW42052   4.632   2.330   0.440  0.2568 -0.7907  0.3966
12402SOL    HW142053   4.625   2.236   0.453 -0.5469 -0.7459  0.3355
12402SOL    HW242054   4.612   2.343   0.347 -1.8358 -0.3693  0.8470
12403SOL     OW42055   6.140   0.970   0.295 -0.1542  0.4294 -0.7206
12403SOL    HW142056   6.127   0.879   0.319  0.3749  0.8341  1.2536
12403SOL    HW242057   6.066   1.017   0.333 -0.1753  0.8923 -1.3134
12404SOL     OW42058   5.411   3.443   8.948  0.0982  0.0850  0.6272
12404SOL    HW142059   5.361   3.523   8.968 -0.0960 -0.0808  0.8027
12404SOL    HW242060   5.378   3.414   8.863  1.0937  0.9262 -0.0798
12405SOL     OW42061   3.933   1.723   1.037  0.1472 -0.1533 -0.0954
12405SOL    HW142062   3.925   1.638   1.079  0.4324 -0.3413 -0.4152
12405SOL    HW242063   3.849   1.736   0.992  0.2106 -0.3987 -0.2882
12406SOL     OW42064   1.612   6.276   1.542 -0.3723  0.1629  0.3797
12406SOL    HW142065   1.602   6.212   1.613  1.6869 -0.7627 -0.1021
12406SOL    HW242066   1.628   6.223   1.465  0.8945  1.2466 -0.1273
12407SOL     OW42067   5.285   3.496   0.748  0.5635 -0.1058 -0.0838
12407SOL    HW142068   5.284   3.508   0.653 -1.1416  1.5705  0.0834
12407SOL    HW242069   5.229   3.420   0.764 -0.3761  0.5270 -0.3391
12408SOL     OW42070   4.753   3.499   1.938 -0.3892  0.1371  0.4860
12408SOL    HW142071   4.688   3.568   1.955  0.5534  0.6845  2.0275
12408SOL    HW242072   4.701   3.419   1.931 -1.2937  0.6564  1.0326
12409SOL     OW42073   6.402   2.999   1.948 -0.0058  0.1692 -0.5541
12409SOL    HW142074   6.367   3.015   1.860 -0.4450 -1.0216 -0.6216
12409SOL    HW242075   6.496   2.992   1.935  0.1159  1.6693 -0.6496
12410SOL     OW42076   3.922   2.940   1.725 -0.1155 -0.1802 -0.2743
12410SOL    HW142077   3.841   2.990   1.740  0.1732  0.1584  0.1719
12410SOL    HW242078   3.988   2.986   1.775  0.5049 -0.0748 -1.1694
12411SOL     OW42079   5.760   2.899   0.174 -0.6220  0.2772  0.4127
12411SOL    HW142080   5.716   2.936   0.098 -0.0452  0.7312  0.2857
12411SOL    HW242081   5.814   2.828   0.138  0.6335  1.3059  0.1836
12412SOL     OW42082   2.996   1.736   3.106 -0.1784  0.2868 -0.1544
12412SOL    HW142083   3.079   1.746   3.060  0.9368 -0.4721  1.5719
12412SOL    HW242084   2.968   1.646   3.085 -0.2689  0.3402 -0.2646
12413SOL     OW42085   5.900   5.062   3.362 -0.2946  0.4651  0.3473
12413SOL    HW142086   5.952   5.135   3.328 -0.0038  0.7013  1.2517
12413SOL    HW242087   5.854   5.027   3.286  0.7193  0.6434 -0.3770
12414SOL     OW42088   2.673   1.950   8.778 -0.1991  0.5358  0.4334
12414SOL    HW142089   2.609   1.900   8.829  0.2763 -0.5071  0.0421
12414SOL    HW242090   2.735   1.982   8.843 -0.1494  0.0509  0.6357
12415SOL     OW42091   5.414   4.184   3.101  0.5428 -0.3658  0.0044
12415SOL    HW142092   5.332   4.167   3.148  0.1320  0.2928 -0.4520
12415SOL    HW242093   5.478   4.127   3.143  0.0435 -0.2560  0.9324
12416SOL     OW42094   4.488   3.252   9.410 -0.1307  0.4749  0.0029
12416SOL    HW142095   4.480   3.254   9.314 -1.3119 -0.7125  0.0436
12416SOL    HW242096   4.449   3.334   9.439  0.8909  1.1839 -0.5430
12417SOL     OW42097   3.609   0.488   0.562  0.0097 -0.1303 -0.5265
12417SOL    HW142098   3.546   0.514   0.495  1.0467  1.0640 -1.0799
12417SOL    HW242099   3.640   0.571   0.599  2.4946 -0.5449 -1.4578
12418SOL     OW42100   4.569   0.807   1.445 -1.1596 -0.9941  0.3780
12418SOL    HW142101   4.650   0.857   1.435 -1.2460 -0.7802  0.7399
12418SOL    HW242102   4.578   0.735   1.382 -1.0534 -0.5067 -0.1753
12419SOL     OW42103   5.178   5.817   3.342  0.2078  0.3582  0.0406
12419SOL    HW142104   5.231   5.852   3.414 -0.4099 -0.9737  1.1912
12419SOL    HW242105   5.226   5.741   3.311  0.1539  0.5575 -0.5621
12420SOL     OW42106   4.351   3.604   0.531  0.1216 -0.6584  0.3681
12420SOL    HW142107   4.296   3.659   0.587 -0.3861 -0.7742 -0.0166
12420SOL    HW242108   4.376   3.661   0.458 -2.4737 -1.6024 -1.3808
12421SOL     OW42109   4.248   3.322   7.107  0.0606 -0.1465 -0.3118
12421SOL    HW142110   4.292   3.299   7.189 -0.8170 -0.2761  0.1427
12421SOL    HW242111   4.310   3.377   7.060  0.5790 -0.0767  0.4460
12422SOL     OW42112   5.866   1.735   1.495 -0.2305  0.2795 -0.3651
12422SOL    HW142113   5.869   1.829   1.478 -0.1644  0.2942 -0.2711
12422SOL    HW242114   5.844   1.696   1.411 -1.7355  0.4855 -0.1065
12423SOL     OW42115   4.583   3.115   8.636 -0.0331 -0.3273  0.5432
12423SOL    HW142116   4.623   3.033   8.666  0.0137 -0.5593 -0.1439
12423SOL    HW242117   4.654   3.179   8.640  0.4417 -0.7436 -0.7000
12424SOL     OW42118   3.570   3.556   9.517  1.0124 -0.4773 -0.2459
12424SOL    HW142119   3.568   3.528   9.608  0.2762  1.5304  0.4154
12424SOL    HW242120   3.518   3.490   9.471 -0.1516 -0.5702  1.1184
12425SOL     OW42121   3.305   4.349   1.840  0.6808 -0.7196 -0.1153
12425SOL    HW142122   3.279   4.261   1.813  0.7843 -1.4949  2.1277
12425SOL    HW242123   3.259   4.364   1.922  1.0388  1.1458 -0.2115
12426SOL     OW42124   5.399   2.202   9.643  0.2792  0.9729 -0.0557
12426SOL    HW142125   5.304   2.199   9.639  0.2259  1.6906 -4.7499
12426SOL    HW242126   5.425   2.115   9.674 -1.8195  0.9025  1.6781
12427SOL     OW42127   3.038   2.886   9.848  0.3290 -0.1861  0.3652
12427SOL    HW142128   3.020   2.976   9.819 -0.0026  0.6908  3.0285
12427SOL    HW242129   2.972   2.833   9.803  0.1629  0.9635 -0.8190
12428SOL     OW42130   5.406   3.612   0.289  0.0118 -0.2562  0.4745
12428SOL    HW142131   5.378   3.552   0.220  1.7670 -2.0915  1.2419
12428SOL    HW242132   5.368   3.577   0.369  2.0815 -1.2017  1.1241
12429SOL     OW42133   2.967   1.010   0.731  0.2965  0.1057  0.3996
12429SOL    HW142134   3.041   1.067   0.708  1.0765 -0.7417  0.7263
12429SOL    HW242135   2.984   0.985   0.822 -1.7631  1.9360  1.3484
12430SOL     OW42136   3.919   4.185   1.934 -0.1707  0.3869 -0.0032
12430SOL    HW142137   3.872   4.151   1.858 -1.7903 -0.2760  1.2416
12430SOL    HW242138   3.876   4.268   1.954 -0.3140  0.1496  0.6890
12431SOL     OW42139   4.771   2.632   0.835  0.6021  0.2803  0.3836
12431SOL    HW142140   4.680   2.641   0.808  0.0913 -3.6052  0.1953
12431SOL    HW242141   4.814   2.711   0.802 -2.2051  1.0548 -1.8025
12432SOL     OW42142   4.308   2.313   7.932  0.6934 -0.4025 -0.0972
12432SOL    HW142143   4.310   2.325   7.837  0.9984 -3.1045 -0.4996
12432SOL    HW242144   4.218   2.286   7.952 -0.1634  2.6952  0.8561
12433SOL     OW42145   4.278   3.437   1.035 -0.2073  1.0117  0.3182
12433SOL    HW142146   4.324   3.458   0.954 -2.2471  0.1141 -1.1937
12433SOL    HW242147   4.299   3.345   1.052 -1.3526  0.5946 -0.3843
12434SOL     OW42148   7.301   2.516   8.470 -0.4237  0.5379 -0.1054
12434SOL    HW142149   7.359   2.440   8.476 -1.3017 -0.0451  2.0124
12434SOL    HW242150   7.214   2.481   8.491 -1.0392  1.9186 -0.2466
12435SOL     OW42151   4.933   2.160   0.778 -0.2578  0.6094 -0.1703
12435SOL    HW142152   4.898   2.120   0.698 -0.8595  0.7096  0.0413
12435SOL    HW242153   5.001   2.099   0.806 -1.6883 -0.7152  0.5855
12436SOL     OW42154   5.651   1.839   1.941 -0.1074 -0.5161 -0.1152
12436SOL    HW142155   5.645   1.868   1.851 -1.2650 -0.4410 -0.0231
12436SOL    HW242156   5.694   1.753   1.936 -1.9501 -1.4317 -0.9473
12437SOL     OW42157   5.768   4.482   2.741  0.0430  0.9684 -0.2316
12437SOL    HW142158   5.674   4.466   2.746  0.2723 -0.5424 -0.4513
12437SOL    HW242159   5.796   4.441   2.659  1.2280 -0.4779  0.8391
12438SOL     OW42160   3.552   2.706   1.493  0.3039  0.1731  0.3437
12438SOL    HW142161   3.569   2.668   1.407  0.1077  0.2678  0.2626
12438SOL    HW242162   3.634   2.748   1.517 -0.4432  2.6424 -1.0618
12439SOL     OW42163   3.012   3.395   8.949 -0.9880  0.0614  0.0873
12439SOL    HW142164   3.064   3.454   8.893  0.5323 -1.2076  0.0958
12439SOL    HW242165   3.077   3.336   8.988 -2.1408  0.1416  2.2784
12440SOL     OW42166   1.942   2.194   3.001  0.1054  0.4613  0.4811
12440SOL    HW142167   2.008   2.209   2.934 -0.9615  0.6588 -0.5550
12440SOL    HW242168   1.867   2.248   2.975 -0.8147 -0.4497  1.1151
12441SOL     OW42169   2.562   2.906   1.560 -0.5016  0.0611  0.2115
12441SOL    HW142170   2.651   2.875   1.545  0.0410  2.6769 -3.1463
12441SOL    HW242171   2.565   2.949   1.646  0.9196 -1.4208  0.9484
12442SOL     OW42172   3.369   2.826   2.864 -0.7313  0.6988 -0.1578
12442SOL    HW142173   3.442   2.840   2.803 -1.0369  3.3058 -0.0535
12442SOL    HW242174   3.382   2.737   2.897  1.3790  0.4442 -1.4653
12443SOL     OW42175   4.588   2.373   0.161 -0.3333  0.1201 -0.5076
12443SOL    HW142176   4.507   2.324   0.172 -0.3807  0.4361  0.7038
12443SOL    HW242177   4.655   2.306   0.152 -0.2696 -0.2661  2.0528
12444SOL     OW42178   6.685   2.652   1.694  0.2224  0.5916 -0.4680
12444SOL    HW142179   6.685   2.576   1.753  0.7742 -0.0300 -1.2585
12444SOL    HW242180   6.592   2.675   1.685  0.0203 -0.2127 -0.4986
12445SOL     OW42181   5.941   2.522   2.257 -0.3609  0.5255 -0.2119
12445SOL    HW142182   6.026   2.481   2.275 -0.8319 -0.5441 -0.3643
12445SOL    HW242183   5.887   2.451   2.222 -0.7670  1.5914 -1.8573
12446SOL     OW42184   3.734   4.328   9.351  0.1026 -0.1209 -0.1326
12446SOL    HW142185   3.734   4.250   9.297  1.1843  0.2158 -0.6471
12446SOL    HW242186   3.646   4.331   9.389 -0.4302 -0.7765 -1.2684
12447SOL     OW42187   5.093   1.788   9.041  0.4904 -0.1081 -0.2898
12447SOL    HW142188   5.145   1.768   8.963  0.5144 -2.4658  0.2395
12447SOL    HW242189   5.014   1.734   9.031 -0.4448  1.0854  0.3793
12448SOL     OW42190   4.734   2.246   9.457  0.2688 -0.5985  0.3287
12448SOL    HW142191   4.803   2.308   9.484 -0.3413  0.2715 -0.0599
12448SOL    HW242192   4.782   2.173   9.419  0.9926  1.0820 -2.3052
12449SOL     OW42193   5.765   3.426   1.673  0.6083  0.0229  0.5341
12449SOL    HW142194   5.798   3.394   1.589  0.1530 -1.7971  1.0002
12449SOL    HW242195   5.829   3.492   1.699  3.1692 -2.2758  0.6678
12450SOL     OW42196   6.567   8.481   0.452 -0.1133 -0.4654  0.0113
12450SOL    HW142197   6.542   8.499   0.542  1.7148 -0.6682  0.6106
12450SOL    HW242198   6.484   8.474   0.404 -1.1074 -0.1968  1.6279
12451SOL     OW42199   3.403   1.882   9.676  0.0770 -0.2196  0.0756
12451SOL    HW142200   3.308   1.890   9.665 -0.1494 -0.1963  1.7360
12451SOL    HW242201   3.413   1.810   9.738  1.1509 -0.2638 -0.1406
12452SOL     OW42202   4.188   7.485   2.163  0.9214  0.5061  0.7164
12452SOL    HW142203   4.179   7.485   2.258  0.9667  1.4698  0.7332
12452SOL    HW242204   4.100   7.505   2.131  0.5799 -1.2303  0.4952
12453SOL     OW42205   4.837   0.573   0.996 -0.1502 -0.4511  0.3889
12453SOL    HW142206   4.806   0.516   0.925  2.4003 -0.1248 -1.0975
12453SOL    HW242207   4.904   0.521   1.040 -1.6104 -0.6097  2.6272
12454SOL     OW42208   4.027   2.937   0.741 -0.1366  0.4054  0.4380
12454SOL    HW142209   3.971   2.987   0.682 -0.4596 -0.2075  0.2096
12454SOL    HW242210   4.089   2.893   0.683 -0.8616 -0.7148  0.4675
12455SOL     OW42211   4.041   0.870   1.765  0.1354 -0.3207 -0.2539
12455SOL    HW142212   4.050   0.854   1.859  0.6217 -0.1268 -0.2659
12455SOL    HW242213   4.030   0.965   1.758  1.5306 -0.1509 -0.4884
12456SOL     OW42214   3.542   2.324   1.062 -0.0604 -0.3476  0.4316
12456SOL    HW142215   3.505   2.280   0.985  1.8586 -3.0737  0.9071
12456SOL    HW242216   3.622   2.366   1.028  0.7628 -1.5143  0.8802
12457SOL     OW42217   5.510   2.191   8.726 -0.2828  0.1875  0.2001
12457SOL    HW142218   5.427   2.239   8.724 -0.8938 -0.8346 -1.3545
12457SOL    HW242219   5.560   2.226   8.652  0.4960  0.4354  0.8200
12458SOL     OW42220   5.193   0.654   6.811  0.0016  0.1659 -0.1403
12458SOL    HW142221   5.248   0.630   6.886  0.5498 -0.6430 -0.7838
12458SOL    HW242222   5.142   0.729   6.842 -1.3275 -1.4257  1.7694
12459SOL     OW42223   4.556   2.051   8.425  0.4790  0.6813  0.1152
12459SOL    HW142224   4.476   2.017   8.466  0.3922 -0.0831 -0.6791
12459SOL    HW242225   4.624   1.990   8.452  1.1190  2.1325  2.0105
12460SOL     OW42226   4.973   2.877   0.056  0.1226  0.1135  0.4317
12460SOL    HW142227   4.893   2.926   0.036 -1.1873 -1.4373  1.6138
12460SOL    HW242228   5.034   2.942   0.090 -0.6010  1.3424 -0.5637
12461SOL     OW42229   3.738   1.816   1.560 -0.4218 -0.0599 -0.4037
12461SOL    HW142230   3.739   1.733   1.608  1.0102  0.0692 -0.1697
12461SOL    HW242231   3.766   1.794   1.472 -0.3173  0.1170 -0.4163
12462SOL     OW42232   2.611   3.042   1.792  0.2317  0.0546 -0.5612
12462SOL    HW142233   2.590   2.965   1.845  2.2516  0.5576  1.1341
12462SOL    HW242234   2.531   3.095   1.792 -0.8892 -1.5587 -0.9782
12463SOL     OW42235   3.542   0.654   1.409  0.1941 -0.1362 -0.4381
12463SOL    HW142236   3.504   0.585   1.462  1.3979 -1.8368 -1.6707
12463SOL    HW242237   3.490   0.732   1.429 -0.8001 -1.2246  1.4731
12464SOL     OW42238   7.074   0.779   0.110 -0.6131 -0.2136 -0.0226
12464SOL    HW142239   7.161   0.747   0.132 -0.5018 -2.1302 -2.7141
12464SOL    HW242240   7.078   0.795   0.016 -2.7380  1.2383  0.0661
12465SOL     OW42241   4.213   1.457   9.799  0.1725 -0.3727  0.9460
12465SOL    HW142242   4.263   1.455   9.881  0.2403 -0.7647  0.8988
12465SOL    HW242243   4.196   1.365   9.780  0.4805 -0.3038  0.3201
12466SOL     OW42244   5.830   3.412   3.596  0.5204  0.5927 -0.2887
12466SOL    HW142245   5.826   3.493   3.647 -3.1408  0.3141  0.1238
12466SOL    HW242246   5.803   3.439   3.508 -0.0626 -0.0699 -0.3161
12467SOL     OW42247   6.866   4.252   2.125 -0.2136 -0.0055 -0.0313
12467SOL    HW142248   6.954   4.263   2.089 -0.0891 -0.5694  0.0832
12467SOL    HW242249   6.879   4.239   2.219 -0.5477  1.5768  0.2581
12468SOL     OW42250   3.558   2.670   0.723 -0.0306 -0.0877 -0.2851
12468SOL    HW142251   3.498   2.659   0.797  0.2002 -0.6926 -0.1804
12468SOL    HW242252   3.582   2.581   0.698  1.5472  0.1364  0.2764
12469SOL     OW42253   4.886   3.591   8.954  0.2192  0.1892  0.4035
12469SOL    HW142254   4.867   3.626   9.041  2.2747  1.7446  0.3057
12469SOL    HW242255   4.899   3.497   8.968 -0.9614  0.1650  1.4949
12470SOL     OW42256   4.905   4.141   1.056  0.1454  0.2817  0.0390
12470SOL    HW142257   4.939   4.215   1.006  1.3282 -0.4229 -0.2266
12470SOL    HW242258   4.915   4.168   1.148 -0.5240  0.9160 -0.0639
12471SOL     OW42259   4.912   1.121   0.932  0.1497 -0.4347 -0.4716
12471SOL    HW142260   4.847   1.053   0.918 -0.3195  0.3845 -2.7205
12471SOL    HW242261   4.985   1.097   0.874  1.0675 -0.3387  0.6099
12472SOL     OW42262   2.914   2.013   2.940  0.3651 -0.5483 -0.0184
12472SOL    HW142263   2.970   1.940   2.917  0.7770 -0.2402  0.0073
12472SOL    HW242264   2.860   2.027   2.862  1.1871 -0.0359 -0.5102
12473SOL     OW42265   4.783   1.588   1.716 -0.5049 -1.2864 -0.2510
12473SOL    HW142266   4.731   1.647   1.662 -0.3972 -0.2869  0.7167
12473SOL    HW242267   4.871   1.594   1.680 -0.7854 -2.0425 -1.1122
12474SOL     OW42268   5.221   2.679   5.013 -0.3544  0.0607  0.3512
12474SOL    HW142269   5.189   2.659   5.101 -0.1654 -0.2511  0.3483
12474SOL    HW242270   5.235   2.774   5.013  0.1243 -0.0078  0.8124
12475SOL     OW42271   6.152   1.448   3.253 -0.0651 -0.0944  0.0231
12475SOL    HW142272   6.137   1.356   3.230 -0.2379  0.2854 -1.4890
12475SOL    HW242273   6.068   1.491   3.238  0.4280  0.5974 -0.8605
12476SOL     OW42274   2.925   3.436   1.920 -0.0540  0.2182  0.9269
12476SOL    HW142275   2.837   3.473   1.908 -0.7764 -1.2487  1.4594
12476SOL    HW242276   2.916   3.344   1.896  1.4379  0.1282  0.6484
12477SOL     OW42277   4.235   5.094   0.386 -0.4099 -0.3683  0.8237
12477SOL    HW142278   4.298   5.125   0.451  0.1003 -0.4216  0.3644
12477SOL    HW242279   4.239   5.159   0.316 -1.9062  0.3919  1.4065
12478SOL     OW42280   3.824   2.687   1.789 -0.1498 -0.0117 -0.0758
12478SOL    HW142281   3.826   2.677   1.884  1.1780  0.7430 -0.0060
12478SOL    HW242282   3.855   2.777   1.773  0.6649 -0.4707 -1.2569
12479SOL     OW42283   4.875   3.650   3.683  0.5315 -0.6027  0.2606
12479SOL    HW142284   4.905   3.567   3.647 -0.0757  0.5237 -3.2572
12479SOL    HW242285   4.955   3.698   3.704  0.9416 -1.1489 -0.0512
12480SOL     OW42286   3.861   2.791   0.942 -0.2271 -0.1047  0.3927
12480SOL    HW142287   3.925   2.817   0.876 -0.5672  0.5189  0.3047
12480SOL    HW242288   3.791   2.856   0.936 -1.9555 -1.9443 -1.0285
12481SOL     OW42289   3.758   2.712   3.323  0.4005 -0.0743  0.3170
12481SOL    HW142290   3.825   2.779   3.313  1.3021 -0.8193  1.1037
12481SOL    HW242291   3.747   2.675   3.235 -0.1900  1.1474 -0.1481
12482SOL     OW42292   3.006   2.311   1.263 -0.1894 -0.3743  0.2209
12482SOL    HW142293   3.068   2.303   1.336  0.8691 -2.0554 -0.7804
12482SOL    HW242294   2.973   2.222   1.250 -0.4563 -0.0793 -1.2573
12483SOL     OW42295   4.582   2.370   9.203 -0.2103  0.0685 -0.2526
12483SOL    HW142296   4.632   2.447   9.176 -1.0051  1.1543  1.2009
12483SOL    HW242297   4.494   2.403   9.223  0.1219 -0.6207  3.0200
12484SOL     OW42298   3.225   2.023   3.634 -0.0390  0.4360 -0.4137
12484SOL    HW142299   3.272   2.080   3.573  2.3592 -0.4505  0.4939
12484SOL    HW242300   3.291   1.997   3.698 -1.5862 -1.5704  0.4710
12485SOL     OW42301   3.782   1.412   2.257 -0.3983  0.4434 -0.1063
12485SOL    HW142302   3.860   1.382   2.211  0.3533  0.3162  1.1831
12485SOL    HW242303   3.719   1.342   2.247  0.5749 -0.6460  1.0157
12486SOL     OW42304   4.753   1.282   0.714 -0.3450 -0.1462  0.3985
12486SOL    HW142305   4.755   1.304   0.807 -0.5845 -0.5784  0.5101
12486SOL    HW242306   4.662   1.295   0.688 -0.4140 -0.6446  0.3820
12487SOL     OW42307   1.658   2.377   1.743 -0.0963 -0.5191  0.5544
12487SOL    HW142308   1.648   2.414   1.830 -0.5448  1.0190 -0.1297
12487SOL    HW242309   1.577   2.328   1.727 -0.2614 -0.3142  0.7716
12488SOL     OW42310   3.902   3.338   3.066 -0.3158  0.1773 -0.4025
12488SOL    HW142311   3.829   3.277   3.052 -0.3147 -0.0711  0.5989
12488SOL    HW242312   3.963   3.290   3.122 -0.3259  1.1215  0.4358
12489SOL     OW42313   5.932   3.591   9.486 -0.0093  0.3837 -0.1294
12489SOL    HW142314   5.887   3.507   9.474 -0.1381  0.3015  0.8029
12489SOL    HW242315   5.926   3.634   9.401  0.1699 -0.6061 -0.6662
12490SOL     OW42316   7.642   2.239   8.129 -0.5677  0.4083 -0.1216
12490SOL    HW142317   7.729   2.244   8.089 -0.6057 -0.4622 -0.3444
12490SOL    HW242318   7.591   2.186   8.067 -1.6066  1.8953 -0.5929
12491SOL     OW42319   5.610   2.801   3.596 -0.1580  0.1790 -0.4286
12491SOL    HW142320   5.678   2.836   3.539 -1.6519  0.2959 -2.2658
12491SOL    HW242321   5.628   2.707   3.601  0.8564  0.4000  0.1746
12492SOL     OW42322   5.717   2.298   7.816 -0.1469  0.1816 -0.1420
12492SOL    HW142323   5.700   2.215   7.862  1.3870 -0.3682 -0.5199
12492SOL    HW242324   5.762   2.272   7.736 -1.9657  1.2001 -1.5852
12493SOL     OW42325   2.303   2.860   1.578  0.3400 -0.0551  0.5846
12493SOL    HW142326   2.397   2.843   1.575  0.3362  0.0245 -0.0221
12493SOL    HW242327   2.265   2.796   1.517  0.2734  1.7145 -1.3056
12494SOL     OW42328   4.746   3.840   2.098  0.0189 -0.3659  0.0470
12494SOL    HW142329   4.652   3.844   2.080  0.1153 -2.1209 -1.0569
12494SOL    HW242330   4.754   3.781   2.173  0.1937  0.8484  1.0356
12495SOL     OW42331   4.205   0.774   0.393  0.5252  0.0018  0.0263
12495SOL    HW142332   4.217   0.788   0.299  1.2407  0.2330  0.1409
12495SOL    HW242333   4.132   0.713   0.399  0.1483  0.3657 -0.6587
12496SOL     OW42334   4.460   0.818   0.498  0.2372 -0.3446  0.3648
12496SOL    HW142335   4.381   0.793   0.449  0.1173  2.0034 -0.8209
12496SOL    HW242336   4.470   0.912   0.479  2.5950 -0.2976  1.5419
12497SOL     OW42337   3.913   3.217   9.502  0.3841 -0.1031  0.0285
12497SOL    HW142338   3.832   3.173   9.476  0.6912 -0.0103 -1.1358
12497SOL    HW242339   3.906   3.304   9.463  0.5605  0.2813  0.8511
12498SOL     OW42340   4.050   0.284   0.886 -0.1668  0.7188 -0.1005
12498SOL    HW142341   4.052   0.222   0.959  0.9420  0.7717 -0.0703
12498SOL    HW242342   4.089   0.364   0.921  0.1291  0.8330 -0.6714
12499SOL     OW42343   3.430   3.796   3.021  0.7340 -0.1572 -0.6170
12499SOL    HW142344   3.501   3.781   3.084 -0.9245  0.4918  1.5295
12499SOL    HW242345   3.424   3.715   2.972  1.2698 -1.1987  0.9645
12500SOL     OW42346   5.252   2.716   2.501 -0.2435 -0.0586  0.4363
12500SOL    HW142347   5.206   2.666   2.434 -0.6226  0.0798  0.5898
12500SOL    HW242348   5.306   2.651   2.546 -0.8893 -0.3833  0.7688
12501SOL     OW42349   4.613   3.044   1.701  0.6625  0.2695  0.1618
12501SOL    HW142350   4.672   3.061   1.775  0.2466  0.2691  0.5021
12501SOL    HW242351   4.666   3.063   1.623  0.8529  1.1186  0.4790
12502SOL     OW42352   4.943   4.336   1.721 -0.3993  0.5758  0.3829
12502SOL    HW142353   4.896   4.309   1.800 -1.7555 -1.0010 -0.8806
12502SOL    HW242354   4.875   4.355   1.657  0.6143 -0.9353 -1.2629
12503SOL     OW42355   5.769   1.446   0.407  0.0479 -0.0255  0.4742
12503SOL    HW142356   5.845   1.486   0.448  0.4815 -2.1641  1.9131
12503SOL    HW242357   5.792   1.440   0.314  0.4922  1.7318  0.4308
12504SOL     OW42358   2.837   2.871   0.302  0.1753  0.1149  0.2979
12504SOL    HW142359   2.853   2.875   0.208 -0.5285 -1.2889  0.0967
12504SOL    HW242360   2.750   2.833   0.310 -0.2215  1.2215  1.5109
12505SOL     OW42361   3.498   4.420   9.134  0.0055 -0.5920  0.1907
12505SOL    HW142362   3.417   4.469   9.150 -0.1118 -1.0042  0.9090
12505SOL    HW242363   3.516   4.376   9.217  0.9305 -0.5649  0.0116
12506SOL     OW42364   4.368   2.812   3.919  0.0361  0.5163  0.1531
12506SOL    HW142365   4.380   2.785   4.010 -1.3311 -1.1967 -0.1133
12506SOL    HW242366   4.456   2.807   3.881  0.5186  0.6481  1.2294
12507SOL     OW42367   5.660   1.078   1.087 -0.3585  0.0941  0.1486
12507SOL    HW142368   5.611   0.999   1.063 -0.3303  0.1094  0.0437
12507SOL    HW242369   5.671   1.070   1.182  0.9967 -0.8043 -0.0545
12508SOL     OW42370   5.810   4.374   0.836 -0.2370 -0.4091  0.3452
12508SOL    HW142371   5.798   4.448   0.776 -0.5246  0.3303  1.2945
12508SOL    HW242372   5.742   4.312   0.812  0.5269 -0.7572 -1.0186
12509SOL     OW42373   1.782   2.385   1.488 -0.0272 -0.2365  0.0031
12509SOL    HW142374   1.755   2.379   1.579 -0.2547 -0.1279 -0.0588
12509SOL    HW242375   1.776   2.295   1.456  0.1648 -0.2948  0.1260
12510SOL     OW42376   5.987   9.331   0.181  0.4362  0.3060 -0.2392
12510SOL    HW142377   5.959   9.299   0.267  0.2629 -0.9817 -0.7552
12510SOL    HW242378   6.064   9.384   0.200 -0.9204  1.9807  0.9477
12511SOL     OW42379   5.011   2.341   0.418  0.4376  0.6516 -0.3011
12511SOL    HW142380   4.946   2.354   0.487  0.8410 -0.3667  0.2882
12511SOL    HW242381   5.078   2.287   0.458  0.7216  0.1166 -1.4690
12512SOL     OW42382   5.024   2.205   8.546 -0.4533  0.3348  0.2463
12512SOL    HW142383   4.964   2.146   8.591 -0.0993 -0.6991 -0.5827
12512SOL    HW242384   5.023   2.286   8.597  0.1036 -0.8542  2.2317
12513SOL     OW42385   5.014   1.477   0.425 -0.7064  0.1002  0.2632
12513SOL    HW142386   5.026   1.569   0.449 -0.5073  0.7043 -1.8844
12513SOL    HW242387   4.929   1.476   0.380 -1.6822 -1.1939  2.0287
12514SOL     OW42388   2.493   1.368   8.956  0.1177  0.0839 -0.2431
12514SOL    HW142389   2.434   1.379   9.030  2.5119  0.1713  1.7532
12514SOL    HW242390   2.535   1.284   8.971  1.0567  0.3569 -1.2033
12515SOL     OW42391   2.650   5.437   0.933 -0.3186 -0.0249  0.0268
12515SOL    HW142392   2.615   5.421   0.846 -0.2312  1.1217 -0.2308
12515SOL    HW242393   2.681   5.351   0.963  0.8256 -0.2228 -1.5967
12516SOL     OW42394   4.828   1.342   1.063  0.4753 -0.3124  0.5643
12516SOL    HW142395   4.857   1.327   1.153  2.3830 -0.3416  0.0054
12516SOL    HW242396   4.858   1.264   1.016 -0.3538 -0.2227 -0.1317
12517SOL     OW42397   4.147   3.977   0.806 -0.2618  0.1162  0.4153
12517SOL    HW142398   4.159   4.058   0.856  0.6331  0.4885 -0.3569
12517SOL    HW242399   4.218   3.979   0.741 -0.1519 -1.3437  0.4554
12518SOL     OW42400   5.245   1.666   2.044 -0.0088 -0.7082  0.1791
12518SOL    HW142401   5.306   1.709   2.104  0.0470 -0.9476  0.2981
12518SOL    HW242402   5.297   1.646   1.967 -0.3697  0.6868 -0.4593
12519SOL     OW42403   2.206   9.265   9.502 -0.2905  0.0471 -0.2821
12519SOL    HW142404   2.160   9.267   9.418  1.4356  0.4051 -1.2735
12519SOL    HW242405   2.239   9.355   9.512 -1.1825  0.2312  1.2131
12520SOL     OW42406   5.419   3.067   7.540 -0.6996  0.8036  0.1196
12520SOL    HW142407   5.331   3.082   7.576 -0.3815 -0.0754  1.3287
12520SOL    HW242408   5.469   3.031   7.614  1.0665  2.5480 -0.1403
12521SOL     OW42409   4.218   4.592   1.088  0.3738  0.0160 -0.3781
12521SOL    HW142410   4.182   4.656   1.025 -0.4517  2.2168  2.1322
12521SOL    HW242411   4.156   4.593   1.161  3.1758  0.5781  2.2086
12522SOL     OW42412   6.682   4.789   9.200  0.1605  0.4129 -0.4418
12522SOL    HW142413   6.648   4.825   9.283 -2.7471  0.2903 -1.4712
12522SOL    HW242414   6.769   4.755   9.223 -0.5059  0.4191  2.5486
12523SOL     OW42415   5.020   1.351   0.653 -0.4900 -0.2225  0.2733
12523SOL    HW142416   4.933   1.319   0.678 -0.7693 -1.4820 -2.0535
12523SOL    HW242417   5.003   1.409   0.579  0.7495 -2.2839 -1.7404
12524SOL     OW42418   4.985   2.870   1.219  0.4270  0.1293  0.1789
12524SOL    HW142419   4.936   2.930   1.163 -1.0918 -1.2609 -0.0806
12524SOL    HW242420   4.982   2.910   1.306 -1.4330  0.0148  0.2179
12525SOL     OW42421   3.757   3.604   0.969 -0.1036 -0.6012 -0.0560
12525SOL    HW142422   3.748   3.573   0.879  0.0673  0.5958 -0.4914
12525SOL    HW242423   3.850   3.626   0.978 -0.4916  1.2902 -0.2764
12526SOL     OW42424   4.193   2.219   0.034 -0.3300  0.3050 -0.2326
12526SOL    HW142425   4.276   2.218   0.081  0.0785  0.2635 -0.9313
12526SOL    HW242426   4.199   2.295  -0.024 -0.8867  0.4508 -0.1092
12527SOL     OW42427   6.464   2.024   0.226  0.3616  0.3096  0.1155
12527SOL    HW142428   6.461   2.018   0.321  0.3432 -1.3926  0.0332
12527SOL    HW242429   6.540   1.973   0.200  0.9364  1.5311 -0.7626
12528SOL     OW42430   6.061   2.432   1.891  0.4464 -0.1037 -0.5112
12528SOL    HW142431   6.099   2.351   1.926 -0.5826 -0.2079  0.3946
12528SOL    HW242432   6.073   2.424   1.796  0.4397 -1.2856 -0.4276
12529SOL     OW42433   4.750   1.611   1.039 -0.0874  0.3973  0.3854
12529SOL    HW142434   4.762   1.517   1.029  0.4322  0.3404  1.3373
12529SOL    HW242435   4.668   1.620   1.088 -1.1686  0.5480 -1.3649
12530SOL     OW42436   5.259   4.587   8.837  0.6037  0.0778 -0.4724
12530SOL    HW142437   5.340   4.632   8.814  1.5500 -0.6367  1.2600
12530SOL    HW242438   5.287   4.503   8.874 -0.9354 -0.2827 -0.0318
12531SOL     OW42439   6.344   2.188   9.199  0.5812  0.0190 -0.0498
12531SOL    HW142440   6.401   2.209   9.125  0.6161 -0.4070 -0.1514
12531SOL    HW242441   6.370   2.247   9.269  1.0850 -0.1122 -0.1276
12532SOL     OW42442   5.208   4.224   7.973  0.0596  0.2198 -0.2562
12532SOL    HW142443   5.252   4.150   7.931  1.0690  0.6614 -0.0053
12532SOL    HW242444   5.131   4.239   7.918  0.0760 -0.7254 -0.5670
12533SOL     OW42445   5.524   2.558   8.315  0.5458  0.0258  0.1083
12533SOL    HW142446   5.497   2.604   8.235  0.9050  0.1709  0.0695
12533SOL    HW242447   5.489   2.469   8.304 -0.1134  0.2759  0.1669
12534SOL     OW42448   4.879   3.436   7.110 -0.2213  0.2258 -0.1311
12534SOL    HW142449   4.960   3.453   7.061  0.3977 -2.6401 -0.2481
12534SOL    HW242450   4.910   3.411   7.198 -1.1142  0.9472  0.4091
12535SOL     OW42451   5.312   1.789   0.622 -0.1580  0.2357  0.0314
12535SOL    HW142452   5.349   1.763   0.706 -2.4697 -0.5082  0.8979
12535SOL    HW242453   5.382   1.837   0.579  1.7022 -0.9131  1.6097
12536SOL     OW42454   2.633   2.926   0.659  0.0436  0.0428  0.3709
12536SOL    HW142455   2.708   2.976   0.627  0.4106 -0.1737  0.8774
12536SOL    HW242456   2.557   2.977   0.631  0.4092  0.8958  0.8988
12537SOL     OW42457   5.178   2.010   0.355 -1.1836 -0.9724 -0.7494
12537SOL    HW142458   5.155   2.045   0.269  0.9959  2.4616 -0.1414
12537SOL    HW242459   5.094   1.995   0.399 -2.3247  0.9688 -2.1358
12538SOL     OW42460   6.901   6.021   2.375  0.0278  0.6648  0.0755
12538SOL    HW142461   6.943   6.075   2.442  1.3496 -0.9168  0.5889
12538SOL    HW242462   6.966   6.014   2.305 -0.0718 -0.2911  0.0572
12539SOL     OW42463   4.624   5.456   2.417  0.6451 -0.2229 -0.4338
12539SOL    HW142464   4.691   5.493   2.474  1.1349 -0.3526 -0.9212
12539SOL    HW242465   4.672   5.400   2.356  0.0076 -1.0170 -0.2347
12540SOL     OW42466   4.503   0.281   0.429 -0.2571  0.5102 -0.1927
12540SOL    HW142467   4.573   0.233   0.385 -0.0178 -0.6396  1.3201
12540SOL    HW242468   4.422   0.250   0.388 -0.2243 -2.3507  1.5812
12541SOL     OW42469   4.234   2.771   3.641 -0.7234  0.5822 -0.0630
12541SOL    HW142470   4.288   2.692   3.631 -2.6747 -0.7360 -0.7856
12541SOL    HW242471   4.297   2.841   3.657  1.1156 -1.0521  0.2856
12542SOL     OW42472   4.070   3.207   0.956  0.2365 -0.0952 -0.0079
12542SOL    HW142473   4.005   3.270   0.926  1.0422  0.4079 -0.6980
12542SOL    HW242474   4.032   3.122   0.934  0.5427  0.2379 -1.9606
12543SOL     OW42475   3.285   2.954   1.712 -0.3811  0.0659  0.2391
12543SOL    HW142476   3.282   2.961   1.617  1.2610 -1.0092  0.0643
12543SOL    HW242477   3.259   2.864   1.730 -2.1399  0.6794  0.9500
12544SOL     OW42478   2.236   2.225   1.162 -0.1638 -0.0659  0.0653
12544SOL    HW142479   2.307   2.174   1.122  0.1067  1.0215 -0.9161
12544SOL    HW242480   2.160   2.167   1.159  0.2581 -0.5999 -0.5831
12545SOL     OW42481   4.734   1.713   1.986  0.4278 -0.2620 -0.2881
12545SOL    HW142482   4.757   1.658   2.061 -0.8446 -0.6057 -0.1251
12545SOL    HW242483   4.747   1.656   1.910  3.3836  0.5899 -0.5654
12546SOL     OW42484   6.163   5.315   1.447 -0.9598  0.0540 -0.5382
12546SOL    HW142485   6.199   5.261   1.376  1.5246  0.4470  0.3404
12546SOL    HW242486   6.180   5.405   1.419 -1.5569  0.2707 -0.2195
12547SOL     OW42487   3.920   2.690   0.223 -0.1991 -0.1550 -0.2470
12547SOL    HW142488   3.964   2.773   0.236 -1.8650  1.0749 -1.8850
12547SOL    HW242489   3.930   2.671   0.129  1.0800 -2.3984  0.2705
12548SOL     OW42490   6.575   0.952   0.401  0.3529  0.0203 -0.2551
12548SOL    HW142491   6.588   1.046   0.400 -2.9779  0.6903  2.2991
12548SOL    HW242492   6.626   0.921   0.476  0.7597 -0.1277 -0.5836
12549SOL     OW42493   5.359   3.921   0.801 -0.1441 -0.5005  0.0740
12549SOL    HW142494   5.275   3.877   0.816 -0.0523 -0.4224  0.8221
12549SOL    HW242495   5.336   4.013   0.790 -0.2176 -0.5666 -0.3448
12550SOL     OW42496   4.725   1.431   1.317 -0.0338 -0.1166 -0.5080
12550SOL    HW142497   4.652   1.489   1.298 -0.5685 -0.5067  0.3228
12550SOL    HW242498   4.801   1.475   1.278  0.0567  2.4450  2.2055
12551SOL     OW42499   4.389   1.828   1.114 -0.3266  0.0797  0.3705
12551SOL    HW142500   4.363   1.836   1.206 -1.4243 -0.6130  0.1375
12551SOL    HW242501   4.426   1.914   1.093 -1.1283  0.6401  1.1448
12552SOL     OW42502   2.642   5.064   0.669 -0.3205  0.3179 -0.3496
12552SOL    HW142503   2.604   4.984   0.632 -1.4897  1.2643 -1.2670
12552SOL    HW242504   2.713   5.087   0.609  0.1971 -0.1641  0.0665
12553SOL     OW42505   1.496   2.419   3.870  0.3581  0.4317 -0.3689
12553SOL    HW142506   1.507   2.452   3.959  1.3909  0.3913 -0.4647
12553SOL    HW242507   1.458   2.492   3.821 -0.5283  0.3423  0.1670
12554SOL     OW42508   5.103   1.538   1.559  0.2872 -0.2300 -0.6941
12554SOL    HW142509   5.181   1.490   1.533  0.1391 -0.7221 -0.2620
12554SOL    HW242510   5.090   1.514   1.651 -1.4399 -1.6839 -1.2377
12555SOL     OW42511   3.208   2.581   4.890 -0.3938 -0.0555  0.0353
12555SOL    HW142512   3.220   2.489   4.913 -1.5414  0.0911  1.3522
12555SOL    HW242513   3.144   2.613   4.953 -1.3919  1.1924 -1.5285
12556SOL     OW42514   5.380   4.719   3.171 -0.3349 -0.5061  0.1547
12556SOL    HW142515   5.412   4.791   3.225 -1.8472  0.2566  0.0949
12556SOL    HW242516   5.286   4.734   3.163 -0.5905 -2.1198 -0.4357
12557SOL     OW42517   6.100   2.923   2.309  0.3774 -0.3818 -0.1959
12557SOL    HW142518   6.146   2.860   2.253 -0.2780 -0.2558 -0.8913
12557SOL    HW242519   6.013   2.885   2.321  0.3035 -0.0877  0.2040
12558SOL     OW42520   7.572   1.230   2.196  0.0247 -0.2135  0.0987
12558SOL    HW142521   7.580   1.136   2.212  0.4899  0.0414  1.4976
12558SOL    HW242522   7.627   1.246   2.119 -0.1490 -1.0998 -0.2210
12559SOL     OW42523   5.439   1.286   1.135 -0.7612 -0.1579  0.1512
12559SOL    HW142524   5.368   1.259   1.193 -1.1486 -0.1614 -0.3237
12559SOL    HW242525   5.493   1.208   1.126 -1.1863 -0.4149 -0.2022
12560SOL     OW42526   5.644   9.638   4.022  0.2587 -0.4856  0.2536
12560SOL    HW142527   5.558   9.678   4.035  0.9304  1.0905  0.0610
12560SOL    HW242528   5.700   9.679   4.087  0.9013 -1.4398  0.3178
12561SOL     OW42529   6.151   9.567   3.188 -0.0732  0.0043  0.7452
12561SOL    HW142530   6.091   9.496   3.213 -0.2141  0.1519  0.8255
12561SOL    HW242531   6.200   9.531   3.114 -0.9705  0.2425  0.0096
12562SOL     OW42532   3.429   3.584   2.868  0.0627  0.1223  0.3474
12562SOL    HW142533   3.484   3.535   2.806  0.5494 -0.7321  1.4276
12562SOL    HW242534   3.342   3.547   2.857 -0.7886  2.5106 -2.4900
12563SOL     OW42535   2.303   2.236   1.771 -0.1806  0.2544 -0.0227
12563SOL    HW142536   2.213   2.222   1.801 -0.0107 -0.0211  0.3583
12563SOL    HW242537   2.294   2.248   1.676 -0.4113 -1.8948 -0.3328
12564SOL     OW42538   6.029   2.087   2.655  0.0416 -0.7802 -0.0104
12564SOL    HW142539   6.051   1.995   2.642  3.2017  0.0299 -1.2827
12564SOL    HW242540   6.006   2.094   2.748  1.3242 -2.5820  0.4807
12565SOL     OW42541   3.631   3.503   2.698 -0.5477  0.8993  0.0997
12565SOL    HW142542   3.696   3.540   2.759 -1.0224  0.1435  1.0748
12565SOL    HW242543   3.640   3.557   2.619  0.7418  1.2904  0.4879
12566SOL     OW42544   1.924   2.927   6.089  0.2700 -0.0216 -0.3849
12566SOL    HW142545   1.969   3.011   6.078  0.1535  0.2205  0.8397
12566SOL    HW242546   1.990   2.869   6.127 -0.7937  0.7917  2.9876
12567SOL     OW42547   5.476   4.458   3.828  0.2383  0.3742  0.2220
12567SOL    HW142548   5.487   4.367   3.800 -0.0100 -0.2773  2.0708
12567SOL    HW242549   5.381   4.471   3.833  0.2319  1.2730 -1.5519
12568SOL     OW42550   4.814   2.961   4.243  0.1450 -0.0208 -0.2052
12568SOL    HW142551   4.786   2.919   4.324  1.2154 -1.0825 -0.3720
12568SOL    HW242552   4.817   3.055   4.265 -1.3208 -0.0915  0.4363
12569SOL     OW42553   5.543   2.610   4.270 -0.2405 -0.0294 -0.9307
12569SOL    HW142554   5.598   2.536   4.295 -0.2798  0.0381 -0.6421
12569SOL    HW242555   5.514   2.589   4.182 -2.0931 -1.4603 -0.0437
12570SOL     OW42556   4.170   3.387   0.458  0.5660  0.0297 -0.5216
12570SOL    HW142557   4.189   3.481   0.462  0.8994  0.0957 -2.6202
12570SOL    HW242558   4.172   3.358   0.550  0.5880  2.0266  0.1579
12571SOL     OW42559   1.464   3.710   5.009 -0.6663 -0.1364  1.0188
12571SOL    HW142560   1.450   3.625   4.968 -1.3487 -0.0775  1.1203
12571SOL    HW242561   1.455   3.694   5.103 -3.0699  0.4443  0.9356
12572SOL     OW42562   3.403   6.142   1.680  0.0500  0.4001 -0.2217
12572SOL    HW142563   3.456   6.062   1.678 -0.4947 -0.0426  1.4364
12572SOL    HW242564   3.343   6.130   1.754 -0.0441  2.3397  0.0844
12573SOL     OW42565   5.785   1.223   1.878  0.3176  0.7443 -0.2085
12573SOL    HW142566   5.873   1.253   1.857  0.4765  1.4195  1.2435
12573SOL    HW242567   5.789   1.199   1.971 -0.3254 -1.9776 -0.7907
12574SOL     OW42568   5.903   1.147   5.368 -0.2038 -0.7484 -0.1039
12574SOL    HW142569   5.820   1.108   5.341 -0.2368 -1.6331  1.1567
12574SOL    HW242570   5.878   1.222   5.423 -0.1492 -0.1496 -0.8825
12575SOL     OW42571   4.168   0.832   2.054 -0.2034 -0.8460  0.2129
12575SOL    HW142572   4.112   0.862   2.125 -0.2608 -1.3029  0.3637
12575SOL    HW242573   4.133   0.746   2.031 -1.0697 -0.1465 -1.3049
12576SOL     OW42574   6.697   4.691   2.946  0.3632  0.9629  0.3400
12576SOL    HW142575   6.770   4.638   2.913  0.2221  1.3165 -0.5526
12576SOL    HW242576   6.644   4.629   2.996  0.6249  0.4328 -0.0295
12577SOL     OW42577   2.659   4.530   2.808 -0.1823  0.3634 -0.0494
12577SOL    HW142578   2.707   4.472   2.867 -2.0811  0.4424  1.6860
12577SOL    HW242579   2.681   4.498   2.720  2.1632 -0.2188  0.6855
12578SOL     OW42580   6.898   2.885   2.293  0.2181  0.2074 -0.4442
12578SOL    HW142581   6.804   2.903   2.300 -0.0842 -1.2437 -0.2942
12578SOL    HW242582   6.934   2.960   2.247 -0.5079  2.1905  2.0265
12579SOL     OW42583   4.520   3.608   2.511 -1.3487  0.0482 -0.0359
12579SOL    HW142584   4.602   3.569   2.542 -1.1497  1.4305  1.2856
12579SOL    HW242585   4.452   3.551   2.548 -1.0220 -0.1661  0.2476
12580SOL     OW42586   5.001   2.639   6.280 -0.0523  0.2739  0.2738
12580SOL    HW142587   5.024   2.548   6.298  0.7998  0.5330  0.5634
12580SOL    HW242588   5.045   2.659   6.197 -0.5490  0.3103  0.0176
12581SOL     OW42589   3.580   3.297   3.158  0.8665  0.5476  0.1956
12581SOL    HW142590   3.544   3.231   3.218 -0.6027  1.6643  0.6108
12581SOL    HW242591   3.558   3.265   3.071  1.2680 -0.1191  0.3343
12582SOL     OW42592   5.297   2.006   3.131 -0.1992  0.6357  0.3722
12582SOL    HW142593   5.369   2.069   3.128 -0.1111  0.6115  1.5735
12582SOL    HW242594   5.289   1.983   3.223 -0.2320 -1.1270 -0.0391
12583SOL     OW42595   3.582   2.909   1.221  0.5522 -0.1894  0.1704
12583SOL    HW142596   3.490   2.903   1.247 -0.0841 -1.1230 -2.0919
12583SOL    HW242597   3.602   3.003   1.222 -0.0146 -0.0588  1.8756
12584SOL     OW42598   4.983   3.435   2.495 -0.1092 -0.4855  0.4495
12584SOL    HW142599   4.893   3.465   2.508  0.3800  0.8951  0.8296
12584SOL    HW242600   4.983   3.345   2.525 -1.2956 -0.4085  0.7249
12585SOL     OW42601   4.247   2.966   2.692 -0.7313  0.3166  0.0925
12585SOL    HW142602   4.241   2.997   2.782 -1.5952 -1.9985  0.8892
12585SOL    HW242603   4.319   2.903   2.693 -0.2808  0.7770 -1.0235
12586SOL     OW42604   2.734   3.071   4.192 -0.5925 -0.2397  0.1727
12586SOL    HW142605   2.662   3.094   4.251 -1.2045  0.9883 -0.9819
12586SOL    HW242606   2.691   3.043   4.111  0.2037  0.6050 -0.5687
12587SOL     OW42607   6.013   4.509   5.163  0.9458  0.4251  0.6434
12587SOL    HW142608   5.945   4.482   5.102 -1.1234  1.4840  2.3218
12587SOL    HW242609   6.092   4.465   5.133 -0.5309 -1.1101 -1.2394
12588SOL     OW42610   6.230   3.494   3.157 -0.4254  0.0881  0.2131
12588SOL    HW142611   6.264   3.563   3.214 -0.8543  0.7100 -0.2713
12588SOL    HW242612   6.193   3.429   3.217  1.8288 -0.7823  0.7969
12589SOL     OW42613   2.843   2.366   2.553 -0.5119 -0.4449  0.7296
12589SOL    HW142614   2.888   2.340   2.633 -1.4429  1.0194  1.7855
12589SOL    HW242615   2.800   2.449   2.576  0.2724  0.7236 -1.6771
12590SOL     OW42616   2.106   3.022   1.758 -0.0249  0.4412 -0.1922
12590SOL    HW142617   2.154   2.971   1.692 -0.8123  0.2989 -0.6650
12590SOL    HW242618   2.056   2.957   1.807 -0.6247  0.6967 -0.4551
12591SOL     OW42619   5.945   4.715   0.150  0.5665  0.2564 -0.1996
12591SOL    HW142620   5.928   4.643   0.090  0.1262 -1.4371  1.8651
12591SOL    HW242621   5.884   4.784   0.123  1.0842 -0.0071 -2.2815
12592SOL     OW42622   5.984   9.270   2.863 -0.8477  0.1862 -0.0779
12592SOL    HW142623   6.077   9.291   2.869 -0.2114 -0.9434 -3.5908
12592SOL    HW242624   5.970   9.204   2.930  0.3450  1.7301  1.8142
12593SOL     OW42625   5.884   0.758   3.153  0.0014  0.7181 -0.1258
12593SOL    HW142626   5.940   0.788   3.081 -1.1609 -0.0262 -1.3953
12593SOL    HW242627   5.898   0.664   3.156 -0.7207  0.6080 -0.0730
12594SOL     OW42628   5.447   2.508   4.046  0.1669  0.5671 -0.2441
12594SOL    HW142629   5.493   2.424   4.055 -0.2350  0.4108  0.4037
12594SOL    HW242630   5.418   2.509   3.955 -0.9854 -0.6245  0.0705
12595SOL     OW42631   7.269   3.269   1.877 -0.0362 -0.1835  0.2920
12595SOL    HW142632   7.339   3.247   1.815 -0.9579 -0.1190 -0.8132
12595SOL    HW242633   7.315   3.303   1.954  1.1975 -1.3708  0.1216
12596SOL     OW42634   4.838   3.742   2.679 -0.1781  0.2607 -0.5040
12596SOL    HW142635   4.809   3.680   2.745  0.5912 -0.2526 -0.6303
12596SOL    HW242636   4.931   3.722   2.667  0.1118  1.5096 -0.4682
12597SOL     OW42637   1.800   3.322   1.113 -0.0163 -0.0624  0.2795
12597SOL    HW142638   1.804   3.344   1.020 -2.7602 -0.7269 -0.0599
12597SOL    HW242639   1.857   3.246   1.123 -0.6483 -0.7381 -1.1237
12598SOL     OW42640   3.748   2.156   1.205 -0.6832 -0.8919  0.0360
12598SOL    HW142641   3.807   2.098   1.156 -1.8775 -1.2036 -1.0875
12598SOL    HW242642   3.667   2.156   1.155 -1.3277  0.3151  1.0146
12599SOL     OW42643   5.490   2.027   1.408 -0.2990 -0.1632  0.1510
12599SOL    HW142644   5.558   1.975   1.451  0.0633  0.2996  0.1474
12599SOL    HW242645   5.424   1.964   1.382 -0.1152 -0.5560  0.6231
12600SOL     OW42646   5.501   4.080   1.077 -0.2132 -0.1742  0.2229
12600SOL    HW142647   5.451   4.160   1.094 -1.8665 -1.5197  2.1865
12600SOL    HW242648   5.442   4.026   1.024  2.0613  0.9738 -3.9240
12601SOL     OW42649   5.200   0.566   0.909  0.0597  0.0358 -0.4029
12601SOL    HW142650   5.217   0.565   1.003 -1.3274 -0.0534 -0.1325
12601SOL    HW242651   5.210   0.475   0.882 -0.4309 -0.0871 -0.1700
12602SOL     OW42652   2.031   1.990   3.442  0.4989  0.0565 -0.6257
12602SOL    HW142653   2.105   2.049   3.435  0.7574  0.2855  2.3594
12602SOL    HW242654   1.971   2.017   3.373  1.6734  2.2246 -0.8748
12603SOL     OW42655   3.544   5.846   0.871  0.9397 -0.0354  0.2898
12603SOL    HW142656   3.512   5.897   0.945 -0.8324 -1.1581  0.3523
12603SOL    HW242657   3.536   5.905   0.796 -3.6133 -0.8288 -0.1408
12604SOL     OW42658   7.362   2.526   1.096 -0.3668  0.5806  0.0358
12604SOL    HW142659   7.391   2.615   1.118 -1.3598  0.7253  0.8489
12604SOL    HW242660   7.367   2.479   1.179 -1.8684  0.4625  0.0919
12605SOL     OW42661   4.226   2.553   2.717 -0.0470 -0.6617  0.2481
12605SOL    HW142662   4.136   2.524   2.703 -0.2892  0.5269 -0.8249
12605SOL    HW242663   4.247   2.524   2.806 -1.0701 -1.9750  0.0903
12606SOL     OW42664   2.869   1.277   8.764 -0.2869 -0.0421  0.5242
12606SOL    HW142665   2.870   1.372   8.763  0.3619 -0.0268 -0.7676
12606SOL    HW242666   2.908   1.252   8.848 -2.1603  0.7952  1.6951
12607SOL     OW42667   4.651   2.736   2.135  0.2328  0.2994  0.6443
12607SOL    HW142668   4.715   2.666   2.148 -0.1887  0.0643  1.5283
12607SOL    HW242669   4.676   2.776   2.051  2.1312  0.8529  1.4312
12608SOL     OW42670   4.041   3.542   2.517  0.6108 -0.0354  0.1343
12608SOL    HW142671   4.068   3.569   2.429 -0.7490  0.5549 -0.1150
12608SOL    HW242672   4.064   3.616   2.573  3.3572 -1.1816  0.6868
12609SOL     OW42673   4.437   2.776   2.702 -0.5261  0.2906 -0.3051
12609SOL    HW142674   4.524   2.772   2.662 -0.8520  1.0005 -1.1237
12609SOL    HW242675   4.392   2.698   2.670 -0.4194  0.2963 -0.4725
12610SOL     OW42676   5.884   0.992   2.607 -0.0071 -0.7945 -0.4116
12610SOL    HW142677   5.934   0.924   2.651 -2.0820 -2.7226 -0.8222
12610SOL    HW242678   5.889   0.969   2.514  0.3874  0.4397 -0.7101
12611SOL     OW42679   5.035   2.170   0.003  0.6314 -0.6419 -0.0935
12611SOL    HW142680   4.977   2.244  -0.014  1.2939  0.2059  1.1404
12611SOL    HW242681   5.081   2.194   0.083  0.5887 -2.5703  0.5670
12612SOL     OW42682   3.363   2.570   0.926  0.1073 -0.1401 -0.2064
12612SOL    HW142683   3.282   2.605   0.887  0.6548 -0.3993 -1.6344
12612SOL    HW242684   3.333   2.503   0.987 -0.8005  0.4285 -0.0111
12613SOL     OW42685   3.798   0.804   2.136  0.7868  0.0724 -0.4456
12613SOL    HW142686   3.783   0.736   2.071 -1.1081 -1.3164  1.3073
12613SOL    HW242687   3.884   0.784   2.173  0.7865 -0.6217 -0.8060
12614SOL     OW42688   3.657   1.430   2.535  0.2675  0.4159  0.3145
12614SOL    HW142689   3.611   1.498   2.585 -1.2021  0.1133 -0.5550
12614SOL    HW242690   3.740   1.471   2.510  0.5748  0.9533  2.0287
12615SOL     OW42691   3.522   4.410   3.587  0.0001  0.1241  0.0537
12615SOL    HW142692   3.513   4.486   3.644  0.3099  1.1672 -1.2527
12615SOL    HW242693   3.481   4.338   3.636  1.5476  0.6169  2.2422
12616SOL     OW42694   4.451   1.496   1.476  0.9545  0.5055 -0.1761
12616SOL    HW142695   4.449   1.468   1.384 -0.0146 -0.3421  0.0808
12616SOL    HW242696   4.455   1.415   1.526  2.5941  0.9917  0.5375
12617SOL     OW42697   4.329   1.422   5.962  0.4855  0.1107  0.3668
12617SOL    HW142698   4.296   1.342   6.002  0.0132 -0.3099 -0.8236
12617SOL    HW242699   4.415   1.400   5.928 -1.0167 -0.9987 -3.0884
12618SOL     OW42700   0.120   1.191   2.310  0.2760 -0.2572 -0.3684
12618SOL    HW142701   0.199   1.235   2.340  0.9911 -0.8838 -1.2687
12618SOL    HW242702   0.049   1.233   2.358  1.0198  1.2498 -0.5338
12619SOL     OW42703   4.527   1.280   4.115  0.4788 -0.6546  0.1525
12619SOL    HW142704   4.561   1.250   4.199  0.0260 -0.7349  0.3063
12619SOL    HW242705   4.522   1.375   4.123  0.8278 -0.6279  0.0681
12620SOL     OW42706   6.014   3.004   0.727  0.2890  0.5082 -0.1809
12620SOL    HW142707   6.083   3.058   0.689  0.1113  1.7151  1.1317
12620SOL    HW242708   5.954   3.067   0.767 -0.0986 -0.6381  1.1045
12621SOL     OW42709   4.931   9.183   2.645  0.1312 -0.1541  0.6267
12621SOL    HW142710   4.964   9.140   2.567 -0.7768  0.5456 -0.1717
12621SOL    HW242711   4.916   9.274   2.618 -0.0331  0.1426  1.6616
12622SOL     OW42712   1.629   2.453   2.333 -0.1948 -0.4630  0.1613
12622SOL    HW142713   1.587   2.504   2.402 -1.5330 -0.8801 -0.3026
12622SOL    HW242714   1.626   2.362   2.364 -0.0180 -0.5467 -0.0582
12623SOL     OW42715   5.338   1.391   1.504 -0.8602  0.4173  0.3491
12623SOL    HW142716   5.316   1.333   1.431 -0.6105  0.2531  0.4038
12623SOL    HW242717   5.393   1.338   1.561 -1.2806  0.4539  0.7978
12624SOL     OW42718   0.854   1.780   1.807 -0.1224  0.0973 -0.2277
12624SOL    HW142719   0.864   1.778   1.712 -2.0468 -1.6767 -0.4726
12624SOL    HW242720   0.901   1.859   1.835 -0.5676  1.3770 -2.7838
12625SOL     OW42721   7.453   4.108   2.125  0.7649  0.4139  1.1839
12625SOL    HW142722   7.396   4.080   2.197  1.1260  0.8607  1.6481
12625SOL    HW242723   7.522   4.158   2.167  1.1528  0.4196  0.5530
12626SOL     OW42724   2.319   3.785   3.623 -0.0681  0.5095  0.5119
12626SOL    HW142725   2.293   3.743   3.706  0.1754 -0.0060  0.3348
12626SOL    HW242726   2.385   3.726   3.587 -2.0425 -0.7317 -1.3586
12627SOL     OW42727   4.439   9.619   1.490 -0.0645  0.4879  0.0530
12627SOL    HW142728   4.470   9.709   1.496 -1.5027  1.0006  0.1014
12627SOL    HW242729   4.512   9.571   1.450  2.2979  0.8090  3.5626
12628SOL     OW42730   4.990   2.787   2.898  0.8449 -0.4742  0.2855
12628SOL    HW142731   4.897   2.810   2.894  1.0892  0.3790 -0.8908
12628SOL    HW242732   4.990   2.694   2.919 -0.3412 -0.9692 -1.6192
12629SOL     OW42733   8.497   4.848   1.430  0.0879 -0.1722  0.4839
12629SOL    HW142734   8.434   4.882   1.366  0.1405  1.9178  1.4754
12629SOL    HW242735   8.546   4.925   1.459  1.7094 -1.4423  1.2705
12630SOL     OW42736   2.513   2.821   2.595  0.4167 -0.0295  0.4259
12630SOL    HW142737   2.473   2.740   2.562  0.3923  0.6178 -1.1922
12630SOL    HW242738   2.533   2.801   2.687  0.6337 -1.9549  0.0131
12631SOL     OW42739   5.349   2.077   2.745  0.2662  0.3484 -0.1320
12631SOL    HW142740   5.282   2.122   2.796 -0.3030  0.4653 -0.9658
12631SOL    HW242741   5.365   2.134   2.670  0.4980 -0.2077 -0.5166
12632SOL     OW42742   2.321   2.304   1.476  0.8790  0.1652  0.3225
12632SOL    HW142743   2.294   2.262   1.393  2.0390 -0.7328  0.3823
12632SOL    HW242744   2.369   2.382   1.449 -2.8031  2.6447  0.2017
12633SOL     OW42745   2.027   1.981   0.824  0.1104 -0.2393 -0.0109
12633SOL    HW142746   1.938   1.959   0.852  0.3289  1.3992  2.2643
12633SOL    HW242747   2.078   1.983   0.905  1.9399  0.0908 -1.1185
12634SOL     OW42748   3.817   1.604   6.522 -0.1362  0.3443  0.2699
12634SOL    HW142749   3.807   1.509   6.533  2.6358  0.0852  1.3837
12634SOL    HW242750   3.797   1.640   6.608  1.6280  0.4274  0.6795
12635SOL     OW42751   4.564   1.072   3.278 -0.0695 -0.0883 -0.4190
12635SOL    HW142752   4.567   0.987   3.234 -1.6380 -0.4600  0.1194
12635SOL    HW242753   4.625   1.063   3.352  0.1629 -0.5621 -0.6619
12636SOL     OW42754   5.244   0.825   0.892  0.3380  0.4340  0.2206
12636SOL    HW142755   5.218   0.853   0.805 -0.4926 -0.6209  0.1071
12636SOL    HW242756   5.232   0.730   0.891  1.1606  0.2983  1.2079
12637SOL     OW42757   7.592   3.364   3.338  0.1553 -0.3007  0.7717
12637SOL    HW142758   7.609   3.458   3.334  1.4900 -0.5059  1.0433
12637SOL    HW242759   7.558   3.348   3.426 -0.7124  0.0074  0.5024
12638SOL     OW42760   3.112   2.981   9.099  0.1419  0.0635 -0.3674
12638SOL    HW142761   3.023   2.948   9.114 -0.3936  1.3435 -0.5742
12638SOL    HW242762   3.163   2.947   9.172 -0.6132 -0.3332 -0.0144
12639SOL     OW42763   4.396   0.954   2.144 -0.0381 -0.3740 -0.3199
12639SOL    HW142764   4.486   0.926   2.154  0.9271  0.6797 -4.3984
12639SOL    HW242765   4.345   0.873   2.139  0.9938 -1.0409 -0.1961
12640SOL     OW42766   0.254   0.127   8.318  0.4607  0.1436 -0.6315
12640SOL    HW142767   0.318   0.189   8.283 -0.3179  0.5773 -1.3259
12640SOL    HW242768   0.173   0.178   8.326 -0.0052 -0.5963 -0.5189
12641SOL     OW42769   7.890   4.212   3.390 -0.0866  0.1145  0.2888
12641SOL    HW142770   7.941   4.287   3.358  1.4051 -0.9389  0.1454
12641SOL    HW242771   7.925   4.137   3.343 -1.5641 -0.7136  0.4363
12642SOL     OW42772   4.786   3.332   9.709  0.5580  0.3547 -0.8549
12642SOL    HW142773   4.801   3.296   9.622  0.7619 -1.0238 -0.2614
12642SOL    HW242774   4.771   3.426   9.693  0.5742  0.1288 -2.3626
12643SOL     OW42775   2.448   3.319   0.428  0.5953  0.0778  0.1108
12643SOL    HW142776   2.517   3.254   0.445  0.2656  0.0243  1.3070
12643SOL    HW242777   2.488   3.382   0.368  2.2706  0.9719  2.0566
12644SOL     OW42778   7.630   2.127   2.506  0.2533 -0.5909  0.3118
12644SOL    HW142779   7.581   2.066   2.451  0.9192  0.0772 -1.0808
12644SOL    HW242780   7.584   2.211   2.496  3.0210  0.7777 -3.2541
12645SOL     OW42781   3.189   2.484   1.128  0.1694 -0.3040  0.2331
12645SOL    HW142782   3.111   2.443   1.090 -1.1248  1.5416  0.7553
12645SOL    HW242783   3.170   2.490   1.221  0.1941  1.6047  0.1558
12646SOL     OW42784   2.527   3.414   3.756 -0.1803  0.2127  0.4094
12646SOL    HW142785   2.554   3.342   3.699 -0.8740  0.2799 -0.0218
12646SOL    HW242786   2.560   3.390   3.843 -1.3802 -1.2099  0.5202
12647SOL     OW42787   4.060   2.598   3.520  0.4680 -0.2003  0.2581
12647SOL    HW142788   4.096   2.568   3.437  0.0491 -1.9249  0.6661
12647SOL    HW242789   4.096   2.686   3.532  0.9874 -0.1562 -1.4587
12648SOL     OW42790   4.349   2.840   1.862 -0.2922  0.5546  0.4103
12648SOL    HW142791   4.307   2.755   1.852 -0.8902  0.9499 -0.5430
12648SOL    HW242792   4.408   2.829   1.937 -0.4199 -0.6652  0.3477
12649SOL     OW42793   4.522   3.201   4.087 -0.0527  0.3833  0.4177
12649SOL    HW142794   4.573   3.144   4.029  0.1190 -0.2886  1.2036
12649SOL    HW242795   4.552   3.177   4.175 -0.6274  1.0712  0.8021
12650SOL     OW42796   6.006   7.442   4.486 -0.3131 -0.3248 -0.1908
12650SOL    HW142797   5.934   7.425   4.426 -1.1162 -1.5871  1.0787
12650SOL    HW242798   6.039   7.528   4.460 -1.1972 -0.4506 -1.8515
12651SOL     OW42799   3.571   2.469   1.330  0.0430 -0.2347  0.3707
12651SOL    HW142800   3.477   2.481   1.343  0.1075  1.5898 -0.5486
12651SOL    HW242801   3.584   2.485   1.236  1.2554 -0.6834  0.4448
12652SOL     OW42802   5.603   2.965   3.249  0.2167 -0.6669  0.0682
12652SOL    HW142803   5.585   2.890   3.193 -1.1413  0.1797 -0.7121
12652SOL    HW242804   5.680   2.941   3.300  0.0890 -2.3741 -0.5103
12653SOL     OW42805   8.849   4.845   2.561  0.0046 -0.5479 -0.2606
12653SOL    HW142806   8.796   4.830   2.640 -0.3835 -0.9531 -0.5890
12653SOL    HW242807   8.844   4.939   2.546  0.4490 -0.4026  0.4500
12654SOL     OW42808   2.922   3.479   2.989  0.1155  0.2142  0.0075
12654SOL    HW142809   2.919   3.385   3.002  0.5827 -0.0185 -1.3441
12654SOL    HW242810   2.912   3.517   3.076  0.0981 -1.0829  0.5808
12655SOL     OW42811   2.060   1.249   2.481  0.0895  0.3931  0.3773
12655SOL    HW142812   2.131   1.189   2.457 -1.0139 -0.4839 -0.7956
12655SOL    HW242813   1.992   1.192   2.518  0.7423  1.4348  3.4576
12656SOL     OW42814   5.642   3.614   1.190 -0.4465  0.0490 -0.3688
12656SOL    HW142815   5.645   3.616   1.094  1.5462 -0.9626 -0.3784
12656SOL    HW242816   5.669   3.702   1.216 -0.3717  0.1361 -0.7268
12657SOL     OW42817   4.481   4.437   9.165  0.2169 -0.2302  0.1932
12657SOL    HW142818   4.406   4.494   9.144  0.6050  0.0410 -0.5003
12657SOL    HW242819   4.554   4.497   9.174  0.6701 -0.6173 -0.7227
12658SOL     OW42820   5.190   2.745   1.470  0.5027 -0.4478 -0.5360
12658SOL    HW142821   5.232   2.773   1.552  0.7513  0.1061 -0.8471
12658SOL    HW242822   5.227   2.802   1.403 -2.8722  2.2257 -0.4229
12659SOL     OW42823   4.135   3.165   2.492 -0.0540 -0.4652  0.4759
12659SOL    HW142824   4.217   3.116   2.491 -0.7004 -1.6078 -0.3354
12659SOL    HW242825   4.160   3.257   2.489  1.2064 -0.7574  1.5333
12660SOL     OW42826   3.891   3.654   3.147  0.0272  0.2972 -0.3645
12660SOL    HW142827   3.820   3.703   3.104  1.2975  0.1818 -2.7822
12660SOL    HW242828   3.866   3.562   3.138  0.2116  0.2814 -0.7464
12661SOL     OW42829   2.081   1.496   2.425  0.3277  0.2262 -0.5693
12661SOL    HW142830   2.169   1.495   2.387 -0.4543  0.4167 -2.4828
12661SOL    HW242831   2.074   1.413   2.472  1.4561  0.1399 -0.5239
12662SOL     OW42832   7.951   2.757   3.277 -0.0743 -0.1543 -0.1731
12662SOL    HW142833   8.037   2.728   3.308 -0.1054 -0.1887 -0.1204
12662SOL    HW242834   7.895   2.680   3.286 -0.6893  0.4654  1.9460
12663SOL     OW42835   4.230   2.242   2.663  0.7089 -0.4037 -0.1232
12663SOL    HW142836   4.146   2.287   2.656  1.5330  1.0550 -1.0756
12663SOL    HW242837   4.211   2.152   2.635 -0.2352  0.2939 -1.8788
12664SOL     OW42838   4.655   1.832   2.427 -0.1504  0.1985  0.1436
12664SOL    HW142839   4.622   1.816   2.338 -0.1616  3.5517 -0.5903
12664SOL    HW242840   4.580   1.863   2.476  0.5958  2.0600  0.1856
12665SOL     OW42841   4.792   0.539   1.368  0.0118 -0.2292 -0.3621
12665SOL    HW142842   4.840   0.489   1.302 -0.2223  1.3755 -1.8175
12665SOL    HW242843   4.764   0.619   1.322 -0.1851  0.9433  1.6741
12666SOL     OW42844   6.772   4.144   4.309 -0.1907  0.2691 -0.0693
12666SOL    HW142845   6.722   4.225   4.315 -1.7319 -0.6092 -0.4777
12666SOL    HW242846   6.714   4.084   4.261  1.3924 -0.7009 -0.8419
12667SOL     OW42847   4.569   0.702   1.897  0.3002  0.1397 -0.5641
12667SOL    HW142848   4.663   0.696   1.879  0.6596 -0.9292  1.4009
12667SOL    HW242849   4.549   0.621   1.944 -1.0386  1.5236  1.3791
12668SOL     OW42850   3.878   3.744   3.847 -0.1196 -0.5320 -0.2943
12668SOL    HW142851   3.888   3.782   3.760  1.4897 -1.4632 -0.5536
12668SOL    HW242852   3.968   3.738   3.881 -0.6560 -0.8718  1.1227
12669SOL     OW42853   2.008   3.604   5.816  0.3202 -0.8573 -0.6745
12669SOL    HW142854   1.921   3.568   5.834 -0.0050  0.5201  0.6396
12669SOL    HW242855   2.069   3.538   5.848 -0.2642 -0.8002  0.5980
12670SOL     OW42856   7.381   5.000   3.380 -0.0779 -0.5225  0.2768
12670SOL    HW142857   7.415   4.913   3.401 -1.7163 -0.9147  1.4549
12670SOL    HW242858   7.404   5.012   3.288 -0.7906 -2.6829 -0.2513
12671SOL     OW42859   3.280   1.841   1.362  0.3193  0.0120  0.1275
12671SOL    HW142860   3.274   1.868   1.271 -0.4516 -0.7250 -0.0514
12671SOL    HW242861   3.350   1.775   1.363  0.1108 -0.2155 -0.0007
12672SOL     OW42862   6.225   1.417   1.554 -0.3707  0.0493 -0.4644
12672SOL    HW142863   6.273   1.451   1.479  0.6795  0.1473  0.2319
12672SOL    HW242864   6.178   1.492   1.589 -1.1356 -0.0649 -1.1964
12673SOL     OW42865   3.393   1.537   0.999  0.0585 -0.3032  0.0997
12673SOL    HW142866   3.312   1.528   1.049 -1.0582  1.0941 -1.3420
12673SOL    HW242867   3.458   1.489   1.049 -1.9496 -2.7007  0.6004
12674SOL     OW42868   4.532   2.120   2.748 -0.2129  0.0521  0.4709
12674SOL    HW142869   4.509   2.027   2.741  0.9084 -0.5058  2.9341
12674SOL    HW242870   4.448   2.165   2.745 -0.6885 -0.8465 -2.2863
12675SOL     OW42871   5.371   3.057   3.341  0.2230 -0.1254 -0.0156
12675SOL    HW142872   5.363   2.981   3.398 -3.4140  0.1533  0.0546
12675SOL    HW242873   5.447   3.037   3.286 -1.5370 -4.7697 -1.2773
12676SOL     OW42874   6.344   4.968   4.094  0.1227 -0.7763  0.0004
12676SOL    HW142875   6.260   4.939   4.131  0.4871  0.2541  1.7249
12676SOL    HW242876   6.324   5.054   4.056  0.4457 -0.4113  0.6487
12677SOL     OW42877   6.107   3.222   5.023 -0.1702  0.3635 -0.0512
12677SOL    HW142878   6.053   3.144   5.006 -1.1430  1.0349 -0.1662
12677SOL    HW242879   6.126   3.218   5.117  0.3958 -0.3784 -0.1861
12678SOL     OW42880   4.478   0.289   0.924 -0.8829 -0.1461  0.3209
12678SOL    HW142881   4.490   0.199   0.955  0.7612  0.4999  1.6700
12678SOL    HW242882   4.516   0.344   0.992 -2.1448  1.6249 -0.3139
12679SOL     OW42883   4.249   2.593   0.218 -0.2101 -0.1323  0.6514
12679SOL    HW142884   4.289   2.621   0.135  0.2086  0.0642  0.9194
12679SOL    HW242885   4.167   2.550   0.191 -1.1386  1.7785  0.2719
12680SOL     OW42886   5.868   4.575   3.482 -0.0026 -0.0511  0.4778
12680SOL    HW142887   5.788   4.612   3.445  0.2479  0.3016  0.2725
12680SOL    HW242888   5.911   4.649   3.525  1.7526  0.5498 -2.0769
12681SOL     OW42889   5.063   3.297   3.218  0.1230 -0.1951 -0.1160
12681SOL    HW142890   5.077   3.274   3.310 -0.3626 -0.2235 -0.0485
12681SOL    HW242891   5.130   3.247   3.170 -0.3638 -1.0988  0.1126
12682SOL     OW42892   6.065   2.584   3.187  0.0340  0.3469  0.2723
12682SOL    HW142893   6.120   2.522   3.234 -0.2697 -2.1266 -2.3583
12682SOL    HW242894   6.125   2.631   3.130 -0.2190 -0.5566 -0.7643
12683SOL     OW42895   6.815   1.236   6.448 -0.1298 -0.1227 -0.1116
12683SOL    HW142896   6.884   1.198   6.503 -0.6321 -1.9405 -0.6881
12683SOL    HW242897   6.856   1.314   6.410  0.6489  0.4362  1.7900
12684SOL     OW42898   6.026   5.097   4.269  1.3994 -0.5438 -0.1549
12684SOL    HW142899   5.971   5.176   4.270  1.3807 -0.5390 -1.0052
12684SOL    HW242900   6.067   5.096   4.355  1.8355  0.7028 -0.3197
12685SOL     OW42901   2.634   1.961   1.229 -0.2224  0.5268 -0.5839
12685SOL    HW142902   2.650   1.875   1.189  0.4670 -0.5029  1.7285
12685SOL    HW242903   2.568   1.944   1.296  1.0150  1.4719  0.9302
12686SOL     OW42904   6.009   0.883   2.920 -0.1620 -0.4685 -0.6742
12686SOL    HW142905   6.089   0.882   2.868 -0.3360 -0.3391 -0.9482
12686SOL    HW242906   5.974   0.971   2.907  0.3723 -0.0514  0.5478
12687SOL     OW42907   1.167   2.306   1.976  0.7814  0.4012 -0.3271
12687SOL    HW142908   1.081   2.270   1.994  0.2219  0.8326 -1.9491
12687SOL    HW242909   1.202   2.330   2.062  0.3100 -1.9710  0.5924
12688SOL     OW42910   4.721   3.404   2.592 -0.0594  0.4274  0.2195
12688SOL    HW142911   4.759   3.423   2.678 -1.9382  0.1242  1.1775
12688SOL    HW242912   4.676   3.321   2.603 -0.0839  0.2387 -1.1547
12689SOL     OW42913   3.579   3.050   2.663 -0.3232 -0.0457  0.3161
12689SOL    HW142914   3.634   3.003   2.601  0.6897  0.5485  0.7427
12689SOL    HW242915   3.492   3.052   2.622  0.5300  1.1925 -1.5546
12690SOL     OW42916   4.842   5.083   2.773 -0.1880 -0.3956 -0.1047
12690SOL    HW142917   4.865   5.139   2.847  2.2144  0.9919 -1.7715
12690SOL    HW242918   4.777   5.134   2.724 -0.7466 -0.7206  0.2784
12691SOL     OW42919   3.620   3.711   2.500 -0.2931  0.2967 -0.2586
12691SOL    HW142920   3.652   3.669   2.420 -0.6560  1.0744 -0.8295
12691SOL    HW242921   3.677   3.788   2.511  0.6194 -0.5168  0.9873
12692SOL     OW42922   2.980   0.128   0.474 -0.0836  0.4595 -0.4196
12692SOL    HW142923   2.931   0.104   0.395 -0.8521 -1.3998  0.5651
12692SOL    HW242924   2.931   0.202   0.510 -0.8304  0.0924 -0.6653
12693SOL     OW42925   4.325   1.164   1.095  0.2494 -0.5025 -0.2540
12693SOL    HW142926   4.246   1.111   1.097 -1.1322  1.3039 -2.3753
12693SOL    HW242927   4.341   1.180   1.002  1.5628  1.3524  0.2269
12694SOL     OW42928   2.385   2.418   3.028 -0.4743  0.4823  0.0211
12694SOL    HW142929   2.328   2.486   3.062 -0.0087  0.9955 -0.2110
12694SOL    HW242930   2.396   2.439   2.935 -0.6508 -0.1381 -0.1476
12695SOL     OW42931   3.388   5.681   0.717  0.1197  0.4176  0.0438
12695SOL    HW142932   3.454   5.732   0.764 -0.7396  1.9114 -0.2948
12695SOL    HW242933   3.383   5.721   0.631 -0.5154 -0.3214 -0.2822
12696SOL     OW42934   1.879   4.274   0.926 -0.3358 -0.5362  0.5611
12696SOL    HW142935   1.915   4.189   0.950 -0.7530 -0.8622  0.0241
12696SOL    HW242936   1.889   4.280   0.832 -0.9315 -0.2848  0.5045
12697SOL     OW42937   2.154   2.028   2.862  0.2027  0.2441 -0.4112
12697SOL    HW142938   2.197   1.993   2.940  3.4622  0.3925 -1.9459
12697SOL    HW242939   2.093   1.960   2.835 -0.2309 -0.2445  1.6401
12698SOL     OW42940   2.784   2.829   0.860  0.1839 -0.7085 -0.5563
12698SOL    HW142941   2.839   2.772   0.807  0.7103  0.9065 -1.8396
12698SOL    HW242942   2.725   2.871   0.796 -0.0485  0.3143  0.2973
12699SOL     OW42943   5.391   4.295   1.826 -0.0736 -0.2377 -0.1437
12699SOL    HW142944   5.433   4.348   1.759  0.8308  2.4438  2.3247
12699SOL    HW242945   5.447   4.217   1.834 -0.5176 -0.9253 -2.7268
12700SOL     OW42946   4.686   9.004   1.708  0.5045  0.0564 -0.5216
12700SOL    HW142947   4.711   9.089   1.672  0.2838  0.5450  0.4439
12700SOL    HW242948   4.718   9.006   1.798  0.4944 -0.8882 -0.4899
12701SOL     OW42949   6.592   5.042   0.895  0.2547  0.0276  0.5900
12701SOL    HW142950   6.611   5.049   0.989 -2.8626 -0.3375  1.3554
12701SOL    HW242951   6.548   5.124   0.873  0.0026 -0.3284 -0.2931
12702SOL     OW42952   3.800   6.332   0.329  0.2508 -0.9614 -0.5450
12702SOL    HW142953   3.760   6.391   0.392 -1.1557 -1.8941 -0.5241
12702SOL    HW242954   3.726   6.297   0.279  1.0007 -2.8996 -0.3672
12703SOL     OW42955   3.009   2.023   1.693  0.2762  0.6102  0.5560
12703SOL    HW142956   3.029   2.116   1.704 -0.3392  1.0782 -1.7511
12703SOL    HW242957   2.915   2.020   1.675  0.4798 -0.3158 -0.4857
12704SOL     OW42958   1.802   3.362   2.220 -0.0991  0.0031  0.0894
12704SOL    HW142959   1.787   3.399   2.133  0.2534  1.0986  0.4828
12704SOL    HW242960   1.849   3.281   2.204 -0.7955 -0.2453 -0.7852
12705SOL     OW42961   4.996   3.028   0.845 -0.0414 -0.1585  0.1692
12705SOL    HW142962   4.975   2.961   0.909 -2.1472  0.2749  0.0343
12705SOL    HW242963   4.933   3.013   0.774  1.4761  0.0725 -1.2922
12706SOL     OW42964   3.119   4.073   9.503 -0.0196 -0.4434  0.2756
12706SOL    HW142965   3.160   4.117   9.577 -1.1975  1.0176  0.0839
12706SOL    HW242966   3.026   4.090   9.513 -0.1198  0.9912 -2.2575
12707SOL     OW42967   1.912   2.830   1.521  0.0183 -0.3275 -0.3814
12707SOL    HW142968   1.886   2.922   1.517 -1.3544 -0.4962  2.4651
12707SOL    HW242969   1.832   2.781   1.501 -0.2153 -0.8630  1.6694
12708SOL     OW42970   3.937   1.493   2.576  0.0276 -0.5485  0.2254
12708SOL    HW142971   3.991   1.526   2.648  1.7591  0.0517 -1.2754
12708SOL    HW242972   3.950   1.398   2.578  1.3387 -0.3972 -0.2389
12709SOL     OW42973   5.515   1.829   1.062  0.1121  0.0614 -0.3853
12709SOL    HW142974   5.506   1.739   1.096  0.4127 -0.7576 -2.3442
12709SOL    HW242975   5.426   1.863   1.061  0.0246 -0.0934  0.6165
12710SOL     OW42976   3.570   3.081   2.118 -0.0663 -0.4921 -0.5231
12710SOL    HW142977   3.508   3.150   2.097  1.5723  0.8748 -1.1341
12710SOL    HW242978   3.608   3.108   2.202  1.6674  0.1945 -1.4898
12711SOL     OW42979   6.102   0.975   5.469 -0.5094 -0.2888 -0.1573
12711SOL    HW142980   6.030   1.025   5.432 -0.2433  0.4350  0.2789
12711SOL    HW242981   6.126   1.023   5.548 -0.2800 -1.1435  0.2957
12712SOL     OW42982   3.961   0.161   4.515 -0.2639  0.2023  0.3674
12712SOL    HW142983   4.031   0.109   4.554 -1.3169 -0.6144  1.2155
12712SOL    HW242984   3.975   0.250   4.548 -0.3592 -0.2176  1.5620
12713SOL     OW42985   5.679   1.045   1.351 -0.1559 -0.2647 -0.4711
12713SOL    HW142986   5.595   1.002   1.368  0.8754 -1.6358  1.6853
12713SOL    HW242987   5.673   1.129   1.397 -0.5853 -0.0271 -0.9477
12714SOL     OW42988   3.072   1.796   1.542 -0.0676 -0.2315  0.0028
12714SOL    HW142989   3.072   1.847   1.623 -0.4326 -1.1608  0.6020
12714SOL    HW242990   3.133   1.843   1.485  0.1666  0.4654  0.7980
12715SOL     OW42991   4.948   2.481   1.954  0.2639  0.2040 -0.0077
12715SOL    HW142992   4.914   2.524   1.876 -1.4281  0.0529  0.6141
12715SOL    HW242993   4.928   2.389   1.942 -0.5400  0.2518  0.8422
12716SOL     OW42994   4.552   2.164   0.753 -0.9787 -0.3315  0.0621
12716SOL    HW142995   4.573   2.111   0.676 -0.6258  0.9759 -0.7744
12716SOL    HW242996   4.466   2.201   0.735 -1.3368 -0.8063  0.7543
12717SOL     OW42997   2.721   3.366   0.153 -0.0019 -0.0160 -0.3389
12717SOL    HW142998   2.630   3.356   0.124 -0.0602 -1.2627  0.1649
12717SOL    HW242999   2.726   3.311   0.232  1.0075  0.6020  0.0411
12718SOL     OW43000   2.592   2.594   7.155 -0.1331 -0.1825  0.1316
12718SOL    HW143001   2.640   2.530   7.208 -0.1794 -1.1207 -0.9189
12718SOL    HW243002   2.640   2.597   7.072 -0.1970  1.0808  0.1238
12719SOL     OW43003   5.739   6.090   4.110  0.0970  0.0596 -0.9179
12719SOL    HW143004   5.695   6.151   4.051  0.5491  0.2532 -1.0657
12719SOL    HW243005   5.678   6.077   4.182  0.6906  2.0948  0.0182
12720SOL     OW43006   5.888   2.321   1.425 -0.0670 -0.6438 -0.8764
12720SOL    HW143007   5.923   2.330   1.513 -2.4757  0.1040  0.0877
12720SOL    HW243008   5.965   2.325   1.368  1.3281  2.7529  0.9313
12721SOL     OW43009   4.047   4.308   1.488 -0.0272  0.1913 -0.3966
12721SOL    HW143010   4.074   4.304   1.397  1.0588  1.6913 -0.1917
12721SOL    HW243011   4.092   4.235   1.530  0.6642  0.3860 -0.7879
12722SOL     OW43012   3.271   2.779   2.281  0.5035  0.0237 -0.5207
12722SOL    HW143013   3.249   2.765   2.373  0.8146  0.4704 -0.3789
12722SOL    HW243014   3.269   2.691   2.242  0.1373 -0.1373 -0.1429
12723SOL     OW43015   5.163   2.025   2.299  0.3547 -0.2950 -0.8565
12723SOL    HW143016   5.164   2.023   2.395  1.0776 -0.1767 -0.8546
12723SOL    HW243017   5.070   2.023   2.276  0.1534  0.2061 -0.1384
12724SOL     OW43018   4.961   3.710   1.960  0.1524  0.7734  0.0973
12724SOL    HW143019   4.974   3.714   1.865  0.8496  0.1427  0.1552
12724SOL    HW243020   4.888   3.770   1.977 -1.7221 -1.0316 -1.1444
12725SOL     OW43021   3.335   4.606   2.541  0.4090 -0.3804 -0.3171
12725SOL    HW143022   3.290   4.619   2.458  0.2098 -2.6099 -0.6106
12725SOL    HW243023   3.381   4.523   2.532 -1.4971 -1.9491  2.5251
12726SOL     OW43024   3.523   4.037   0.932  0.1919  0.3363 -0.3175
12726SOL    HW143025   3.594   4.098   0.915  0.4169 -0.0767 -0.8788
12726SOL    HW243026   3.491   4.012   0.846  0.2911 -0.5455 -0.1144
12727SOL     OW43027   4.701   1.001   1.786 -0.0020  0.2339 -0.0407
12727SOL    HW143028   4.646   1.043   1.851 -0.3575 -2.1315  1.2853
12727SOL    HW243029   4.656   0.919   1.765  1.7272 -0.5703 -0.8281
12728SOL     OW43030   6.851   4.200   3.369  0.2176  0.0004  0.3973
12728SOL    HW143031   6.880   4.114   3.401  0.6524 -0.4086 -1.0289
12728SOL    HW243032   6.801   4.237   3.442  1.4727 -0.7243  1.6842
12729SOL     OW43033   1.748   4.540   2.881 -0.3699 -0.2167  0.1605
12729SOL    HW143034   1.685   4.476   2.914 -1.3817  1.5319  1.8434
12729SOL    HW243035   1.693   4.613   2.849  0.7708  0.5063 -0.2080
12730SOL     OW43036   2.747   3.204   2.026 -0.2828 -0.0210 -0.2321
12730SOL    HW143037   2.668   3.173   1.982  0.4184 -1.3885 -0.5717
12730SOL    HW243038   2.716   3.235   2.111 -1.3332  0.5253 -0.8023
12731SOL     OW43039   2.613   1.963   4.588  0.0877 -0.0779  0.8708
12731SOL    HW143040   2.636   2.012   4.509 -0.0349  0.9128  1.4359
12731SOL    HW243041   2.697   1.938   4.626  0.1918 -2.7099 -0.8190
12732SOL     OW43042   4.036   4.700   2.142  0.2895 -0.6069 -0.5305
12732SOL    HW143043   4.118   4.652   2.131 -0.0129 -0.8759 -1.8486
12732SOL    HW243044   4.042   4.770   2.077 -0.9069 -1.1849 -1.2854
12733SOL     OW43045   6.257   3.626   4.754 -0.5149 -0.1743 -0.2441
12733SOL    HW143046   6.166   3.644   4.731 -0.7048  0.1484  0.7099
12733SOL    HW243047   6.300   3.608   4.670 -0.9469  1.9169 -0.9822
12734SOL     OW43048   4.446   4.723   0.971 -0.1201 -0.0461 -0.7770
12734SOL    HW143049   4.413   4.768   0.893 -0.3639  2.3935  0.6545
12734SOL    HW243050   4.370   4.677   1.006 -0.4621  0.3692 -0.9665
12735SOL     OW43051   4.675   4.585   3.512  0.3427 -0.7230 -0.1632
12735SOL    HW143052   4.653   4.675   3.535  0.8468 -0.0807 -1.9676
12735SOL    HW243053   4.594   4.536   3.527 -0.0683  0.1169  0.4360
12736SOL     OW43054   5.816   4.490   1.514  0.7587 -0.0916 -0.1117
12736SOL    HW143055   5.834   4.525   1.601 -0.7265  0.3899  0.0352
12736SOL    HW243056   5.835   4.562   1.454  0.7470 -0.0630 -0.0810
12737SOL     OW43057   6.279   2.436   2.581  0.1305 -0.8925  0.0385
12737SOL    HW143058   6.374   2.448   2.583  0.1808  1.1328 -4.3160
12737SOL    HW243059   6.266   2.357   2.529 -0.4529  0.6188 -2.2643
12738SOL     OW43060   4.555   2.123   4.603  0.7597 -0.8437  0.0869
12738SOL    HW143061   4.634   2.118   4.658  0.9869  0.8095 -0.0294
12738SOL    HW243062   4.507   2.043   4.623  1.3636 -0.8093  1.9040
12739SOL     OW43063   7.847   2.819   1.769  0.5927  0.1458 -0.3379
12739SOL    HW143064   7.830   2.805   1.863 -1.5543  2.9370 -0.1902
12739SOL    HW243065   7.942   2.814   1.761  0.8166 -0.5078  1.9163
12740SOL     OW43066   5.541   1.803   3.772 -0.9713 -0.0258  0.3514
12740SOL    HW143067   5.514   1.876   3.826 -2.0749 -0.3029  0.1902
12740SOL    HW243068   5.527   1.726   3.826  1.5452 -0.0775  1.0678
12741SOL     OW43069   4.089   1.846   3.966  0.2332 -0.3236  0.4995
12741SOL    HW143070   4.044   1.792   3.901 -0.6385 -0.3432  1.0989
12741SOL    HW243071   4.054   1.816   4.050 -0.5620  1.4133  0.8400
12742SOL     OW43072   3.202   4.295   2.688  0.4443  0.1612  0.2361
12742SOL    HW143073   3.272   4.252   2.638 -0.8880 -0.3673 -1.2526
12742SOL    HW243074   3.156   4.224   2.732 -2.7571 -0.4048 -3.4756
12743SOL     OW43075   5.196   3.256   1.564  0.1066 -0.0569  0.0717
12743SOL    HW143076   5.103   3.246   1.582 -0.5727  2.5264 -1.6195
12743SOL    HW243077   5.221   3.338   1.608  2.1913 -1.7121  2.3187
12744SOL     OW43078   5.938   2.715   9.504  0.0900 -0.3735 -0.1772
12744SOL    HW143079   5.869   2.730   9.439 -0.5374 -2.6637 -0.1462
12744SOL    HW243080   5.891   2.709   9.587  0.8794  2.4798  0.5991
12745SOL     OW43081   1.653   4.105   4.535  0.0107  0.3056 -0.0807
12745SOL    HW143082   1.583   4.046   4.562  1.3413 -1.6965 -0.7973
12745SOL    HW243083   1.718   4.098   4.605  1.6129 -1.6850 -1.6494
12746SOL     OW43084   2.783   4.542   9.027  0.0105  0.1118 -0.0740
12746SOL    HW143085   2.705   4.596   9.035 -0.4141 -0.6197  1.0061
12746SOL    HW243086   2.787   4.518   8.935 -1.5854 -0.6269  0.0200
12747SOL     OW43087   5.562   2.128   1.963  0.1864 -0.9594  0.0682
12747SOL    HW143088   5.518   2.086   2.036 -2.3288 -0.3125 -0.9520
12747SOL    HW243089   5.571   2.220   1.990  1.1500 -1.1353  0.3622
12748SOL     OW43090   1.891   1.948   2.284  0.5008 -0.2785 -0.1270
12748SOL    HW143091   1.946   2.024   2.304 -0.0752 -0.2834  1.7318
12748SOL    HW243092   1.854   1.923   2.369 -0.8927 -1.4130 -1.0213
12749SOL     OW43093   3.291   1.252   3.141  0.3024  0.0735 -0.7519
12749SOL    HW143094   3.386   1.247   3.150  0.4952  2.2950 -0.8028
12749SOL    HW243095   3.262   1.162   3.131  2.1241 -0.9318  1.9704
12750SOL     OW43096   4.196   1.631   3.176 -0.1100 -0.1444  0.0522
12750SOL    HW143097   4.287   1.661   3.180 -0.3514  0.4699  2.3630
12750SOL    HW243098   4.197   1.546   3.220 -0.4509 -0.7966 -1.1578
12751SOL     OW43099   4.038   0.954   2.753 -0.6394  0.1189 -0.8008
12751SOL    HW143100   4.042   0.922   2.843 -0.9732  1.6736 -0.2100
12751SOL    HW243101   4.052   0.876   2.699  3.6851 -0.3305  0.5779
12752SOL     OW43102   4.854   1.360   3.172  0.6956 -0.3120  0.0724
12752SOL    HW143103   4.779   1.311   3.138  0.5672  0.0627 -0.1884
12752SOL    HW243104   4.844   1.355   3.267 -0.2269  0.5709  0.0515
12753SOL     OW43105   6.752   3.611   4.929  0.0694 -0.1325  0.1893
12753SOL    HW143106   6.769   3.654   4.846 -1.5259  0.1624 -0.0132
12753SOL    HW243107   6.827   3.633   4.984  0.8245  0.2033 -0.9522
12754SOL     OW43108   5.473   2.431   2.241 -0.3041  0.3581 -0.1027
12754SOL    HW143109   5.470   2.342   2.276 -2.4305  0.2788 -0.3565
12754SOL    HW243110   5.536   2.426   2.170 -1.5632 -1.4106 -1.1945
12755SOL     OW43111   4.878   4.181   3.696  0.2547 -0.4689  0.0831
12755SOL    HW143112   4.970   4.200   3.681 -0.0649  0.0062 -1.4064
12755SOL    HW243113   4.840   4.266   3.719  0.0897 -0.5637  0.1595
12756SOL     OW43114   5.654   8.625   0.755 -0.0531 -0.1052  0.1660
12756SOL    HW143115   5.582   8.643   0.814  0.4522  0.0535  0.7495
12756SOL    HW243116   5.621   8.559   0.695 -1.4022  1.4767 -0.9460
12757SOL     OW43117   6.197   1.547   0.171 -0.2028 -0.0228 -0.1036
12757SOL    HW143118   6.180   1.630   0.127  0.1422 -0.2167 -0.6091
12757SOL    HW243119   6.237   1.492   0.104  2.2533  0.3327  0.9617
12758SOL     OW43120   4.366   3.258   3.113 -0.1659  0.2178 -0.0868
12758SOL    HW143121   4.460   3.272   3.127  0.4730 -0.0852 -3.2112
12758SOL    HW243122   4.323   3.332   3.155  1.6487  1.4729 -0.3434
12759SOL     OW43123   5.500   1.626   2.966 -0.1566  0.4682  0.1977
12759SOL    HW143124   5.482   1.691   2.898 -0.3956 -0.3902 -0.5861
12759SOL    HW243125   5.414   1.589   2.986 -0.0160  0.3613  0.6103
12760SOL     OW43126   3.431   6.088   1.977  0.2365 -0.1289 -0.0261
12760SOL    HW143127   3.338   6.112   1.980  0.4341  0.6243  0.7115
12760SOL    HW243128   3.445   6.035   2.056  0.1639 -1.3251 -0.8031
12761SOL     OW43129   1.747   3.755   6.120 -0.2306 -0.3654 -0.2145
12761SOL    HW143130   1.689   3.680   6.107 -0.1811 -0.3727 -0.3914
12761SOL    HW243131   1.721   3.818   6.052 -1.6427  0.6303  1.1547
12762SOL     OW43132   4.270   1.716   5.453  0.5499  0.0409  0.4189
12762SOL    HW143133   4.191   1.725   5.505  0.4086 -1.2809  0.4731
12762SOL    HW243134   4.264   1.786   5.387  0.3389  1.2108  1.6356
12763SOL     OW43135   3.282   1.722   4.181  0.6584  0.1002 -0.2911
12763SOL    HW143136   3.326   1.743   4.264 -0.6604  0.0170  0.4565
12763SOL    HW243137   3.190   1.744   4.196  0.5328  0.9440 -2.0599
12764SOL     OW43138   6.285   3.432   4.219 -0.5925  0.9915 -0.8661
12764SOL    HW143139   6.229   3.471   4.287 -1.0789  2.0762 -1.8641
12764SOL    HW243140   6.226   3.416   4.146  0.2675  1.5070 -1.6869
12765SOL     OW43141   3.387   1.534   3.612  0.0941 -0.4190  0.0083
12765SOL    HW143142   3.344   1.585   3.544  0.7151  0.4352  0.2389
12765SOL    HW243143   3.360   1.444   3.595 -1.7715  0.0827  0.1633
12766SOL     OW43144   3.960   1.415   3.016  0.4507  0.1904  0.0362
12766SOL    HW143145   3.948   1.507   3.042  2.1626  0.8078 -1.1471
12766SOL    HW243146   3.922   1.410   2.929  0.9476 -0.0463 -0.1681
12767SOL     OW43147   4.517   3.640   2.038 -0.6078  0.2065 -0.6453
12767SOL    HW143148   4.485   3.582   2.106  0.9261 -1.4518 -1.2785
12767SOL    HW243149   4.444   3.701   2.022 -0.7980  1.0943  2.8499
12768SOL     OW43150   7.253   3.644   2.946  0.0620 -0.3098 -0.5711
12768SOL    HW143151   7.170   3.692   2.943  0.1241 -0.2509 -2.0894
12768SOL    HW243152   7.280   3.637   2.855  1.3236 -1.0556 -0.1667
12769SOL     OW43153   5.293   1.037   3.196  0.8890  0.1234  0.8626
12769SOL    HW143154   5.265   0.960   3.146  2.0964  0.4326 -0.3704
12769SOL    HW243155   5.252   1.111   3.151 -0.6505  0.1972  2.3291
12770SOL     OW43156   3.771   2.901   4.312 -0.1064  0.0175  0.0443
12770SOL    HW143157   3.771   2.996   4.318 -0.3495 -0.0673  3.5698
12770SOL    HW243158   3.681   2.875   4.332  0.5036 -0.9595  1.7319
12771SOL     OW43159   4.257   2.977   4.706 -0.2804 -0.0055 -0.2125
12771SOL    HW143160   4.284   3.067   4.723  0.6933 -0.3930  0.3087
12771SOL    HW243161   4.184   2.962   4.766 -0.6851  0.5476 -0.5589
12772SOL     OW43162   3.155   5.842   2.149 -0.0636  0.1199 -0.1364
12772SOL    HW143163   3.224   5.814   2.089 -0.7083 -0.8908 -0.4429
12772SOL    HW243164   3.108   5.761   2.171 -0.5941  0.6519  0.7780
12773SOL     OW43165   4.230   4.767   4.266  0.6198  0.2300 -0.6078
12773SOL    HW143166   4.314   4.796   4.229  0.5265  0.8600 -0.3438
12773SOL    HW243167   4.190   4.848   4.299 -0.8875  0.2512 -2.3081
12774SOL     OW43168   4.704   1.874   4.891 -0.3484 -0.7289  0.1824
12774SOL    HW143169   4.754   1.802   4.929  0.4827  0.4194  1.3624
12774SOL    HW243170   4.616   1.863   4.926 -0.2567 -1.2182  0.2716
12775SOL     OW43171   6.492   2.462   3.880  0.2116 -0.1620 -0.4204
12775SOL    HW143172   6.538   2.414   3.949 -0.0276 -0.9417 -0.7858
12775SOL    HW243173   6.399   2.454   3.903  0.1070 -0.7196 -1.0078
12776SOL     OW43174   4.824   6.052   3.152 -0.9895 -0.6926  0.0689
12776SOL    HW143175   4.788   6.018   3.233 -2.0751 -1.0674 -0.5419
12776SOL    HW243176   4.775   6.007   3.083 -0.2424 -0.2347 -0.7891
12777SOL     OW43177   2.957   3.242   3.419  0.4303 -0.1994  0.1172
12777SOL    HW143178   2.945   3.153   3.453  0.3571 -0.0345  0.5361
12777SOL    HW243179   2.994   3.290   3.494 -0.1973  0.2947  0.1118
12778SOL     OW43180   3.440   5.203   1.630  0.3021  0.7999 -0.1168
12778SOL    HW143181   3.415   5.261   1.701 -0.3070  0.1694  0.1916
12778SOL    HW243182   3.392   5.122   1.647  2.0324 -0.2230  0.1238
12779SOL     OW43183   2.535   3.345   4.581  0.1098 -0.0335 -0.4710
12779SOL    HW143184   2.449   3.351   4.624  0.3285  2.7447 -0.2070
12779SOL    HW243185   2.556   3.252   4.582 -1.7391 -0.5359  1.8270
12780SOL     OW43186   3.282   3.050   2.300  0.5261 -0.0333 -0.5323
12780SOL    HW143187   3.297   2.961   2.269 -2.5375 -0.7709 -0.1635
12780SOL    HW243188   3.244   3.096   2.224 -1.9285 -0.3295  0.4342
12781SOL     OW43189   3.376   3.583   4.803  0.5253  0.0067 -0.3259
12781SOL    HW143190   3.293   3.537   4.799  0.6772 -0.2796 -0.2206
12781SOL    HW243191   3.396   3.605   4.712 -0.3284  1.2881 -0.2320
12782SOL     OW43192   6.504   1.525   5.714  0.0340 -0.1416  0.1731
12782SOL    HW143193   6.462   1.572   5.786  1.7208  0.7967  0.6227
12782SOL    HW243194   6.580   1.580   5.692  0.0182 -0.8458 -1.7681
12783SOL     OW43195   3.261   3.079   6.570  0.0882  0.0853  0.5845
12783SOL    HW143196   3.172   3.056   6.599 -0.6307  1.4489 -0.4322
12783SOL    HW243197   3.265   3.049   6.479  0.1222  1.3775  0.1458
12784SOL     OW43198   9.030   4.267   3.197  0.6618  0.2945 -0.3821
12784SOL    HW143199   9.125   4.254   3.206  0.3600 -0.7904  1.9095
12784SOL    HW243200   9.014   4.354   3.233  0.6973  0.0806  0.1681
12785SOL     OW43201   6.535   3.808   2.378 -0.1193 -0.8576  0.5202
12785SOL    HW143202   6.446   3.788   2.350 -0.0538 -2.0858  1.1430
12785SOL    HW243203   6.525   3.884   2.436 -0.4236  0.7335 -1.4934
12786SOL     OW43204   6.130   3.515   4.439 -0.1790 -0.0064  0.1339
12786SOL    HW143205   6.149   3.426   4.466  0.8492  0.3167  0.5273
12786SOL    HW243206   6.040   3.530   4.466  0.0862 -0.4758  1.3131
12787SOL     OW43207   2.012   2.610   1.675  0.2527  0.3446 -0.2078
12787SOL    HW143208   2.055   2.565   1.602 -0.1383 -0.2594 -0.0748
12787SOL    HW243209   2.005   2.701   1.647  2.4964  0.6931  0.1620
12788SOL     OW43210   3.550   2.179   3.797 -0.3385  0.3486  0.6379
12788SOL    HW143211   3.539   2.085   3.786 -1.2738  0.5332 -0.1429
12788SOL    HW243212   3.642   2.196   3.775 -0.2800 -0.3189  0.3599
12789SOL     OW43213   2.819   3.222   2.868 -0.0923  0.4009  0.1412
12789SOL    HW143214   2.870   3.226   2.948  1.1477  1.1945 -0.6662
12789SOL    HW243215   2.831   3.133   2.836  1.0105  0.6569 -0.1768
12790SOL     OW43216   4.162   3.771   3.922 -0.7868 -0.1831  0.2974
12790SOL    HW143217   4.179   3.778   4.016 -0.1310 -0.7265  0.2262
12790SOL    HW243218   4.230   3.712   3.890 -2.9555 -2.6699  0.0260
12791SOL     OW43219   5.387   0.422   5.625  0.3037 -0.7319  0.1041
12791SOL    HW143220   5.476   0.419   5.661  0.1440 -1.1189  0.4766
12791SOL    HW243221   5.397   0.464   5.540  0.5022  1.5503  1.1763
12792SOL     OW43222   3.836   0.347   2.906 -0.4190 -0.1862  0.3824
12792SOL    HW143223   3.766   0.411   2.920 -0.4520 -0.0691 -0.2865
12792SOL    HW243224   3.847   0.305   2.991  0.7141  1.8222  1.3218
12793SOL     OW43225   3.994   2.388   2.660  0.1185  0.2654 -0.0013
12793SOL    HW143226   3.911   2.435   2.667  1.3615  2.5940 -0.2417
12793SOL    HW243227   3.979   2.323   2.591 -2.4059 -1.5355  2.0047
12794SOL     OW43228   5.543   3.258   5.934  0.1113  0.4310  0.1764
12794SOL    HW143229   5.512   3.324   5.872  0.2538 -0.4356 -0.8444
12794SOL    HW243230   5.466   3.205   5.954  0.6757 -1.3265 -1.8697
12795SOL     OW43231   2.840   2.516   6.173 -0.1868  0.0089  0.0579
12795SOL    HW143232   2.815   2.441   6.120 -1.6738  0.4828  0.0374
12795SOL    HW243233   2.852   2.481   6.261  0.5581 -0.4809 -0.2279
12796SOL     OW43234   5.260   1.726   7.410  0.2677  0.0118 -0.2358
12796SOL    HW143235   5.255   1.771   7.494 -1.3075 -1.2267  0.3914
12796SOL    HW243236   5.192   1.768   7.357 -0.3804 -0.8046 -0.0597
12797SOL     OW43237   4.808   2.565   3.403 -0.5285  0.2199 -0.2484
12797SOL    HW143238   4.741   2.630   3.380 -0.5756 -0.2432 -1.4837
12797SOL    HW243239   4.813   2.508   3.327  1.8210  0.7038 -0.5373
12798SOL     OW43240   5.551   3.622   3.398 -0.2807 -0.4596  0.0646
12798SOL    HW143241   5.622   3.559   3.383  0.7953  0.6037  0.5309
12798SOL    HW243242   5.540   3.665   3.313  1.2629  0.9695  0.5321
12799SOL     OW43243   6.051   0.889   6.810  0.0300  0.2378 -0.2709
12799SOL    HW143244   6.060   0.813   6.751 -0.1067 -0.3071  0.3949
12799SOL    HW243245   5.989   0.946   6.766  0.9822  0.4934 -1.3204
12800SOL     OW43246   4.512   4.406   2.915  0.3036  0.1282  0.7613
12800SOL    HW143247   4.538   4.361   2.996 -1.3803 -2.2853  0.0675
12800SOL    HW243248   4.437   4.460   2.941  0.2818  0.0049  0.9596
12801SOL     OW43249   3.048   2.399   5.428  0.2520 -0.0232  0.7461
12801SOL    HW143250   3.034   2.325   5.487 -0.6338 -0.6539 -0.2228
12801SOL    HW243251   3.011   2.474   5.474 -1.5023 -0.7082  0.5378
12802SOL     OW43252   5.612   2.255   5.341 -0.1090  0.8549 -0.3328
12802SOL    HW143253   5.529   2.250   5.294  0.0230  2.1201 -0.7316
12802SOL    HW243254   5.616   2.344   5.375  1.6360  1.2319 -1.3803
12803SOL     OW43255   7.144   2.638   3.284 -0.1075  0.6034  0.4373
12803SOL    HW143256   7.103   2.560   3.248  0.2951 -0.9447  3.0845
12803SOL    HW243257   7.071   2.695   3.309 -0.4391  0.5044 -0.2863
12804SOL     OW43258   5.877   3.673   3.776  0.0790 -0.0854  0.7356
12804SOL    HW143259   5.929   3.742   3.816  1.7010 -1.0144  0.2959
12804SOL    HW243260   5.873   3.697   3.683 -1.5200  0.7186  0.9739
12805SOL     OW43261   3.443   7.738   4.480 -0.7515 -0.1221 -0.1686
12805SOL    HW143262   3.406   7.753   4.393 -0.7762 -0.5824 -0.2364
12805SOL    HW243263   3.422   7.818   4.528 -2.0542 -0.4791 -0.1293
12806SOL     OW43264   7.355   1.293   2.977  0.2384  0.3668  0.3244
12806SOL    HW143265   7.265   1.283   3.007  0.3737  0.7259  0.8536
12806SOL    HW243266   7.405   1.231   3.030  0.4855  1.0382  0.8880
12807SOL     OW43267   3.848   3.631   2.850 -0.1342  0.3421 -0.9745
12807SOL    HW143268   3.839   3.719   2.887 -0.9467  0.4738 -1.4626
12807SOL    HW243269   3.939   3.626   2.821 -0.1109  1.0668 -1.0343
12808SOL     OW43270   4.859   9.408   2.982 -0.5944 -0.0058  0.0635
12808SOL    HW143271   4.907   9.340   3.029  0.8162 -0.1286 -1.4600
12808SOL    HW243272   4.913   9.487   2.991 -0.7334  0.1734 -0.6328
12809SOL     OW43273   3.693   2.778   6.938  0.2059 -0.1909  0.0564
12809SOL    HW143274   3.781   2.798   6.969  0.8148 -2.4632 -0.0164
12809SOL    HW243275   3.704   2.760   6.844 -0.0411 -1.8470  0.3161
12810SOL     OW43276   7.365   3.994   5.787  0.1158  0.2515 -0.0968
12810SOL    HW143277   7.421   4.048   5.731 -2.5512  0.1589 -3.1136
12810SOL    HW243278   7.333   4.055   5.853 -0.7114  1.8017 -1.8325
12811SOL     OW43279   4.421   1.910   4.587  0.0199 -0.1200 -0.1728
12811SOL    HW143280   4.395   1.884   4.675  1.2575 -0.6060  0.0769
12811SOL    HW243281   4.411   1.830   4.535 -0.4350  0.0917 -0.4180
12812SOL     OW43282   4.421   3.664   3.952 -0.1702  1.0696  0.4148
12812SOL    HW143283   4.437   3.573   3.978 -1.2133  0.4517 -0.9379
12812SOL    HW243284   4.442   3.715   4.030  0.4880 -0.3179  1.1997
12813SOL     OW43285   2.987   4.637   4.041 -0.4384 -0.6094 -0.4824
12813SOL    HW143286   3.079   4.614   4.026 -0.4286  0.0105 -1.5410
12813SOL    HW243287   2.953   4.569   4.099  1.3004  0.4526  1.9232
12814SOL     OW43288   3.431   0.810   2.446 -0.6471 -0.0914 -0.2281
12814SOL    HW143289   3.426   0.835   2.353  0.2465  0.5403 -0.1085
12814SOL    HW243290   3.501   0.746   2.450 -0.3643  0.2376  0.0918
12815SOL     OW43291   7.406   2.366   3.421 -0.1648 -0.5672  0.2936
12815SOL    HW143292   7.441   2.378   3.333 -1.3873  0.2855 -0.1008
12815SOL    HW243293   7.454   2.290   3.455 -0.3054 -1.4929 -1.4438
12816SOL     OW43294   5.210   0.580   4.581  0.0556 -0.1615 -0.0930
12816SOL    HW143295   5.119   0.589   4.608 -0.4136 -0.7894 -1.3969
12816SOL    HW243296   5.215   0.494   4.540  1.1060  0.0925 -0.5421
12817SOL     OW43297   4.373   1.441   3.299 -0.6023  0.1480 -0.0744
12817SOL    HW143298   4.395   1.478   3.384 -0.0440  1.4837 -0.7640
12817SOL    HW243299   4.444   1.470   3.242 -1.0863 -0.5241 -1.0399
12818SOL     OW43300   2.482   1.900   5.356  0.1682 -0.1046 -0.2022
12818SOL    HW143301   2.429   1.868   5.428  1.6197 -0.7301  0.6227
12818SOL    HW243302   2.422   1.952   5.303 -1.1512 -0.4544  0.9132
12819SOL     OW43303   5.053   2.972   3.120 -0.1376 -0.3104 -0.6960
12819SOL    HW143304   5.101   3.039   3.071  3.1873 -0.7163  1.6660
12819SOL    HW243305   5.070   2.891   3.072  0.8263 -0.3047 -0.3874
12820SOL     OW43306   3.758   3.863   6.257 -0.3707  0.2110 -0.0359
12820SOL    HW143307   3.779   3.779   6.296 -1.9782 -0.2604 -0.1018
12820SOL    HW243308   3.832   3.882   6.199 -0.4791 -1.6872 -0.8732
12821SOL     OW43309   2.164   4.532   3.283  0.1608 -0.4982 -0.4514
12821SOL    HW143310   2.238   4.476   3.259 -0.6105 -1.5951 -0.3684
12821SOL    HW243311   2.109   4.477   3.339 -1.1881 -0.0357 -1.2574
12822SOL     OW43312   2.625   3.067   2.632 -0.1445 -0.0458 -0.2743
12822SOL    HW143313   2.705   3.055   2.682  0.8393 -0.1842 -1.8261
12822SOL    HW243314   2.570   2.992   2.655  0.2211 -0.0205  0.6926
12823SOL     OW43315   6.804   1.048   6.130  0.1712  0.2138 -0.0153
12823SOL    HW143316   6.813   1.142   6.115 -0.0120 -0.1238 -2.8092
12823SOL    HW243317   6.710   1.034   6.138  0.0076  0.0800 -1.7196
12824SOL     OW43318   6.486   2.686   4.169  0.0668  0.2520  0.3112
12824SOL    HW143319   6.575   2.661   4.142  1.0665  1.5117  2.1905
12824SOL    HW243320   6.453   2.740   4.098  0.4866 -0.8493 -0.7498
12825SOL     OW43321   3.956   2.426   1.759  0.3616  0.1262  0.0641
12825SOL    HW143322   3.902   2.505   1.748  0.2680 -0.0357 -0.7016
12825SOL    HW243323   4.045   2.460   1.768  0.8756  0.2604 -3.9619
12826SOL     OW43324   5.807   0.985   4.039  0.3777 -0.2809  0.0722
12826SOL    HW143325   5.820   0.981   3.944 -0.0288  0.1597 -0.0055
12826SOL    HW243326   5.896   0.992   4.075  0.5367 -0.4990 -0.2716
12827SOL     OW43327   3.578   2.997   7.393 -0.3804  0.6274 -0.1283
12827SOL    HW143328   3.539   2.967   7.474 -0.2977  0.7474 -0.0430
12827SOL    HW243329   3.576   2.921   7.335  1.9921 -0.2804  0.8637
12828SOL     OW43330   4.327   2.941   2.373 -0.1947  0.3365  0.2977
12828SOL    HW143331   4.391   2.871   2.376  0.7741  1.2460  2.1994
12828SOL    HW243332   4.249   2.901   2.334  0.8866 -1.2847 -0.2845
12829SOL     OW43333   3.831   3.294   3.951  0.1591 -0.1513 -0.6462
12829SOL    HW143334   3.871   3.227   3.895  1.0915  1.5179 -2.1134
12829SOL    HW243335   3.744   3.308   3.913  0.7460  0.8938 -1.6840
12830SOL     OW43336   4.819   4.424   3.789  0.0139 -0.4410 -0.3364
12830SOL    HW143337   4.743   4.479   3.775  1.3910  1.2363 -1.6765
12830SOL    HW243338   4.864   4.464   3.864 -0.6600 -1.7668  0.8306
12831SOL     OW43339   6.063   0.249   6.270 -0.7590  0.5661  0.0520
12831SOL    HW143340   6.010   0.288   6.339 -1.7651 -1.1774  0.3441
12831SOL    HW243341   6.019   0.165   6.251  1.1345 -0.3230 -0.6513
12832SOL     OW43342   3.195   3.670   3.561  0.2355 -0.2558  0.3959
12832SOL    HW143343   3.124   3.674   3.497 -0.0735  1.4796  0.7951
12832SOL    HW243344   3.153   3.692   3.645  1.1558  0.3475  0.7093
12833SOL     OW43345   4.365   1.170   3.411 -0.1719  0.7382 -0.2398
12833SOL    HW143346   4.342   1.257   3.378  0.2016 -0.0415 -2.7967
12833SOL    HW243347   4.441   1.144   3.359  1.9515  0.2179  2.8304
12834SOL     OW43348   3.767   1.841   4.302  0.8245 -0.4127  0.3743
12834SOL    HW143349   3.820   1.906   4.257  2.3473 -1.2099  0.9429
12834SOL    HW243350   3.717   1.891   4.367  2.6920  0.1251  1.4716
12835SOL     OW43351   5.539   4.703   2.450 -0.0214  0.1417 -0.5379
12835SOL    HW143352   5.509   4.786   2.486 -1.8350 -0.3373 -0.8636
12835SOL    HW243353   5.471   4.677   2.388  0.1136 -1.9520  0.1020
12836SOL     OW43354   5.674   2.739   5.822 -0.4349 -0.2762  0.2188
12836SOL    HW143355   5.710   2.661   5.864  0.7420  0.1230 -0.0092
12836SOL    HW243356   5.720   2.812   5.863 -0.5558  0.2211 -0.5093
12837SOL     OW43357   1.862   0.032   5.354  0.1672  0.2775 -0.0117
12837SOL    HW143358   1.839  -0.005   5.269 -3.0618  1.2617  0.3236
12837SOL    HW243359   1.852   0.126   5.344  1.8925  0.6058  0.9195
12838SOL     OW43360   4.443   4.297   0.249  0.5629  0.5075 -0.0983
12838SOL    HW143361   4.440   4.377   0.196 -0.3658 -0.8392 -2.2367
12838SOL    HW243362   4.379   4.312   0.318 -0.8290  1.0222 -1.4411
12839SOL     OW43363   4.866   5.465   4.314 -0.1331  0.5343  0.5940
12839SOL    HW143364   4.812   5.511   4.378  0.7131  1.1167  0.9045
12839SOL    HW243365   4.911   5.534   4.266  1.4824  0.0401  1.3401
12840SOL     OW43366   6.823   4.629   4.446  0.0391 -0.2248 -0.5050
12840SOL    HW143367   6.862   4.693   4.505 -1.8568 -1.3764  2.2086
12840SOL    HW243368   6.892   4.565   4.430 -0.1710 -1.5401  3.1250
12841SOL     OW43369   6.437   3.997   3.979 -0.1299  0.3235  0.3639
12841SOL    HW143370   6.529   3.978   3.961  0.2638  0.9934  1.5888
12841SOL    HW243371   6.434   4.021   4.072 -1.5183  0.4705  0.3151
12842SOL     OW43372   2.588   2.305   4.594  0.8678  0.9432  0.0841
12842SOL    HW143373   2.622   2.353   4.520 -0.0211  0.9506 -0.3360
12842SOL    HW243374   2.651   2.234   4.609  2.1069  2.1299  0.6229
12843SOL     OW43375   4.827   1.606   4.864 -0.0125 -0.1849  0.3592
12843SOL    HW143376   4.860   1.516   4.865 -0.5575 -0.3933  0.3320
12843SOL    HW243377   4.880   1.652   4.928 -1.0619 -1.0263  1.8928
12844SOL     OW43378   4.704   1.147   6.063 -0.4434 -0.3100  0.2119
12844SOL    HW143379   4.674   1.057   6.066  0.6455 -0.6964 -0.0359
12844SOL    HW243380   4.710   1.174   6.154 -1.4859 -0.2281  0.2670
12845SOL     OW43381   3.325   3.895   1.993 -0.0787 -0.0688  0.5614
12845SOL    HW143382   3.233   3.904   2.015 -0.2256  1.2617 -0.4363
12845SOL    HW243383   3.369   3.962   2.044  0.3383 -0.6319  0.9581
12846SOL     OW43384   4.692   4.047   3.859 -0.7682 -0.7053 -0.2482
12846SOL    HW143385   4.686   3.960   3.819 -0.1680 -0.0211 -1.9208
12846SOL    HW243386   4.777   4.081   3.831 -0.3254 -0.1374  1.6231
12847SOL     OW43387   6.104   1.874   5.131 -0.9181  0.5227  0.2491
12847SOL    HW143388   6.126   1.783   5.110  0.0630  0.8645 -0.2835
12847SOL    HW243389   6.045   1.900   5.060  0.1218  0.7938 -0.5467
12848SOL     OW43390   4.666   2.351   4.811 -0.2734  0.3410  0.2517
12848SOL    HW143391   4.592   2.364   4.871 -0.4259 -0.1889  0.1833
12848SOL    HW243392   4.684   2.257   4.815  1.2854  0.6635  1.2889
12849SOL     OW43393   6.141   6.481   3.935 -0.0295  0.0560 -0.1879
12849SOL    HW143394   6.082   6.510   3.866 -0.1584 -1.7967 -0.9159
12849SOL    HW243395   6.085   6.472   4.012 -0.3077  0.1420 -0.3802
12850SOL     OW43396   2.842   0.493   2.899 -0.0065  0.3117  0.1456
12850SOL    HW143397   2.869   0.581   2.872 -0.5016  0.4268  0.0205
12850SOL    HW243398   2.925   0.446   2.913  0.3688 -0.2883 -3.2198
12851SOL     OW43399   3.042   9.519   3.639 -0.3314  0.1569  0.0123
12851SOL    HW143400   2.949   9.526   3.618 -0.3636  0.0789  0.1234
12851SOL    HW243401   3.044   9.513   3.735 -0.2601 -0.5314 -0.0295
12852SOL     OW43402   4.736   0.394   5.700  0.2131 -0.3995  0.4264
12852SOL    HW143403   4.661   0.406   5.642  0.7068 -0.3939 -0.2224
12852SOL    HW243404   4.751   0.300   5.701  0.7452 -0.3339 -0.1728
12853SOL     OW43405   8.095   2.926   4.906  0.7951 -0.1071 -0.4055
12853SOL    HW143406   8.004   2.918   4.935  0.2080 -1.0077 -2.2484
12853SOL    HW243407   8.146   2.882   4.974  0.2076  2.5604  1.9281
12854SOL     OW43408   7.674   3.066   5.037  0.1500 -1.0138 -0.0765
12854SOL    HW143409   7.622   2.993   5.071 -1.5081  0.7193  1.3297
12854SOL    HW243410   7.734   3.087   5.108 -0.3123 -0.1792  0.0835
12855SOL     OW43411   7.022   1.912   5.919  0.2248 -0.5105 -0.3733
12855SOL    HW143412   6.936   1.916   5.960  0.6433 -2.2948  0.8058
12855SOL    HW243413   7.045   1.819   5.920  3.2694  0.0896  1.8062
12856SOL     OW43414   3.536   1.944   3.209 -0.3665 -0.2820 -0.3277
12856SOL    HW143415   3.578   1.882   3.150  1.3533  0.5838 -0.0747
12856SOL    HW243416   3.608   1.984   3.258 -1.4935  1.1506  0.2523
12857SOL     OW43417   4.709   1.578   3.437 -0.0740  0.7803  0.0900
12857SOL    HW143418   4.724   1.490   3.404 -1.1738  0.2399  0.9526
12857SOL    HW243419   4.738   1.574   3.529 -1.1457  0.9926  0.4498
12858SOL     OW43420   4.641   1.184   5.500  0.0908 -0.5087  0.8828
12858SOL    HW143421   4.709   1.251   5.487  1.0096 -1.6127 -0.3696
12858SOL    HW243422   4.588   1.217   5.572  0.9765  1.1872  0.8179
12859SOL     OW43423   3.986   2.210   3.091  0.3029  0.2280 -0.3138
12859SOL    HW143424   3.923   2.146   3.057  1.6694 -1.0627 -0.5103
12859SOL    HW243425   3.931   2.278   3.131 -1.2492 -2.0431  1.7742
12860SOL     OW43426   4.585   3.158   4.583  0.2002 -0.6294 -0.2420
12860SOL    HW143427   4.549   3.195   4.502 -1.7832 -1.2499  0.3165
12860SOL    HW243428   4.533   3.079   4.599  0.3337 -0.3546  1.8183
12861SOL     OW43429   3.997   1.978   2.327 -0.2217  0.4904 -0.2346
12861SOL    HW143430   3.948   1.995   2.246 -0.6641  0.1117 -0.0533
12861SOL    HW243431   4.080   1.942   2.298 -1.5313 -2.6461 -0.4926
12862SOL     OW43432   4.748   2.809   4.460 -0.2478  0.1193 -0.0339
12862SOL    HW143433   4.801   2.732   4.440 -0.3094  0.1542 -0.3369
12862SOL    HW243434   4.725   2.800   4.553  2.0879  1.1919  0.7267
12863SOL     OW43435   4.798   1.723   4.212  0.2669  0.1459  0.1813
12863SOL    HW143436   4.845   1.796   4.173 -0.0985 -0.5595 -1.6527
12863SOL    HW243437   4.859   1.649   4.208 -0.1282 -0.1800 -0.0178
12864SOL     OW43438   4.883   3.042   3.757 -0.1907  0.5204  0.1642
12864SOL    HW143439   4.868   2.971   3.694  1.4763 -0.3473  0.6947
12864SOL    HW243440   4.917   2.998   3.835  1.0202  1.9011  0.4573
12865SOL     OW43441   5.631   2.277   0.549 -0.4730  0.0632 -0.4907
12865SOL    HW143442   5.561   2.307   0.491 -0.4357  1.0148 -0.0802
12865SOL    HW243443   5.595   2.289   0.637 -0.3741 -0.9572 -0.3037
12866SOL     OW43444   7.106   2.089   2.048 -0.1443 -0.2032 -0.5062
12866SOL    HW143445   7.113   2.004   2.006 -1.7926 -0.0828 -1.0898
12866SOL    HW243446   7.059   2.071   2.130  0.0327  0.0666 -0.3436
12867SOL     OW43447   3.952   2.186   3.367 -0.4145 -0.2685  0.2843
12867SOL    HW143448   3.884   2.252   3.354 -1.2324 -0.7692  1.8389
12867SOL    HW243449   3.911   2.105   3.337 -0.0896 -0.3875  0.1647
12868SOL     OW43450   4.735   3.841   4.205 -0.5011  0.1717 -0.2696
12868SOL    HW143451   4.816   3.875   4.242 -0.2785 -0.7586  0.1289
12868SOL    HW243452   4.764   3.784   4.134 -0.7538 -0.8076  0.3968
12869SOL     OW43453   2.894   4.044   5.619 -0.2808  0.6271 -0.1308
12869SOL    HW143454   2.845   4.113   5.575  0.4906  1.3228  0.0817
12869SOL    HW243455   2.947   4.089   5.684 -0.5877 -0.2768  0.7755
12870SOL     OW43456   2.210   0.423   4.568 -0.1429  0.3209  0.5748
12870SOL    HW143457   2.148   0.455   4.633 -1.9962  0.4133 -1.1449
12870SOL    HW243458   2.221   0.330   4.588 -0.7269  0.3425  0.9992
12871SOL     OW43459   4.191   2.217   5.574  0.0535  0.4185  0.5780
12871SOL    HW143460   4.196   2.230   5.669 -0.4083  1.5085  0.4714
12871SOL    HW243461   4.121   2.275   5.546  2.4962  2.9650 -0.8593
12872SOL     OW43462   4.584   3.772   4.953  0.1574  0.2348  0.0503
12872SOL    HW143463   4.495   3.785   4.919  0.0829  0.3785  0.2948
12872SOL    HW243464   4.641   3.795   4.880 -0.0126 -0.3659 -0.2755
12873SOL     OW43465   5.644   2.900   6.718 -0.4125  0.4972  0.1938
12873SOL    HW143466   5.712   2.886   6.783 -0.9373  1.2199  0.9105
12873SOL    HW243467   5.678   2.859   6.638  1.7185  2.4885 -0.0180
12874SOL     OW43468   3.762   0.654   5.002  0.1598  0.0284 -0.3152
12874SOL    HW143469   3.689   0.685   5.056  0.6846 -0.3728  0.6482
12874SOL    HW243470   3.720   0.606   4.931 -0.5323 -2.8608  1.8411
12875SOL     OW43471   2.739   5.327   3.888 -0.2315  0.6919  0.3071
12875SOL    HW143472   2.814   5.345   3.945  0.2427  0.8836 -0.3687
12875SOL    HW243473   2.663   5.359   3.937 -0.1512 -1.3845  1.9377
12876SOL     OW43474   2.520   3.075   4.379 -0.3557  0.1298  0.0986
12876SOL    HW143475   2.428   3.079   4.405  0.0803  1.7358  1.6277
12876SOL    HW243476   2.566   3.051   4.460  0.4225 -3.0086 -1.1589
12877SOL     OW43477   4.130   2.417   5.018  0.1879 -0.2163 -0.0053
12877SOL    HW143478   4.172   2.394   5.101  1.6463  0.2582 -0.5817
12877SOL    HW243479   4.133   2.336   4.967  4.4378  0.7268 -1.6627
12878SOL     OW43480   5.332   3.114   2.666  0.0106 -0.0644  0.0737
12878SOL    HW143481   5.256   3.056   2.669  1.0545 -1.5088 -0.3658
12878SOL    HW243482   5.295   3.201   2.647 -1.4866 -0.7984 -0.5409
12879SOL     OW43483   6.685   2.927   2.507  0.2485 -0.0730 -0.3098
12879SOL    HW143484   6.646   2.894   2.588  0.1731 -0.9294 -0.6765
12879SOL    HW243485   6.748   2.993   2.536 -3.7504  3.9945  0.1471
12880SOL     OW43486   6.906   1.469   4.772  0.1090  0.2938 -0.2049
12880SOL    HW143487   6.825   1.435   4.811 -0.9028  1.2062 -1.4240
12880SOL    HW243488   6.877   1.544   4.720  1.6640  0.2510 -1.1689
12881SOL     OW43489   6.726   3.766   4.297  0.3691  0.0584  0.4573
12881SOL    HW143490   6.679   3.709   4.236  0.8853  0.0407  0.0688
12881SOL    HW243491   6.665   3.838   4.315 -0.2402 -0.5439  0.8549
12882SOL     OW43492   5.673   2.713   4.995 -0.2083 -0.0791  0.1792
12882SOL    HW143493   5.764   2.696   4.969 -0.2778 -1.0657  0.5461
12882SOL    HW243494   5.620   2.670   4.928 -0.3974 -0.0718  0.3239
12883SOL     OW43495   4.140   2.157   6.626 -0.3265 -0.8416  0.0705
12883SOL    HW143496   4.161   2.098   6.554 -0.2722 -0.8067  0.0576
12883SOL    HW243497   4.052   2.132   6.654 -0.5824 -0.4752 -0.3906
12884SOL     OW43498   4.856   0.516   2.593 -0.6697 -0.3908 -0.2742
12884SOL    HW143499   4.763   0.506   2.612 -0.7168 -0.9176 -0.7450
12884SOL    HW243500   4.889   0.427   2.587 -0.8296 -0.3440 -3.3548
12885SOL     OW43501   4.667   0.620   4.467 -0.1516  0.2122 -0.0858
12885SOL    HW143502   4.651   0.629   4.561 -2.0236  0.6558 -0.3974
12885SOL    HW243503   4.646   0.529   4.447 -1.8308  0.6280 -0.3819
12886SOL     OW43504   8.243   2.629   3.672  0.4422 -0.2656 -0.2230
12886SOL    HW143505   8.295   2.590   3.743  1.7915 -1.2355 -1.6537
12886SOL    HW243506   8.200   2.554   3.631 -0.2823  0.2811 -0.4663
12887SOL     OW43507   5.085   3.037   4.330  0.1631 -0.2500  0.8353
12887SOL    HW143508   5.024   2.970   4.298 -0.4268 -0.3520  2.1035
12887SOL    HW243509   5.143   3.054   4.256 -2.3281  0.9840 -1.0237
12888SOL     OW43510   2.817   1.460   6.452  0.1436 -0.3383  0.1592
12888SOL    HW143511   2.779   1.547   6.459  1.0933  0.1216 -0.3478
12888SOL    HW243512   2.893   1.462   6.510 -0.3537 -1.1388  0.8790
12889SOL     OW43513   6.829   3.658   2.882  0.7053 -0.7983  0.6159
12889SOL    HW143514   6.748   3.659   2.932  0.7256 -1.6266  0.6880
12889SOL    HW243515   6.812   3.712   2.806  0.5511  0.1853  1.3318
12890SOL     OW43516   3.731   4.440   4.253 -0.1466 -0.1196  0.2323
12890SOL    HW143517   3.761   4.350   4.240  0.8488  0.3735 -1.0748
12890SOL    HW243518   3.795   4.478   4.314 -0.5657 -0.2719  0.7817
12891SOL     OW43519   6.230   3.145   2.135  0.3928 -0.2950  0.1020
12891SOL    HW143520   6.291   3.097   2.078 -0.8743 -1.4291 -0.3441
12891SOL    HW243521   6.159   3.083   2.152 -0.4250  0.8454  0.9732
12892SOL     OW43522   2.819   4.515   5.734  0.3299 -0.3755 -0.2222
12892SOL    HW143523   2.728   4.533   5.709 -0.2542 -2.0588  0.4826
12892SOL    HW243524   2.868   4.521   5.652 -0.1941  1.6368 -0.4349
12893SOL     OW43525   9.545   3.869   3.955 -0.6200 -0.0728  0.0619
12893SOL    HW143526   9.564   3.963   3.955 -2.1775  0.2886 -0.7380
12893SOL    HW243527   9.630   3.827   3.960  0.0378  1.3698  2.4764
12894SOL     OW43528   3.992   0.048   2.922 -0.2814 -0.0176 -1.0149
12894SOL    HW143529   3.985   0.096   3.005  1.6890  0.7888 -1.2536
12894SOL    HW243530   3.911  -0.001   2.916 -1.2164  1.2250  0.5632
12895SOL     OW43531   3.675   3.164   2.356  0.0412 -0.2442 -0.2119
12895SOL    HW143532   3.708   3.087   2.402 -0.2173 -0.1164  0.1857
12895SOL    HW243533   3.752   3.220   2.346  0.0763 -0.2249  0.1563
12896SOL     OW43534   3.868   0.775   3.530 -0.5606 -0.6542  0.7505
12896SOL    HW143535   3.935   0.718   3.568  1.2385 -0.3155 -1.6616
12896SOL    HW243536   3.834   0.726   3.455 -1.9940 -0.2061  1.0837
12897SOL     OW43537   5.613   3.103   4.389  0.0062 -0.4531 -0.2070
12897SOL    HW143538   5.553   3.177   4.404  0.0446 -0.0197 -1.9659
12897SOL    HW243539   5.564   3.045   4.331  1.5575  0.3479 -2.4451
12898SOL     OW43540   3.752   3.212   4.202  0.4750 -0.2505  0.1307
12898SOL    HW143541   3.808   3.259   4.264  0.3902 -1.9387  1.5598
12898SOL    HW243542   3.780   3.243   4.116  1.5603  1.1255  0.9294
12899SOL     OW43543   7.303   3.310   4.161 -0.7411 -0.1762 -0.1498
12899SOL    HW143544   7.323   3.363   4.238  0.4746 -0.7736 -0.0258
12899SOL    HW243545   7.281   3.224   4.197  0.2842 -0.5849 -0.4730
12900SOL     OW43546   4.166   4.017   3.403  0.3326 -0.2456 -0.3250
12900SOL    HW143547   4.085   3.995   3.448  0.6463  3.5718  2.6715
12900SOL    HW243548   4.228   3.949   3.429 -1.1542 -1.7087 -0.4582
12901SOL     OW43549   6.225   1.535   6.920 -0.0052  0.3986  0.7161
12901SOL    HW143550   6.192   1.607   6.868 -0.4551 -1.0657 -1.1564
12901SOL    HW243551   6.155   1.469   6.918  1.1942 -0.9358  0.5315
12902SOL     OW43552   5.419   0.625   3.293 -0.3171 -0.3743 -0.5578
12902SOL    HW143553   5.475   0.548   3.283  0.8394  0.5226 -1.2226
12902SOL    HW243554   5.478   0.699   3.286 -1.4651  0.5983 -0.3296
12903SOL     OW43555   5.738   3.494   5.170  0.3937  0.6654  0.1241
12903SOL    HW143556   5.769   3.432   5.236 -0.4341 -0.9652 -0.9589
12903SOL    HW243557   5.771   3.460   5.087 -0.7269  1.2318 -0.5841
12904SOL     OW43558   4.402   3.394   7.361 -0.3371  0.2441  0.0094
12904SOL    HW143559   4.454   3.396   7.281 -0.0101 -1.5556  0.1483
12904SOL    HW243560   4.406   3.484   7.394  1.3565  0.5060 -0.8205
12905SOL     OW43561   4.723   0.665   0.580 -0.3223 -0.1673 -0.0571
12905SOL    HW143562   4.654   0.730   0.572  0.7301  0.7623 -2.5058
12905SOL    HW243563   4.785   0.702   0.643 -1.5096 -0.5652  1.3996
12906SOL     OW43564   7.179   2.341   5.627  0.4939  0.2183 -0.4434
12906SOL    HW143565   7.261   2.294   5.611 -0.4866 -1.7335 -0.0174
12906SOL    HW243566   7.117   2.273   5.655 -1.9856  1.1417 -3.1295
12907SOL     OW43567   3.908   6.968   3.913  0.4483 -0.1070  0.3132
12907SOL    HW143568   3.990   6.973   3.863 -0.1912  0.2266 -0.7267
12907SOL    HW243569   3.854   7.039   3.879 -0.0684  0.0468  1.3980
12908SOL     OW43570   3.102   2.684   4.156 -0.1631 -0.4946 -0.9365
12908SOL    HW143571   3.052   2.733   4.221 -0.2697 -1.8120  0.0116
12908SOL    HW243572   3.144   2.613   4.205  0.9940 -0.6363 -2.0517
12909SOL     OW43573   6.204   4.512   5.371  0.5303 -0.1504 -0.2807
12909SOL    HW143574   6.130   4.517   5.311  0.9046 -2.3058 -1.0218
12909SOL    HW243575   6.280   4.536   5.317  0.6766 -0.4970 -0.2311
12910SOL     OW43576   4.718   3.888   4.728  0.1032 -0.0945 -0.4850
12910SOL    HW143577   4.778   3.882   4.654  0.0580 -0.0160 -0.5280
12910SOL    HW243578   4.729   3.977   4.761 -0.2979  0.0586 -0.7548
12911SOL     OW43579   7.592   1.913   3.513  0.1120  0.5534  0.2785
12911SOL    HW143580   7.601   1.922   3.419  2.4569  1.9057  0.5629
12911SOL    HW243581   7.521   1.974   3.536 -0.4578  0.2313 -0.5903
12912SOL     OW43582   4.880   2.329   6.373  0.3599  0.2523  0.1327
12912SOL    HW143583   4.818   2.402   6.374 -1.4848 -1.1912 -1.3646
12912SOL    HW243584   4.834   2.258   6.417  1.1525 -0.7113 -0.5597
12913SOL     OW43585   4.462   1.246   3.050  0.1297  0.0755 -0.1764
12913SOL    HW143586   4.375   1.205   3.056  0.5471 -0.6401  1.8889
12913SOL    HW243587   4.520   1.184   3.095  1.8581  0.2315 -2.0938
12914SOL     OW43588   4.744   5.551   2.080 -0.9825 -0.0705  0.2695
12914SOL    HW143589   4.835   5.567   2.103 -0.6263 -1.7409  0.1429
12914SOL    HW243590   4.727   5.462   2.109 -2.5228  0.1275  0.0835
12915SOL     OW43591   1.801   4.938   2.341 -0.4146 -0.0277  0.3224
12915SOL    HW143592   1.815   4.869   2.276  0.0815  0.3626  0.0102
12915SOL    HW243593   1.861   5.008   2.315  2.3754 -1.1522  3.1047
12916SOL     OW43594   4.272   2.123   6.045  0.2151 -0.5104 -0.2737
12916SOL    HW143595   4.183   2.137   6.078  1.0807  0.9121  1.6128
12916SOL    HW243596   4.261   2.061   5.973 -2.3430 -0.0823 -0.3423
12917SOL     OW43597   6.267   4.404   9.432  0.5244 -0.5852  0.2216
12917SOL    HW143598   6.301   4.333   9.486  1.4654  0.7445  1.4731
12917SOL    HW243599   6.343   4.460   9.415 -0.2088  0.1885 -0.6371
12918SOL     OW43600   5.748   1.928   5.180 -0.3088  0.2020  0.1515
12918SOL    HW143601   5.746   1.838   5.214  0.2640  0.1628  0.0987
12918SOL    HW243602   5.794   1.978   5.248 -0.7198  0.4779  0.2276
12919SOL     OW43603   2.389   2.947   2.383 -1.0075  0.0287 -0.0363
12919SOL    HW143604   2.408   2.915   2.295 -1.0861  2.0775 -0.8656
12919SOL    HW243605   2.458   2.911   2.438  0.5762  0.7903 -1.4573
12920SOL     OW43606   5.169   1.411   6.655  0.2090 -0.0308 -0.4732
12920SOL    HW143607   5.076   1.393   6.668 -0.0195  1.1832 -0.3601
12920SOL    HW243608   5.173   1.504   6.636  1.4471  0.0177 -0.0430
12921SOL     OW43609   7.242   4.148   1.446 -0.0265  0.3679 -0.1932
12921SOL    HW143610   7.241   4.114   1.536  3.0883 -0.4211 -0.3492
12921SOL    HW243611   7.209   4.238   1.455  2.3223  1.1416  2.2283
12922SOL     OW43612   2.919   3.551   3.669  0.2265  0.3440 -0.3574
12922SOL    HW143613   2.833   3.541   3.710 -0.1319  0.5672 -1.0385
12922SOL    HW243614   2.901   3.596   3.586  0.4292 -3.3861 -2.6394
12923SOL     OW43615   4.169   1.889   5.271  0.5491 -0.8140  0.0180
12923SOL    HW143616   4.097   1.911   5.330  0.4889 -1.2940  0.1276
12923SOL    HW243617   4.133   1.820   5.215 -0.1921  1.1512 -2.1287
12924SOL     OW43618   4.451   2.374   2.617 -0.1530 -0.5503 -0.1635
12924SOL    HW143619   4.369   2.327   2.627 -0.5937  0.4903  1.4514
12924SOL    HW243620   4.471   2.408   2.704  1.8823 -0.5694 -0.5593
12925SOL     OW43621   6.088   2.198   3.504 -0.2821  0.2461 -0.4667
12925SOL    HW143622   6.103   2.238   3.418 -0.8559 -1.0441 -1.2006
12925SOL    HW243623   6.014   2.247   3.540  0.3967  1.2461 -0.3966
12926SOL     OW43624   5.926   0.923   4.713 -0.1145  0.0998  0.4152
12926SOL    HW143625   5.845   0.875   4.731 -0.4266 -1.6633 -4.3581
12926SOL    HW243626   5.986   0.856   4.678  1.5147  2.2532 -1.1411
12927SOL     OW43627   3.745   5.546   4.084  0.5689  0.3172 -0.1176
12927SOL    HW143628   3.694   5.594   4.019  0.0690  0.1990  0.1862
12927SOL    HW243629   3.705   5.569   4.167  1.7142  1.1171  0.2393
12928SOL     OW43630   3.518   1.960   6.931 -0.0627  0.1716 -0.5085
12928SOL    HW143631   3.425   1.977   6.912 -0.5504  1.2148  2.3408
12928SOL    HW243632   3.564   2.027   6.880 -0.9178  0.3025 -1.1542
12929SOL     OW43633   5.353   4.508   4.267 -0.2546  0.1325 -0.2347
12929SOL    HW143634   5.446   4.524   4.285 -0.3318 -0.0478  0.3201
12929SOL    HW243635   5.324   4.449   4.336 -0.6723 -0.1854 -0.6755
12930SOL     OW43636   6.552   1.493   4.420 -0.5447 -0.2459 -0.1611
12930SOL    HW143637   6.630   1.464   4.372 -0.8786  1.8717 -2.1918
12930SOL    HW243638   6.479   1.450   4.375 -0.7013 -0.1233 -0.0247
12931SOL     OW43639   3.671   0.564   4.744  0.0131 -0.0694 -0.2298
12931SOL    HW143640   3.698   0.481   4.705 -1.3349 -1.0519  0.8064
12931SOL    HW243641   3.703   0.631   4.684 -0.5586 -1.4336 -2.1456
12932SOL     OW43642   2.417   1.467   2.058  0.1229 -0.0246  0.3690
12932SOL    HW143643   2.470   1.388   2.047 -0.5725 -0.5617  0.7262
12932SOL    HW243644   2.353   1.462   1.986  1.0471  1.0457 -0.5613
12933SOL     OW43645   5.060   0.994   4.766  0.5878 -0.0281  0.2489
12933SOL    HW143646   4.989   1.053   4.741 -0.9405 -1.0994  1.8475
12933SOL    HW243647   5.125   1.004   4.696 -0.1442  2.5933 -0.1384
12934SOL     OW43648   6.440   3.295   2.547  0.6423 -0.0003 -0.3062
12934SOL    HW143649   6.431   3.200   2.540 -1.4014  0.0836  0.2542
12934SOL    HW243650   6.463   3.310   2.639 -0.6749  0.0801  0.0341
12935SOL     OW43651   3.242   1.888   3.265 -0.6905  0.6066  0.1801
12935SOL    HW143652   3.238   1.847   3.179  1.3914 -0.5342  0.5531
12935SOL    HW243653   3.325   1.937   3.265 -0.4531  0.2814  1.6234
12936SOL     OW43654   3.893   3.909   3.251 -0.3534 -0.1536  0.1510
12936SOL    HW143655   3.868   3.833   3.304  0.4073 -0.3603  0.2236
12936SOL    HW243656   3.855   3.891   3.165  0.6221 -1.0973 -0.1126
12937SOL     OW43657   3.910   3.873   1.926  0.0308 -0.1949 -0.1908
12937SOL    HW143658   3.848   3.802   1.907 -0.5170 -0.0308  0.9004
12937SOL    HW243659   3.868   3.922   1.997  1.5204 -0.2161  0.7366
12938SOL     OW43660   1.042   8.280   2.980 -0.4422  0.0664  0.7951
12938SOL    HW143661   1.086   8.362   3.000  0.4685 -0.1583 -0.2045
12938SOL    HW243662   1.032   8.280   2.885 -0.3816 -0.9933  0.7682
12939SOL     OW43663   5.176   2.222   0.599 -0.1396  0.0273 -0.0432
12939SOL    HW143664   5.114   2.236   0.671 -1.4167  0.8943 -1.2548
12939SOL    HW243665   5.232   2.151   0.629  1.9181  2.7823  3.4753
12940SOL     OW43666   3.660   1.922   3.931  1.0434  0.6639  0.3904
12940SOL    HW143667   3.733   1.964   3.977  1.1411 -0.4054  1.2576
12940SOL    HW243668   3.635   1.849   3.988 -1.1833  1.4100  0.4673
12941SOL     OW43669   3.956   0.368   5.078 -0.6570 -0.8542  0.1805
12941SOL    HW143670   3.968   0.456   5.113 -1.8985 -1.0895  1.2747
12941SOL    HW243671   3.865   0.347   5.097 -0.7730 -1.8565 -1.2936
12942SOL     OW43672   6.524   3.474   2.761 -0.0502 -0.0313  0.1903
12942SOL    HW143673   6.569   3.520   2.690 -2.3146  0.7618 -0.8318
12942SOL    HW243674   6.551   3.521   2.840  0.8544  0.4332 -0.3727
12943SOL     OW43675   6.389   2.650   4.883 -0.5976 -0.2432 -0.1192
12943SOL    HW143676   6.377   2.567   4.838 -1.9072  0.2924 -0.8163
12943SOL    HW243677   6.466   2.689   4.841  1.0139 -1.7510  1.2850
12944SOL     OW43678   5.610   0.936   6.403 -0.0100 -0.1594 -0.2126
12944SOL    HW143679   5.599   1.027   6.376  1.5210  0.0720 -0.1510
12944SOL    HW243680   5.705   0.925   6.409 -0.1862 -1.7238 -0.0841
12945SOL     OW43681   4.263   3.965   7.642  0.2180  0.3235  0.1200
12945SOL    HW143682   4.350   3.998   7.668  0.6128 -0.5339 -0.0814
12945SOL    HW243683   4.205   3.995   7.711  1.1493 -1.4219  1.7464
12946SOL     OW43684   4.937   4.405   2.132 -0.1419 -0.5071  0.8970
12946SOL    HW143685   4.862   4.367   2.087 -1.3935  0.6540  1.8963
12946SOL    HW243686   5.013   4.376   2.082 -1.3381 -0.6366 -0.9260
12947SOL     OW43687   6.169   4.302   3.705  0.4859  0.3237  0.2384
12947SOL    HW143688   6.113   4.380   3.706  1.0831  0.7729 -0.2179
12947SOL    HW243689   6.256   4.336   3.684  0.9122 -0.3757  0.8203
12948SOL     OW43690   4.641   1.674   7.050 -0.1487 -0.5113  0.6301
12948SOL    HW143691   4.621   1.731   7.124 -0.5014 -0.8128  0.7686
12948SOL    HW243692   4.724   1.631   7.075 -0.8920 -1.5443  1.4111
12949SOL     OW43693   4.017   1.115   3.227 -0.0601  0.1414  0.5934
12949SOL    HW143694   3.923   1.109   3.209 -0.2196  0.1629  1.3807
12949SOL    HW243695   4.038   1.208   3.214  0.0345 -0.0065 -0.3934
12950SOL     OW43696   6.854   5.994   5.046  0.5294 -0.6140 -0.3142
12950SOL    HW143697   6.894   5.938   4.979  0.1442 -0.4115 -0.7277
12950SOL    HW243698   6.876   6.083   5.018 -1.0810 -0.4445 -1.1575
12951SOL     OW43699   1.411   6.386   5.605  0.6171  0.0093  0.0161
12951SOL    HW143700   1.453   6.465   5.570  3.5739 -1.6524 -0.5147
12951SOL    HW243701   1.459   6.368   5.686  0.6060 -1.6688 -0.3142
12952SOL     OW43702   1.468   2.017   3.466  0.0871 -0.5721 -0.0654
12952SOL    HW143703   1.549   2.028   3.417  0.1876 -0.9116  0.0212
12952SOL    HW243704   1.477   2.077   3.541  0.2464 -0.5931 -0.0674
12953SOL     OW43705   1.891   2.422   4.355  0.1223  0.1998  0.1028
12953SOL    HW143706   1.914   2.387   4.441  1.1134 -0.9864 -0.6186
12953SOL    HW243707   1.968   2.408   4.301 -0.8347 -0.0391 -1.2679
12954SOL     OW43708   4.697   3.169   1.926  0.2012  0.3374  0.5408
12954SOL    HW143709   4.640   3.136   1.995  1.6299 -1.1763  1.0428
12954SOL    HW243710   4.786   3.147   1.954  0.8333 -0.4564 -1.8169
12955SOL     OW43711   2.206   1.874   2.588  0.3642  1.4115 -0.2147
12955SOL    HW143712   2.279   1.927   2.621 -0.9284  2.1917  1.5796
12955SOL    HW243713   2.178   1.919   2.508  1.0807  1.8053 -0.2552
12956SOL     OW43714   4.699   3.747   2.949 -0.3525  0.2798  0.5982
12956SOL    HW143715   4.772   3.741   3.011 -0.5739  2.3088  1.1232
12956SOL    HW243716   4.621   3.753   3.004 -0.8419 -0.7685  0.0502
12957SOL     OW43717   4.294   1.256   3.702 -0.1619  0.5269 -0.2298
12957SOL    HW143718   4.334   1.332   3.659  0.5228 -1.3276 -3.1457
12957SOL    HW243719   4.204   1.255   3.671 -0.1495  0.0890 -0.2548
12958SOL     OW43720   4.584   4.289   3.165 -0.2770  0.2362 -0.6349
12958SOL    HW143721   4.633   4.207   3.173 -0.0800  0.4862  1.3087
12958SOL    HW243722   4.639   4.354   3.208 -1.6945  0.7923  0.4287
12959SOL     OW43723   5.899   1.775   5.735 -0.1558  0.1693  0.2538
12959SOL    HW143724   5.864   1.769   5.646 -0.2422  3.8624 -0.1303
12959SOL    HW243725   5.821   1.770   5.791 -0.5330  1.1408 -0.1497
12960SOL     OW43726   3.038   0.777   4.445  0.2021 -0.8162  0.7017
12960SOL    HW143727   2.990   0.700   4.416  0.6649 -0.2907 -1.6986
12960SOL    HW243728   3.079   0.811   4.365  1.1462  1.1207  1.9308
12961SOL     OW43729   7.279   3.766   4.581 -0.7507 -0.0761  0.3556
12961SOL    HW143730   7.263   3.748   4.489  0.6246 -0.5564  0.1933
12961SOL    HW243731   7.374   3.763   4.590 -0.8483  0.3034  1.7225
12962SOL     OW43732   4.409   4.504   3.205 -0.0175 -0.2029  0.4087
12962SOL    HW143733   4.451   4.418   3.207 -0.1146 -0.2724 -0.3478
12962SOL    HW243734   4.362   4.506   3.122  1.7307  1.4137 -0.6046
12963SOL     OW43735   5.112   2.678   6.005  0.1058 -0.0727 -0.1096
12963SOL    HW143736   5.166   2.698   5.929 -1.3488 -0.4773 -1.2909
12963SOL    HW243737   5.131   2.586   6.024  1.1780  0.2764  0.6560
12964SOL     OW43738   4.482   0.770   2.989  0.0058  0.0087 -0.2261
12964SOL    HW143739   4.513   0.785   3.079  1.2948  0.7156 -0.7616
12964SOL    HW243740   4.395   0.730   3.000  0.9737 -1.8383  1.3601
12965SOL     OW43741   4.655   3.322   3.163 -0.3195 -0.1783  0.0152
12965SOL    HW143742   4.669   3.345   3.255 -0.6451 -1.2271  0.3320
12965SOL    HW243743   4.637   3.228   3.164  0.7265 -0.4150 -1.2304
12966SOL     OW43744   2.938   3.661   4.169 -0.0177 -0.7835  0.4219
12966SOL    HW143745   2.972   3.705   4.092  2.7789 -0.4309  1.7190
12966SOL    HW243746   2.997   3.586   4.182 -0.7294 -1.1437  1.8906
12967SOL     OW43747   3.863   2.794   1.244 -0.1925  0.3697  0.5722
12967SOL    HW143748   3.770   2.811   1.235 -0.2110  0.9028  1.6861
12967SOL    HW243749   3.874   2.767   1.335  0.0898 -3.9819 -0.4973
12968SOL     OW43750   1.900   4.076   4.385  0.1107 -0.5349 -0.0739
12968SOL    HW143751   1.893   4.151   4.326 -0.5103  0.8276  1.6623
12968SOL    HW243752   1.823   4.083   4.442  0.6990 -1.7906  0.9227
12969SOL     OW43753   5.328   0.937   8.583  0.2240 -0.3416  0.5454
12969SOL    HW143754   5.332   0.916   8.676  1.5441  0.0095  0.5869
12969SOL    HW243755   5.289   0.860   8.542  1.3719 -1.2847  1.1687
12970SOL     OW43756   5.853   1.015   7.032 -0.2873  0.4491  0.6581
12970SOL    HW143757   5.875   0.954   6.961  0.9922 -0.0171  1.4285
12970SOL    HW243758   5.800   1.082   6.990 -0.3356 -0.3110 -0.5538
12971SOL     OW43759   3.754   3.401   7.311 -0.2493 -0.0728 -0.2117
12971SOL    HW143760   3.686   3.354   7.264 -1.0889  1.3906 -0.5308
12971SOL    HW243761   3.824   3.412   7.247 -0.0692 -0.8211 -0.1483
12972SOL     OW43762   7.259   6.682   5.189  0.3306  0.0681 -1.1028
12972SOL    HW143763   7.186   6.621   5.194  1.2985 -1.1182 -0.8428
12972SOL    HW243764   7.313   6.661   5.265  1.5841  0.0434 -1.9726
12973SOL     OW43765   4.637   1.697   9.293  0.1652 -0.2490  0.2929
12973SOL    HW143766   4.599   1.755   9.227 -0.5902 -0.9485  0.0963
12973SOL    HW243767   4.608   1.609   9.268 -0.9650 -0.4371  2.1144
12974SOL     OW43768   5.972   0.724   6.615  0.5030 -0.4871  0.1642
12974SOL    HW143769   5.998   0.666   6.687 -0.8897 -2.0337 -0.5007
12974SOL    HW243770   5.893   0.683   6.578 -0.2871  1.6078 -0.6565
12975SOL     OW43771   1.995   2.677   4.763 -0.5050  0.0686 -0.1177
12975SOL    HW143772   2.013   2.598   4.814 -1.2031  0.5624  0.9171
12975SOL    HW243773   1.953   2.737   4.824  0.2822  1.3794 -0.7996
12976SOL     OW43774   2.682   1.959   7.830 -0.2774  0.4390 -0.2555
12976SOL    HW143775   2.602   1.986   7.876 -0.9182  0.0292 -1.0990
12976SOL    HW243776   2.734   1.915   7.897 -0.9943  0.2548  0.1930
12977SOL     OW43777   4.157   2.492   3.250 -0.3952  0.1932  0.2424
12977SOL    HW143778   4.137   2.574   3.204 -1.3352 -0.3687 -0.3837
12977SOL    HW243779   4.144   2.424   3.184 -0.1325 -0.5036  0.8949
12978SOL     OW43780   4.821   2.485   7.578  0.8933  0.5254  0.2233
12978SOL    HW143781   4.788   2.509   7.492 -0.2462  1.3394  0.8669
12978SOL    HW243782   4.913   2.512   7.576  1.1361 -0.2793 -1.0248
12979SOL     OW43783   4.160   2.709   7.466  0.6472 -0.4284  0.1219
12979SOL    HW143784   4.158   2.731   7.373 -0.6832  1.2290  0.5076
12979SOL    HW243785   4.199   2.621   7.469  2.3353  0.1908 -1.8393
12980SOL     OW43786   4.647   1.795   6.497 -0.5753 -0.8922  0.1147
12980SOL    HW143787   4.653   1.790   6.593 -2.0395 -0.6135  0.2390
12980SOL    HW243788   4.710   1.729   6.466 -0.9055 -1.7980  1.2920
12981SOL     OW43789   5.849   2.792   7.288  0.1236  0.5927 -0.4581
12981SOL    HW143790   5.921   2.855   7.284  0.3925  0.2635 -0.8834
12981SOL    HW243791   5.787   2.823   7.222  0.0554  0.6517 -0.3670
12982SOL     OW43792   6.743   0.136   5.522 -0.2280 -0.8675 -0.3081
12982SOL    HW143793   6.728   0.218   5.475  0.1365 -0.4949  0.2100
12982SOL    HW243794   6.672   0.132   5.586  0.1240 -0.6293  0.1010
12983SOL     OW43795   2.844   2.574   3.467 -0.5867  0.0944 -0.2236
12983SOL    HW143796   2.823   2.566   3.560 -1.3101 -0.3246 -0.4125
12983SOL    HW243797   2.839   2.484   3.434 -1.6525  0.3935 -0.9258
12984SOL     OW43798   6.607   1.287   5.762 -0.1130  0.2306 -0.2041
12984SOL    HW143799   6.567   1.360   5.716  1.8071  1.4065 -0.1241
12984SOL    HW243800   6.627   1.223   5.693 -1.0764  0.1060 -0.3805
12985SOL     OW43801   1.543   3.537   6.698 -0.4621  0.0985  0.5943
12985SOL    HW143802   1.498   3.577   6.772  0.2072  0.8985  0.5795
12985SOL    HW243803   1.634   3.563   6.708 -0.3574  0.1832 -0.4864
12986SOL     OW43804   5.122   2.211   4.037  0.3084 -0.1366  0.1593
12986SOL    HW143805   5.034   2.241   4.059  0.0715 -0.8868  0.2547
12986SOL    HW243806   5.164   2.287   3.996 -0.0005  0.5822  1.1350
12987SOL     OW43807   4.479   4.598   7.501 -0.4126  0.6884 -0.4206
12987SOL    HW143808   4.409   4.620   7.562 -1.0425  1.4382 -1.3866
12987SOL    HW243809   4.556   4.587   7.556 -0.8964  1.6391  0.4816
12988SOL     OW43810   4.421   3.655   3.686 -0.2172  0.0496 -0.9097
12988SOL    HW143811   4.441   3.624   3.775 -0.7687  0.0919 -0.7699
12988SOL    HW243812   4.341   3.610   3.662 -0.2605  0.3077 -1.2524
12989SOL     OW43813   4.602   9.262   8.539 -0.1262 -0.3082 -0.7117
12989SOL    HW143814   4.629   9.228   8.454  0.5170  1.8297 -1.4173
12989SOL    HW243815   4.511   9.290   8.526 -0.6025 -1.5433 -0.1794
12990SOL     OW43816   5.371   2.465   7.456 -0.0191 -0.0678  0.7510
12990SOL    HW143817   5.428   2.509   7.519  0.9150 -1.4056  0.8916
12990SOL    HW243818   5.429   2.404   7.410 -1.2294 -1.0859  0.5124
12991SOL     OW43819   7.816   4.767   4.959  0.0371  0.0319 -0.0480
12991SOL    HW143820   7.809   4.788   4.866  2.9922 -1.6222 -0.7421
12991SOL    HW243821   7.775   4.681   4.967  1.1843 -0.5472 -0.1843
12992SOL     OW43822   3.002   2.127   3.770 -1.0855 -0.2439  0.4798
12992SOL    HW143823   3.049   2.081   3.840  1.7527  1.5899 -0.0432
12992SOL    HW243824   3.037   2.091   3.689  0.1116  1.6710  0.0736
12993SOL     OW43825   4.803   1.098   4.123  0.0232 -0.3415 -0.1956
12993SOL    HW143826   4.788   1.175   4.178  1.6233 -1.7985  2.4997
12993SOL    HW243827   4.870   1.125   4.061  0.8792  0.3457  0.9968
12994SOL     OW43828   2.642   5.470   4.122 -0.1192 -0.1370 -0.0093
12994SOL    HW143829   2.551   5.460   4.092  0.0714 -0.8993 -0.3603
12994SOL    HW243830   2.654   5.564   4.130 -0.2961  0.1071 -1.9923
12995SOL     OW43831   2.684   4.417   6.507  0.6594 -0.1405  0.5667
12995SOL    HW143832   2.676   4.323   6.523  0.2428 -0.1103  0.5512
12995SOL    HW243833   2.748   4.447   6.573  1.1125 -0.5015  0.2974
12996SOL     OW43834   0.796   5.634   7.798  0.1444  0.3257  0.1278
12996SOL    HW143835   0.727   5.572   7.774  1.5133 -0.9035 -0.7939
12996SOL    HW243836   0.759   5.720   7.780 -1.7882 -0.1851  1.3884
12997SOL     OW43837   7.915   3.532   5.153  0.0475  0.1540  0.4590
12997SOL    HW143838   7.903   3.558   5.062 -0.3777  2.5361  1.1280
12997SOL    HW243839   7.889   3.609   5.204  0.2413 -1.1140  2.6089
12998SOL     OW43840   3.364   3.609   8.288  0.4217 -0.7700 -0.5833
12998SOL    HW143841   3.271   3.612   8.312 -0.3277  0.5793 -3.2435
12998SOL    HW243842   3.378   3.518   8.261  0.0291 -1.1210  0.3654
12999SOL     OW43843   4.892   3.470   7.859  0.0408 -0.3566  0.0296
12999SOL    HW143844   4.936   3.514   7.932 -0.4763 -0.6494  0.5245
12999SOL    HW243845   4.846   3.541   7.812  0.7780 -0.0951 -0.3129
13000SOL     OW43846   7.152   0.825   4.514 -0.1000 -0.1865  0.7459
13000SOL    HW143847   7.197   0.751   4.555 -1.3135 -0.8733  0.9094
13000SOL    HW243848   7.207   0.850   4.441  0.9765 -0.4156  1.4632
13001SOL     OW43849   6.966   3.340   1.645 -0.1722 -0.1512 -0.0858
13001SOL    HW143850   6.936   3.266   1.698  0.6526  0.3063  1.0571
13001SOL    HW243851   6.887   3.392   1.631 -0.8610 -1.4353 -1.2911
13002SOL     OW43852   1.850   3.498   7.625 -0.2261  0.2069 -0.4431
13002SOL    HW143853   1.817   3.424   7.677 -1.8243  0.9037 -0.4233
13002SOL    HW243854   1.945   3.493   7.635 -0.3892 -0.9118  0.8418
13003SOL     OW43855   3.687   3.759   4.815  0.2066  0.1945 -0.3871
13003SOL    HW143856   3.672   3.772   4.722  1.3508  1.7622 -0.3921
13003SOL    HW243857   3.742   3.833   4.841 -1.4843  0.7559  1.9127
13004SOL     OW43858   5.621   2.812   7.100 -0.1922 -0.2031  0.1726
13004SOL    HW143859   5.534   2.849   7.091  0.1473  0.5408 -0.1036
13004SOL    HW243860   5.634   2.763   7.018  0.5482  1.6271 -0.8696
13005SOL     OW43861   5.350   4.206   4.082 -0.3726  0.5731  0.0747
13005SOL    HW143862   5.345   4.283   4.139 -2.0915 -0.2425  1.1104
13005SOL    HW243863   5.346   4.132   4.142  1.5834 -0.3766 -0.8780
13006SOL     OW43864   8.806   0.331   4.489 -0.0598  0.3487 -0.0278
13006SOL    HW143865   8.716   0.346   4.460 -0.2597 -1.0839 -0.2372
13006SOL    HW243866   8.842   0.273   4.422  0.4577 -0.5107  0.9688
13007SOL     OW43867   4.500   3.489   4.172  0.1731  0.5276  0.1587
13007SOL    HW143868   4.405   3.499   4.178  0.2899  0.6826  2.9709
13007SOL    HW243869   4.513   3.394   4.168 -0.0983  0.3065  2.6822
13008SOL     OW43870   3.865   3.977   5.248 -0.1506 -0.0936 -0.0374
13008SOL    HW143871   3.782   4.012   5.215 -0.2540 -1.0166 -0.7970
13008SOL    HW243872   3.915   3.956   5.169 -0.0985 -1.6458  0.3637
13009SOL     OW43873   4.344   0.615   4.765  0.5012  0.0253 -0.2088
13009SOL    HW143874   4.413   0.614   4.831 -0.9826  1.1996  1.4317
13009SOL    HW243875   4.370   0.684   4.704  1.2075 -0.1533 -0.1165
13010SOL     OW43876   6.259   1.941   7.036 -0.2639 -0.2042 -0.3594
13010SOL    HW143877   6.310   1.976   6.963  0.9776 -3.4327 -1.2392
13010SOL    HW243878   6.319   1.944   7.111  0.1037 -0.9712 -0.6059
13011SOL     OW43879   7.242   3.338   6.030  0.8442  0.8540  0.1442
13011SOL    HW143880   7.153   3.313   6.055  1.5887 -0.3625  1.7731
13011SOL    HW243881   7.270   3.268   5.970  0.7694  1.1336 -0.2168
13012SOL     OW43882   4.197   3.255   6.123 -0.3617 -0.2056  0.5715
13012SOL    HW143883   4.280   3.273   6.078 -0.1289 -1.5680  0.3857
13012SOL    HW243884   4.130   3.284   6.061 -0.0326  1.0284  0.7764
13013SOL     OW43885   2.705   4.125   9.736 -0.5180  0.2542 -0.0478
13013SOL    HW143886   2.637   4.181   9.772  0.5118  1.3722  0.2612
13013SOL    HW243887   2.749   4.088   9.812  0.4355  1.0959 -0.1639
13014SOL     OW43888   0.646   3.594   8.705  0.4535 -0.7434  0.1033
13014SOL    HW143889   0.594   3.616   8.782  0.6767  0.4896 -0.0881
13014SOL    HW243890   0.694   3.515   8.731  1.7079  0.5118  1.8163
13015SOL     OW43891   3.962   2.353   6.966 -0.1460  0.6809  0.2587
13015SOL    HW143892   3.965   2.440   6.925 -0.6960 -0.3169 -2.0262
13015SOL    HW243893   3.912   2.366   7.046 -1.3414  2.2506 -0.6922
13016SOL     OW43894   5.745   2.407   9.641 -0.0112 -0.0246 -0.7932
13016SOL    HW143895   5.765   2.370   9.555 -0.1774 -2.1537  0.0042
13016SOL    HW243896   5.797   2.354   9.702  2.6443  3.4610  0.2747
13017SOL     OW43897   1.732   3.210   5.636 -0.3114  0.2632  0.1008
13017SOL    HW143898   1.757   3.155   5.710 -1.4198 -0.8215 -0.2993
13017SOL    HW243899   1.689   3.286   5.677  0.2845  0.3312  0.6165
13018SOL     OW43900   3.039   1.298   6.353 -0.4032 -0.5449  0.2573
13018SOL    HW143901   2.973   1.356   6.389  0.2419  0.3109  0.1032
13018SOL    HW243902   3.123   1.334   6.384  0.1028 -0.4094 -1.1625
13019SOL     OW43903   1.303   1.561   3.911 -0.2912  0.0726  0.4536
13019SOL    HW143904   1.301   1.656   3.899  1.2292  0.1031  0.3155
13019SOL    HW243905   1.220   1.531   3.875 -0.9777  1.3800  0.8634
13020SOL     OW43906   3.055   2.110   7.558  0.5208 -0.1214  0.1323
13020SOL    HW143907   2.962   2.093   7.576 -0.1301  0.8603 -1.9141
13020SOL    HW243908   3.079   2.045   7.492  1.1192 -0.0072  0.2301
13021SOL     OW43909   6.125   1.941   5.746 -0.2541  0.8086 -0.1131
13021SOL    HW143910   6.041   1.897   5.760 -0.0163  0.4462  0.1861
13021SOL    HW243911   6.146   1.922   5.654  0.3550 -0.6093  0.2979
13022SOL     OW43912   4.607   2.195   5.922 -0.6257  0.0981  0.0833
13022SOL    HW143913   4.584   2.103   5.939 -0.3629  0.2639  1.4313
13022SOL    HW243914   4.686   2.210   5.973  0.3806  0.5959 -1.5645
13023SOL     OW43915   5.689   3.134   5.748 -0.5734  0.5323  0.5602
13023SOL    HW143916   5.644   3.190   5.811 -0.8360  0.9334  0.0208
13023SOL    HW243917   5.731   3.067   5.801 -2.2743 -0.1986  1.0710
13024SOL     OW43918   3.784   1.889   5.637 -0.4750 -0.3706 -0.2742
13024SOL    HW143919   3.851   1.917   5.574  0.6527  0.4982  1.2338
13024SOL    HW243920   3.818   1.807   5.672 -0.9528 -0.6948 -0.5586
13025SOL     OW43921   6.180   3.609   6.166 -0.5424 -0.3327  0.8297
13025SOL    HW143922   6.092   3.571   6.164 -1.0321  0.7705 -0.4880
13025SOL    HW243923   6.238   3.534   6.177 -1.7037 -0.8829  4.3384
13026SOL     OW43924   5.596   2.056   6.519  0.7599 -0.1814  0.3944
13026SOL    HW143925   5.554   2.025   6.599  0.8660 -0.4734  0.3384
13026SOL    HW243926   5.573   1.991   6.453  1.4468 -0.4492  0.4074
13027SOL     OW43927   6.517   3.087   7.083  0.0895 -0.2645  0.1355
13027SOL    HW143928   6.610   3.076   7.065  0.6708  0.7672  2.2672
13027SOL    HW243929   6.484   2.998   7.097  1.1889 -0.5103  1.2807
13028SOL     OW43930   3.732   1.799   6.095  0.0452 -0.1680  0.5167
13028SOL    HW143931   3.653   1.851   6.111 -0.4825  0.4114 -3.1783
13028SOL    HW243932   3.712   1.714   6.133 -1.5807  0.5093  1.3087
13029SOL     OW43933   2.408   2.761   3.634  0.0014 -0.9178  0.5179
13029SOL    HW143934   2.347   2.775   3.561 -0.5917 -0.4681  1.0853
13029SOL    HW243935   2.491   2.797   3.603  0.2462 -2.3518 -0.6194
13030SOL     OW43936   5.533   2.582   4.798 -0.3088  0.4575 -0.0984
13030SOL    HW143937   5.583   2.567   4.718 -0.6782  0.9409 -0.4203
13030SOL    HW243938   5.441   2.576   4.771 -0.4678  1.9993 -0.0006
13031SOL     OW43939   3.175   2.698   7.535  0.5953  0.2532 -0.3289
13031SOL    HW143940   3.165   2.675   7.442  0.7430  1.3240 -0.6218
13031SOL    HW243941   3.203   2.789   7.534 -0.2673  0.5543  0.7973
13032SOL     OW43942   5.987   1.859   6.138  0.0418  0.4362  0.3475
13032SOL    HW143943   5.932   1.935   6.160 -1.8145 -0.5671 -0.5080
13032SOL    HW243944   6.033   1.885   6.058 -0.9712  0.5340 -0.2283
13033SOL     OW43945   3.428   1.856   8.151  0.0912 -0.1376 -0.5318
13033SOL    HW143946   3.405   1.893   8.236  0.4106  1.2754 -1.0417
13033SOL    HW243947   3.357   1.880   8.093  0.0232 -0.8372 -0.7537
13034SOL     OW43948   7.013   1.374   4.217 -0.0985  1.3314 -0.4577
13034SOL    HW143949   6.995   1.340   4.129 -1.4781  1.8858 -0.4049
13034SOL    HW243950   7.072   1.309   4.255  1.6145  1.7485 -2.2389
13035SOL     OW43951   4.486   1.742   3.211 -0.1674 -0.5902 -0.1431
13035SOL    HW143952   4.575   1.718   3.183 -0.0512  0.4488 -0.7438
13035SOL    HW243953   4.455   1.801   3.141 -0.4782  0.8366  1.1423
13036SOL     OW43954   6.172   0.985   8.050 -0.1891  0.4098 -0.1251
13036SOL    HW143955   6.151   1.059   7.993 -0.6863  1.9432  1.9177
13036SOL    HW243956   6.223   1.024   8.122 -0.1669 -1.3055  0.8388
13037SOL     OW43957   2.664   3.044   7.177 -0.3148 -0.2042  0.0326
13037SOL    HW143958   2.601   2.972   7.173  0.7284 -1.2989  1.7480
13037SOL    HW243959   2.713   3.027   7.257  1.2621  1.3701 -0.5521
13038SOL     OW43960   7.903   1.510   6.238 -0.5175  0.0143 -0.0011
13038SOL    HW143961   7.936   1.435   6.287 -1.4710  0.0250  0.6704
13038SOL    HW243962   7.970   1.578   6.250 -0.2672 -0.3085  0.4533
13039SOL     OW43963   7.511   3.766   3.066 -0.1841  0.1350  0.7446
13039SOL    HW143964   7.597   3.732   3.091 -0.5668 -0.4636  1.2969
13039SOL    HW243965   7.472   3.696   3.013  0.7438  1.5244 -1.9289
13040SOL     OW43966   7.803   6.581   3.569 -0.0203 -0.2487  0.0701
13040SOL    HW143967   7.838   6.597   3.657  0.5716  0.5770 -0.2927
13040SOL    HW243968   7.812   6.487   3.556 -0.2295 -0.3913  0.9411
13041SOL     OW43969   3.895   3.911   5.653  0.2209  0.5066 -0.1391
13041SOL    HW143970   3.936   3.971   5.589 -1.8791  4.2499  1.6892
13041SOL    HW243971   3.805   3.901   5.622  0.1093 -0.4831  0.4645
13042SOL     OW43972   5.694   1.441   5.669  0.0578 -0.0184  0.2398
13042SOL    HW143973   5.748   1.459   5.746  1.1427  0.5706 -0.6258
13042SOL    HW243974   5.640   1.520   5.660  0.6077  0.3224 -0.1392
13043SOL     OW43975   3.764   4.238   7.449  0.2947  0.3147 -0.1823
13043SOL    HW143976   3.679   4.197   7.435 -1.5760  3.9369 -0.4543
13043SOL    HW243977   3.823   4.194   7.388 -1.7837 -1.1281 -1.2360
13044SOL     OW43978   4.198   2.826   4.388  0.0818  0.4355 -0.1575
13044SOL    HW143979   4.133   2.836   4.458  0.8745  0.6333  0.5699
13044SOL    HW243980   4.279   2.805   4.434  0.5988  0.4752 -1.0335
13045SOL     OW43981   3.274   1.963   8.372  0.8828 -0.2434 -0.3536
13045SOL    HW143982   3.185   1.929   8.363  0.8879  0.0665 -1.8925
13045SOL    HW243983   3.314   1.909   8.439 -0.3806 -0.5636  0.1675
13046SOL     OW43984   6.544   2.039   2.899  0.7445 -0.1905  0.5570
13046SOL    HW143985   6.488   2.098   2.848  0.3696 -1.9126 -1.1500
13046SOL    HW243986   6.616   2.095   2.928  0.1151  1.2431 -0.4859
13047SOL     OW43987   3.508   2.719   7.220 -0.0906  0.0142 -0.2154
13047SOL    HW143988   3.416   2.693   7.229  0.1051 -0.1186  2.0767
13047SOL    HW243989   3.546   2.653   7.162 -1.0757 -0.9747  0.2182
13048SOL     OW43990   4.134   4.126   7.452 -0.0115  0.3782  0.3829
13048SOL    HW143991   4.171   4.062   7.513  0.3724  0.1231 -0.1077
13048SOL    HW243992   4.040   4.109   7.453  0.2181 -1.1370 -0.7909
13049SOL     OW43993   5.060   0.544   4.279 -0.5026  0.9488  0.2636
13049SOL    HW143994   5.144   0.526   4.238  0.4781  1.0945  2.0818
13049SOL    HW243995   4.996   0.496   4.227  0.9190 -0.5243 -0.1879
13050SOL     OW43996   3.157   2.492   6.959 -0.3642 -0.7431  0.0881
13050SOL    HW143997   3.236   2.470   6.909 -0.5182 -3.7873  1.0257
13050SOL    HW243998   3.087   2.446   6.914 -1.5819  1.3477 -0.2949
13051SOL     OW43999   3.611   1.493   5.807 -0.1373 -0.2613 -0.4008
13051SOL    HW144000   3.605   1.427   5.738  1.6016 -1.4696  0.5171
13051SOL    HW244001   3.693   1.473   5.852 -0.2633  1.6927  0.8005
13052SOL     OW44002   5.636   3.504   6.270  0.0605  0.1293 -0.3528
13052SOL    HW144003   5.584   3.577   6.235 -1.6263 -0.7073  0.2980
13052SOL    HW244004   5.646   3.445   6.196  1.4185  0.9689 -0.8787
13053SOL     OW44005   5.106   1.193   5.958  0.0715  0.2415  0.1033
13053SOL    HW144006   5.050   1.241   6.020 -0.7705  0.0111 -0.4620
13053SOL    HW244007   5.067   1.105   5.955  1.0077 -0.1955  0.3758
13054SOL     OW44008   3.464   2.229   4.968 -0.1658 -0.3323 -0.5343
13054SOL    HW144009   3.560   2.226   4.971 -0.1225 -0.3909 -1.5787
13054SOL    HW244010   3.440   2.296   5.032  0.5734 -0.2833 -0.2973
13055SOL     OW44011   3.485   9.823   7.158  0.1612  0.1828  0.2463
13055SOL    HW144012   3.485   9.766   7.081 -1.8300  1.7320 -0.9962
13055SOL    HW244013   3.420   9.785   7.217 -0.6524  0.7513 -0.2716
13056SOL     OW44014   4.538   1.007   4.396  0.5099 -0.3845 -0.5650
13056SOL    HW144015   4.589   0.935   4.359  0.1141 -0.3502 -1.1982
13056SOL    HW244016   4.593   1.084   4.382  0.4929 -0.4156 -0.8087
13057SOL     OW44017   1.541   5.132   5.590 -0.2956  0.5722  0.1348
13057SOL    HW144018   1.626   5.091   5.574 -1.5334 -1.8802 -0.6356
13057SOL    HW244019   1.527   5.123   5.684  0.3779  1.1808  0.2959
13058SOL     OW44020   6.840   4.428   3.842  0.1940  0.1841  0.0315
13058SOL    HW144021   6.871   4.519   3.844 -0.6208  0.4929 -0.7377
13058SOL    HW244022   6.894   4.383   3.907  2.4976  0.6195 -1.4499
13059SOL     OW44023   3.532   2.646   5.657  0.4599  0.4317  0.1501
13059SOL    HW144024   3.588   2.636   5.581  0.1135  1.3104 -0.2418
13059SOL    HW244025   3.540   2.564   5.705  2.0299  0.5190  0.0758
13060SOL     OW44026   3.442   3.000   5.961  0.0218  0.6117 -0.5949
13060SOL    HW144027   3.357   2.962   5.984 -0.3310  1.1397 -0.9954
13060SOL    HW244028   3.506   2.940   5.999 -0.5248 -0.1642 -0.8752
13061SOL     OW44029   6.998   1.519   6.831  0.1387  0.1933 -0.1924
13061SOL    HW144030   7.060   1.560   6.771  1.5726 -1.5375  0.0449
13061SOL    HW244031   7.050   1.457   6.882 -0.9609  1.7359  3.0633
13062SOL     OW44032   5.358   1.356   7.537 -0.2548 -0.0791  0.4755
13062SOL    HW144033   5.426   1.311   7.586  0.6841  0.6305 -0.1449
13062SOL    HW244034   5.405   1.415   7.477 -1.3671 -0.4886 -0.8649
13063SOL     OW44035   7.167   1.397   9.480  0.7075  0.4847 -0.3958
13063SOL    HW144036   7.136   1.371   9.567 -0.8630  1.6070 -0.5754
13063SOL    HW244037   7.110   1.350   9.420  1.8825 -0.3952 -0.8445
13064SOL     OW44038   5.381   0.538   9.123  0.7019 -0.8814 -0.0246
13064SOL    HW144039   5.299   0.503   9.159  0.5814 -1.6106 -0.9672
13064SOL    HW244040   5.371   0.633   9.127 -0.3507 -0.9595 -0.4737
13065SOL     OW44041   5.147   1.663   5.680 -0.1659  0.7114  0.3468
13065SOL    HW144042   5.150   1.629   5.769  0.8674  1.2941  0.5547
13065SOL    HW244043   5.072   1.619   5.639 -0.4349  0.1803  1.3895
13066SOL     OW44044   5.546   1.714   8.492  0.1326 -0.4003  0.1646
13066SOL    HW144045   5.577   1.658   8.420 -0.6321 -0.0823 -0.4258
13066SOL    HW244046   5.575   1.802   8.467  1.9782 -0.5936  1.4526
13067SOL     OW44047   6.217   0.467   6.985  0.2592  0.2013  0.1197
13067SOL    HW144048   6.190   0.392   6.932  1.9686 -0.4183  0.0774
13067SOL    HW244049   6.200   0.440   7.075  0.6752 -0.1617  0.0917
13068SOL     OW44050   4.227   2.211   7.076 -0.4134  0.0229 -0.4438
13068SOL    HW144051   4.288   2.274   7.037 -0.0271 -0.7366 -1.0975
13068SOL    HW244052   4.147   2.262   7.093  0.0921  0.8190 -0.4051
13069SOL     OW44053   4.720   2.834   6.697  0.2676 -0.3724 -0.4820
13069SOL    HW144054   4.762   2.834   6.611 -2.5237 -1.8707 -1.9989
13069SOL    HW244055   4.629   2.858   6.679 -0.5934 -1.5224  1.9141
13070SOL     OW44056   5.472   2.190   5.947  0.0672  0.2027  0.0479
13070SOL    HW144057   5.466   2.228   5.860  0.5440  0.2025  0.0126
13070SOL    HW244058   5.551   2.229   5.985  1.3213 -1.7131 -0.4736
13071SOL     OW44059   4.272   4.233   7.777 -0.0122  0.6264  0.3481
13071SOL    HW144060   4.335   4.260   7.710  0.3121  0.0011  0.3892
13071SOL    HW244061   4.207   4.303   7.779  0.0186  0.6895 -0.5643
13072SOL     OW44062   4.093   2.839   3.971  0.4726  0.2950 -0.4637
13072SOL    HW144063   4.181   2.808   3.952  0.3528 -0.2543 -0.1527
13072SOL    HW244064   4.040   2.759   3.976 -0.1212  0.6401 -1.0421
13073SOL     OW44065   5.065   3.281   8.533  0.1634 -1.0982 -0.0335
13073SOL    HW144066   5.107   3.231   8.463 -0.4694  0.7463 -1.8399
13073SOL    HW244067   5.061   3.371   8.499  1.7938  0.3880  3.2787
13074SOL     OW44068   5.486   1.438   6.368 -0.1859  0.1924  0.0187
13074SOL    HW144069   5.558   1.496   6.391 -0.3049  1.0004 -1.5026
13074SOL    HW244070   5.528   1.358   6.338  0.0895  0.5510 -0.5799
13075SOL     OW44071   3.436   2.750   5.076  0.6653 -0.2801  0.6851
13075SOL    HW144072   3.360   2.774   5.130  1.6986 -0.3408  2.2140
13075SOL    HW244073   3.409   2.771   4.986 -1.1629 -0.3315  1.1880
13076SOL     OW44074   3.193   1.369   4.318  0.0718  0.5748  0.0211
13076SOL    HW144075   3.208   1.438   4.383  2.6650  0.2457 -0.1136
13076SOL    HW244076   3.159   1.295   4.369  1.5199  0.5143  0.9489
13077SOL     OW44077   1.397   4.346   8.496  0.1106  0.4124 -0.5626
13077SOL    HW144078   1.401   4.251   8.484  0.8926  0.6230 -2.2326
13077SOL    HW244079   1.371   4.357   8.588 -1.1035 -1.3972 -0.6337
13078SOL     OW44080   4.899   4.698   7.378 -0.1934 -0.2369  0.1767
13078SOL    HW144081   4.955   4.661   7.310 -0.5756  0.0676 -0.3120
13078SOL    HW244082   4.948   4.774   7.410 -0.3648  0.0879 -0.3195
13079SOL     OW44083   4.192   4.425   7.095 -0.1361  0.4660  0.7529
13079SOL    HW144084   4.196   4.461   7.184 -0.8047 -0.7937  1.3125
13079SOL    HW244085   4.134   4.484   7.048  1.4637  2.0690  0.6649
13080SOL     OW44086   4.282   2.807   8.313 -0.9849  0.3004 -0.0754
13080SOL    HW144087   4.274   2.750   8.237  0.6424  0.1596 -0.1697
13080SOL    HW244088   4.353   2.867   8.290 -0.7603  0.5213  1.1644
13081SOL     OW44089   2.072   0.922   8.009 -0.1860  0.4324  0.1310
13081SOL    HW144090   2.000   0.939   7.949 -0.8778 -2.6482 -0.0954
13081SOL    HW244091   2.034   0.933   8.096 -1.2909 -1.9590  0.0323
13082SOL     OW44092   6.869   0.919   6.509  0.4207 -0.3068 -0.6691
13082SOL    HW144093   6.833   0.885   6.427  0.1837 -1.3794 -0.1314
13082SOL    HW244094   6.810   0.886   6.577 -0.4211  2.0074 -0.1738
13083SOL     OW44095   2.994   2.394   6.781 -0.4613 -0.3523  0.4241
13083SOL    HW144096   3.020   2.313   6.737  1.3951 -0.2323  1.2131
13083SOL    HW244097   2.899   2.386   6.793 -0.5775 -1.6083 -1.0667
13084SOL     OW44098   2.726   2.715   6.382  0.2578  0.2154  0.6105
13084SOL    HW144099   2.697   2.653   6.450  1.3239 -1.1578 -0.1321
13084SOL    HW244100   2.696   2.675   6.300  1.3294  0.4576  0.0858
13085SOL     OW44101   5.308   3.376   7.406  0.7677 -0.0861  0.0687
13085SOL    HW144102   5.395   3.337   7.408  1.6724  1.6721 -1.7149
13085SOL    HW244103   5.290   3.400   7.497  2.6991  0.5949  0.3180
13086SOL     OW44104   4.810   2.001   4.397 -0.3628 -0.2757 -0.1245
13086SOL    HW144105   4.853   1.924   4.358  0.3151  0.8074 -1.6436
13086SOL    HW244106   4.723   1.970   4.422 -0.7797 -1.1377 -2.3722
13087SOL     OW44107   4.840   2.762   5.893  0.1071 -0.0960  0.3400
13087SOL    HW144108   4.773   2.733   5.954 -0.1628 -0.3037 -0.0510
13087SOL    HW244109   4.923   2.742   5.936 -0.0758 -1.0726  0.2482
13088SOL     OW44110   3.816   0.476   5.728  0.0053 -0.0491  0.0652
13088SOL    HW144111   3.828   0.505   5.818  0.7043  1.9632 -0.6179
13088SOL    HW244112   3.722   0.478   5.714  0.0020  2.9715 -0.1760
13089SOL     OW44113   4.064   2.582   4.132 -0.3698  0.2855  0.3891
13089SOL    HW144114   4.108   2.647   4.186 -1.2818  0.6287  0.7444
13089SOL    HW244115   4.135   2.526   4.099  0.3336  0.9137  0.8022
13090SOL     OW44116   5.190   2.635   4.516 -0.3300  0.4669 -0.1301
13090SOL    HW144117   5.220   2.593   4.597  1.2994  1.5885 -0.1036
13090SOL    HW244118   5.095   2.636   4.524 -0.2422 -0.1384  1.4206
13091SOL     OW44119   3.486   3.704   7.495 -0.1618 -0.3377  0.0215
13091SOL    HW144120   3.494   3.675   7.405  0.9072 -1.6748  0.5145
13091SOL    HW244121   3.538   3.641   7.546 -1.9743 -0.5539  1.7594
13092SOL     OW44122   7.410   0.637   6.326 -0.2535  0.1532  0.1254
13092SOL    HW144123   7.478   0.589   6.374 -1.0292 -2.3984 -1.1532
13092SOL    HW244124   7.451   0.721   6.305  1.9145 -0.6578  0.8228
13093SOL     OW44125   3.941   4.113   9.663 -0.0169 -0.0666  0.7594
13093SOL    HW144126   3.910   4.200   9.638 -0.9659 -0.4453  0.5546
13093SOL    HW244127   3.866   4.055   9.645  0.9964 -1.1131 -0.2492
13094SOL     OW44128   6.844   3.645   9.469  0.3174 -0.2325 -0.3573
13094SOL    HW144129   6.775   3.639   9.535  1.2783 -0.2520  0.6740
13094SOL    HW244130   6.889   3.560   9.475 -0.1233 -0.5749 -1.6606
13095SOL     OW44131   4.277   2.206   2.235 -0.0017 -0.7706  0.1324
13095SOL    HW144132   4.325   2.174   2.311 -0.8336 -1.6091  0.3246
13095SOL    HW244133   4.307   2.151   2.162 -0.4382 -1.1068  0.1979
13096SOL     OW44134   6.363   3.360   4.951  0.3839  0.1162  0.9511
13096SOL    HW144135   6.432   3.329   4.892  0.4475  1.0871  0.4989
13096SOL    HW244136   6.323   3.280   4.985  1.4627 -0.4583  0.9094
13097SOL     OW44137   4.019   2.426   5.430 -0.2759 -0.4535 -0.3809
13097SOL    HW144138   4.108   2.447   5.405 -0.1686  0.6095  0.8175
13097SOL    HW244139   3.970   2.427   5.348  0.8612 -1.4179 -1.0996
13098SOL     OW44140   4.531   1.996   9.367 -0.2736  0.2112  0.1016
13098SOL    HW144141   4.512   1.944   9.289  0.6822 -0.9623  0.6205
13098SOL    HW244142   4.537   1.932   9.437  1.2639  0.9904  0.7046
13099SOL     OW44143   5.788   0.704   7.591  0.2710  0.0033  0.2290
13099SOL    HW144144   5.752   0.790   7.614  0.2088 -0.3798  1.6243
13099SOL    HW244145   5.876   0.724   7.557  0.1313  0.6373  0.2213
13100SOL     OW44146   4.043   2.426   6.246 -0.0383  0.1938 -0.0990
13100SOL    HW144147   4.125   2.379   6.231  0.8491  1.3077  1.0841
13100SOL    HW244148   3.979   2.357   6.266  0.4582 -0.7287 -1.5378
13101SOL     OW44149   3.107   1.468   3.890  0.2949  0.0242 -0.4336
13101SOL    HW144150   3.064   1.530   3.832  2.5114  1.2062 -0.9354
13101SOL    HW244151   3.042   1.450   3.958 -0.4357  3.0463 -0.1680
13102SOL     OW44152   2.572   1.345   5.264  0.2507  0.3875 -0.1647
13102SOL    HW144153   2.529   1.350   5.350  0.1381  1.3875 -0.2755
13102SOL    HW244154   2.543   1.422   5.217  1.5295  0.6714 -0.5426
13103SOL     OW44155   2.458   2.321   7.472 -0.2739 -0.1796 -0.1907
13103SOL    HW144156   2.551   2.298   7.480 -0.3389 -0.2821  0.3483
13103SOL    HW244157   2.448   2.353   7.383  0.2706 -0.2209 -0.2678
13104SOL     OW44158   5.069   1.477   7.842 -0.2559 -0.1398 -0.5025
13104SOL    HW144159   5.096   1.435   7.924 -1.4070  2.0090  1.0660
13104SOL    HW244160   5.144   1.530   7.817 -0.9744  1.7199  1.0042
13105SOL     OW44161   2.988   1.445   4.128  0.0184 -0.4055  0.2119
13105SOL    HW144162   3.066   1.441   4.183 -0.9619  1.9698  1.9730
13105SOL    HW244163   2.939   1.366   4.151  1.1662 -1.1362  0.2229
13106SOL     OW44164   3.344   2.487   6.702  0.2148  0.0157 -0.3954
13106SOL    HW144165   3.265   2.444   6.668  0.1544  0.2872 -0.5988
13106SOL    HW244166   3.317   2.577   6.718  0.4491  0.0767 -0.3438
13107SOL     OW44167   5.366   2.418   6.123 -0.6482 -0.7052 -0.2164
13107SOL    HW144168   5.382   2.342   6.065 -0.0907 -0.8029  0.0569
13107SOL    HW244169   5.271   2.428   6.124 -0.6517 -0.4260 -1.5084
13108SOL     OW44170   5.833   1.760   5.476  0.1875  0.4523 -0.0534
13108SOL    HW144171   5.743   1.743   5.446 -0.0336  1.0738  0.2225
13108SOL    HW244172   5.887   1.701   5.424 -0.3750  0.1239 -0.2814
13109SOL     OW44173   5.731   3.300   6.117  0.7016  0.1673 -0.7442
13109SOL    HW144174   5.682   3.275   6.039  0.3502  0.4645 -0.6243
13109SOL    HW244175   5.733   3.221   6.171 -0.8419  0.4976 -0.1382
13110SOL     OW44176   3.061   1.752   7.117 -0.0196 -0.3744  0.1384
13110SOL    HW144177   2.981   1.742   7.064 -1.0724  1.7164  1.2335
13110SOL    HW244178   3.061   1.675   7.174 -1.2840 -0.4072  0.1252
13111SOL     OW44179   3.890   1.813   6.363  0.1584  0.1224  0.1960
13111SOL    HW144180   3.884   1.717   6.370  1.0596 -0.0346 -0.9328
13111SOL    HW244181   3.965   1.828   6.306 -1.3187  1.4374 -1.5213
13112SOL     OW44182   4.805   1.986   7.629  0.3569 -0.5864  0.2600
13112SOL    HW144183   4.746   1.984   7.554 -1.7759  1.3265  1.7484
13112SOL    HW244184   4.784   1.906   7.678 -1.4157  0.2505  0.9726
13113SOL     OW44185   5.156   2.762   3.888  0.4037 -0.3621  0.4096
13113SOL    HW144186   5.094   2.831   3.910 -0.7123 -1.0285 -0.5360
13113SOL    HW244187   5.242   2.799   3.910 -0.3719  0.0321  3.1677
13114SOL     OW44188   6.590   1.413   5.323  0.4737 -0.3713  0.2596
13114SOL    HW144189   6.540   1.348   5.273 -1.1372 -1.8261  3.4419
13114SOL    HW244190   6.672   1.370   5.344  0.0032 -0.8684  1.1395
13115SOL     OW44191   6.106   5.206   7.130  0.6959 -0.2220  0.4783
13115SOL    HW144192   6.112   5.208   7.226 -0.2639 -0.0793  0.5405
13115SOL    HW244193   6.026   5.157   7.112  0.8116 -0.1514 -0.2507
13116SOL     OW44194   3.460   2.950   4.604  0.1383  0.2134 -0.5936
13116SOL    HW144195   3.469   2.898   4.524 -0.2590 -0.7527 -0.0181
13116SOL    HW244196   3.461   2.886   4.675  0.0179  1.0240  0.1529
13117SOL     OW44197   5.870   2.880   6.387 -0.6084 -0.3794  0.1702
13117SOL    HW144198   5.950   2.829   6.379 -0.8610 -0.9330  0.9712
13117SOL    HW244199   5.822   2.838   6.459 -0.9908  0.7733  0.6122
13118SOL     OW44200   6.026   3.164   7.220 -0.4059 -0.5226  0.6548
13118SOL    HW144201   6.036   3.069   7.211 -2.7864 -0.9191  1.5750
13118SOL    HW244202   5.968   3.175   7.295 -0.8074  1.6509  0.0935
13119SOL     OW44203   2.759   6.017   6.324  0.0217 -0.7010 -0.1466
13119SOL    HW144204   2.789   5.931   6.295 -1.2290 -1.2061  0.0066
13119SOL    HW244205   2.716   6.001   6.408  1.3763  0.3725  0.7958
13120SOL     OW44206   4.888   1.726   6.007 -0.3580 -0.0879 -0.1217
13120SOL    HW144207   4.967   1.678   5.982  0.6842  1.7908 -0.6161
13120SOL    HW244208   4.865   1.690   6.093  1.7262  0.0821  0.5650
13121SOL     OW44209   4.886   3.590   5.114  0.6750  0.6735  0.5350
13121SOL    HW144210   4.875   3.551   5.027 -0.2499  1.7280  0.1555
13121SOL    HW244211   4.929   3.674   5.097 -0.4252  1.3423  0.9732
13122SOL     OW44212   2.537   4.855   7.733 -0.3818  0.4071  0.0182
13122SOL    HW144213   2.472   4.866   7.803 -1.0842  1.2037 -0.7264
13122SOL    HW244214   2.618   4.834   7.779 -0.9575  0.3060  1.0331
13123SOL     OW44215   7.454   3.292   2.308  0.1898 -0.2080 -0.2255
13123SOL    HW144216   7.526   3.284   2.245  0.4096 -0.7609  0.0796
13123SOL    HW244217   7.375   3.301   2.254  0.4065 -0.3871 -0.5775
13124SOL     OW44218   5.383   2.038   5.410  0.0600  0.5944  0.3785
13124SOL    HW144219   5.329   1.992   5.474  0.6232  0.3224  0.6692
13124SOL    HW244220   5.353   2.008   5.325  1.0845 -1.1123  0.5707
13125SOL     OW44221   2.151   4.039   3.957 -0.5133  0.2393 -0.3730
13125SOL    HW144222   2.101   3.984   3.898 -0.7388  0.4337 -0.3643
13125SOL    HW244223   2.173   3.982   4.031 -0.6915  0.1462 -0.3925
13126SOL     OW44224   5.780   4.145   6.968  0.3445 -0.0019 -0.4014
13126SOL    HW144225   5.685   4.151   6.980  0.4500 -0.1042  0.6509
13126SOL    HW244226   5.814   4.226   7.008  0.8494 -1.1445  1.6459
13127SOL     OW44227   8.166   9.654   7.502  0.2349  0.0066 -0.5527
13127SOL    HW144228   8.147   9.646   7.595  0.8055  0.3861 -0.3965
13127SOL    HW244229   8.238   9.592   7.486 -0.5743 -0.8466 -0.9716
13128SOL     OW44230   3.480   3.289   7.489  0.1807  0.1751 -0.0567
13128SOL    HW144231   3.552   3.335   7.446 -0.9862  1.3765 -0.7943
13128SOL    HW244232   3.426   3.256   7.417  0.0377 -0.7864  0.4851
13129SOL     OW44233   3.315   4.557   4.584  0.2664 -0.3811 -0.2696
13129SOL    HW144234   3.363   4.560   4.666  1.4160  0.7899 -0.9478
13129SOL    HW244235   3.341   4.474   4.544 -0.6794 -1.1954  0.7305
13130SOL     OW44236   3.797   1.177   6.235  0.2952 -0.0125  0.6122
13130SOL    HW144237   3.735   1.193   6.164 -1.7504 -0.5363  2.1706
13130SOL    HW244238   3.819   1.084   6.227 -0.2944 -0.1829  0.9077
13131SOL     OW44239   4.565   3.563   5.143  0.4267 -0.7092 -0.4570
13131SOL    HW144240   4.657   3.567   5.168  0.7334 -0.2793 -1.5847
13131SOL    HW244241   4.561   3.608   5.058 -1.1431  1.0797  0.4760
13132SOL     OW44242   6.881   4.378   4.926  0.0403  0.4493  0.4245
13132SOL    HW144243   6.940   4.381   5.002  2.7382  0.4638 -1.5206
13132SOL    HW244244   6.839   4.464   4.925  0.6970  0.8007  1.3792
13133SOL     OW44245   5.908   3.212   6.663  0.2654  0.0620  0.1612
13133SOL    HW144246   5.819   3.177   6.667  0.1891  0.2661  0.2529
13133SOL    HW244247   5.963   3.135   6.651  0.1873 -0.2137  1.3884
13134SOL     OW44248   5.382   3.277   4.376 -0.3676  0.3866  0.7007
13134SOL    HW144249   5.345   3.213   4.437  0.6708  1.4737  2.5257
13134SOL    HW244250   5.328   3.355   4.387 -2.0606 -0.2512 -2.0076
13135SOL     OW44251   4.304   2.576   7.166 -0.6284  0.4316 -0.6538
13135SOL    HW144252   4.309   2.579   7.070 -0.0066 -2.3963 -0.7904
13135SOL    HW244253   4.222   2.530   7.184  1.0796 -2.6794 -0.0657
13136SOL     OW44254   3.821   2.661   6.678  0.1566 -0.6999 -0.4685
13136SOL    HW144255   3.746   2.604   6.695 -0.9548  0.6564 -0.5996
13136SOL    HW244256   3.835   2.653   6.583 -1.8086  1.2766 -1.0173
13137SOL     OW44257   2.534   3.256   8.120 -0.3414 -0.0052  0.1374
13137SOL    HW144258   2.561   3.317   8.188 -2.8449 -0.0257  1.2644
13137SOL    HW244259   2.534   3.170   8.163 -2.5178  0.0612  0.3634
13138SOL     OW44260   4.374   2.084   5.242  0.6834  1.0739  0.0711
13138SOL    HW144261   4.409   2.123   5.323  0.3734  0.6076  0.4334
13138SOL    HW244262   4.305   2.025   5.272  0.7112  0.7382 -0.5258
13139SOL     OW44263   4.302   3.374   6.821 -0.2838  0.1172 -0.1248
13139SOL    HW144264   4.339   3.451   6.864  0.5734  0.1258 -0.8481
13139SOL    HW244265   4.209   3.395   6.810 -0.8026 -0.3223  2.6474
13140SOL     OW44266   3.961   1.795   7.378 -0.5311 -0.8130 -0.1387
13140SOL    HW144267   3.953   1.852   7.454 -0.1186  0.8427 -1.2707
13140SOL    HW244268   4.052   1.765   7.380 -0.7495 -1.4488  0.4621
13141SOL     OW44269   4.333   1.462   4.692 -0.2952 -0.0543  0.4008
13141SOL    HW144270   4.283   1.383   4.717 -0.3372 -0.0338  0.3816
13141SOL    HW244271   4.296   1.532   4.746  0.7925 -0.3433  1.5871
13142SOL     OW44272   4.973   7.182   2.772 -0.3869  0.3207 -0.3484
13142SOL    HW144273   4.943   7.239   2.843  0.6627 -0.5194  0.8046
13142SOL    HW244274   4.928   7.099   2.787 -0.4102  0.2377 -0.8697
13143SOL     OW44275   4.038   2.790   4.609 -0.1529 -0.0394  0.1387
13143SOL    HW144276   3.993   2.705   4.612  1.0328 -0.6700  1.2743
13143SOL    HW244277   4.072   2.802   4.698  1.6520  0.5165 -0.5745
13144SOL     OW44278   3.045   2.140   6.662 -0.4641 -0.4864 -0.1548
13144SOL    HW144279   3.038   2.064   6.720 -0.0178  0.2921  0.9396
13144SOL    HW244280   3.106   2.113   6.594 -1.1456 -1.4823 -0.4000
13145SOL     OW44281   4.568   1.451   4.580 -0.3766  0.2766  0.0788
13145SOL    HW144282   4.610   1.536   4.569  1.1933 -0.3795  0.8558
13145SOL    HW244283   4.492   1.469   4.636 -0.2544  1.1981 -0.0326
13146SOL     OW44284   0.961   1.447   8.086 -0.1640 -0.1286 -0.0823
13146SOL    HW144285   0.893   1.514   8.081  0.5355  0.5500 -0.5484
13146SOL    HW244286   0.979   1.424   7.995  0.5073 -0.0283  0.0233
13147SOL     OW44287   6.999   4.466   5.141  0.0320  0.8641 -0.2134
13147SOL    HW144288   7.037   4.553   5.133  0.8462  0.6075  0.6101
13147SOL    HW244289   7.037   4.431   5.222 -0.1928 -0.2893 -0.5854
13148SOL     OW44290   3.626   2.571   4.856 -0.0165 -1.0224 -0.5523
13148SOL    HW144291   3.690   2.544   4.790  2.2100 -1.6085  1.6660
13148SOL    HW244292   3.613   2.492   4.909 -1.0509 -0.3629  0.2089
13149SOL     OW44293   4.065   2.235   2.431 -0.0678  0.2541  0.6723
13149SOL    HW144294   4.132   2.277   2.376  3.9293 -0.8868  4.1645
13149SOL    HW244295   4.047   2.152   2.386 -0.8668  1.4562 -1.3944
13150SOL     OW44296   7.687   3.168   6.190 -0.0464 -0.4043 -0.3390
13150SOL    HW144297   7.749   3.166   6.262  0.0340  0.0371 -0.3919
13150SOL    HW244298   7.701   3.253   6.149 -1.5124  0.2198  0.3775
13151SOL     OW44299   3.260   4.323   8.358  0.9369 -0.1879 -0.0220
13151SOL    HW144300   3.189   4.330   8.294  0.8748 -1.2461 -0.0949
13151SOL    HW244301   3.290   4.413   8.372  0.1663  0.1728 -0.6519
13152SOL     OW44302   6.988   1.946   4.574  0.2106  0.2207  0.0065
13152SOL    HW144303   7.071   1.987   4.599 -0.3433  0.3108  1.8576
13152SOL    HW244304   7.012   1.857   4.550  1.1137  0.8947 -1.7242
13153SOL     OW44305   4.213   4.404   8.500 -0.3083  0.1691 -0.1220
13153SOL    HW144306   4.236   4.322   8.456  0.9611  0.7968 -0.6570
13153SOL    HW244307   4.200   4.467   8.429  0.1845  0.7983  0.3360
13154SOL     OW44308   5.353   1.564   4.403  0.2692  0.2562 -0.5949
13154SOL    HW144309   5.281   1.628   4.409  0.7577  0.7887 -0.2019
13154SOL    HW244310   5.312   1.480   4.423 -0.3094  0.5061 -0.6991
13155SOL     OW44311   6.224   1.641   5.875  0.9546 -0.4467 -0.5031
13155SOL    HW144312   6.168   1.615   5.802  0.1071 -0.8853  0.2759
13155SOL    HW244313   6.197   1.585   5.947  0.6668  1.0415  0.5985
13156SOL     OW44314   3.807   1.746   9.073  0.2500 -0.0068  0.4494
13156SOL    HW144315   3.895   1.719   9.046 -0.8511 -1.7369 -1.7271
13156SOL    HW244316   3.755   1.666   9.071 -1.5505  1.0762  1.0159
13157SOL     OW44317   3.134   3.760   6.835  0.0014 -0.5574  0.3404
13157SOL    HW144318   3.117   3.752   6.929 -0.1909  2.7140  0.6822
13157SOL    HW244319   3.048   3.761   6.794 -0.1358  1.9404  0.5951
13158SOL     OW44320   7.514   2.046   5.388  0.4232  0.6989 -0.3221
13158SOL    HW144321   7.550   1.963   5.419 -0.4537  0.9890  1.6138
13158SOL    HW244322   7.533   2.047   5.294  1.1991 -1.2907 -0.2285
13159SOL     OW44323   5.413   3.668   7.396  0.2416 -0.1644 -0.0775
13159SOL    HW144324   5.388   3.608   7.466  0.4990 -0.1834 -0.0011
13159SOL    HW244325   5.357   3.642   7.322 -0.8579  0.6196  0.4598
13160SOL     OW44326   4.102   1.322   5.832  0.3231  0.6698  0.2859
13160SOL    HW144327   4.091   1.285   5.920 -1.3055  0.3884  0.0067
13160SOL    HW244328   4.118   1.415   5.846 -0.5006  0.7289  0.8820
13161SOL     OW44329   3.983   2.076   0.127 -0.2346  0.3778 -0.8384
13161SOL    HW144330   3.925   2.099   0.054 -0.6554 -2.2059 -1.4283
13161SOL    HW244331   4.068   2.112   0.102 -0.5025  0.0469 -2.3571
13162SOL     OW44332   5.839   1.011   6.677 -0.1148 -0.1654  0.0055
13162SOL    HW144333   5.869   1.016   6.587  1.5002  1.2615  0.5710
13162SOL    HW244334   5.788   1.091   6.690 -0.3909 -0.3916  0.3442
13163SOL     OW44335   4.117   2.426   7.273 -0.5416  0.4291 -0.0509
13163SOL    HW144336   4.023   2.425   7.255 -0.9295  0.7721  1.7272
13163SOL    HW244337   4.131   2.348   7.327 -0.1977  1.3906  1.3021
13164SOL     OW44338   4.581   2.603   5.106 -0.1011  0.4757 -0.1455
13164SOL    HW144339   4.676   2.592   5.095 -0.2769 -1.8474  0.2624
13164SOL    HW244340   4.545   2.515   5.097 -2.1710  1.2112  0.3796
13165SOL     OW44341   3.795   4.290   8.103 -0.0903 -0.8785  0.2409
13165SOL    HW144342   3.870   4.271   8.045  0.4558  2.0267 -0.1388
13165SOL    HW244343   3.719   4.282   8.047  0.2595 -0.2999 -0.3350
13166SOL     OW44344   3.069   1.956   4.474 -0.6205  0.8429  0.1354
13166SOL    HW144345   3.056   1.861   4.470 -1.3373  0.9453 -0.2164
13166SOL    HW244346   3.017   1.990   4.401  1.9426  1.3024 -1.6217
13167SOL     OW44347   6.142   2.396   7.410 -0.0662  0.0381 -0.1321
13167SOL    HW144348   6.069   2.454   7.390 -0.2304  0.2729  1.0922
13167SOL    HW244349   6.184   2.380   7.325 -0.9493  0.6794 -0.7028
13168SOL     OW44350   6.236   0.873   5.987 -0.1730  0.5716  0.2215
13168SOL    HW144351   6.268   0.929   6.058  1.0196  0.4220 -0.1821
13168SOL    HW244352   6.232   0.932   5.911 -0.0290  0.3806  0.0672
13169SOL     OW44353   6.477   4.121   7.473 -0.4798 -0.2576  1.0248
13169SOL    HW144354   6.542   4.110   7.404 -1.5171  0.5383 -0.1229
13169SOL    HW244355   6.420   4.044   7.464 -0.7095 -0.0721  0.8836
13170SOL     OW44356   2.713   4.313   6.211  0.4858 -0.4755 -0.1293
13170SOL    HW144357   2.717   4.233   6.159  2.6597 -0.3888 -0.1866
13170SOL    HW244358   2.753   4.290   6.295 -0.8248  0.0129  0.6531
13171SOL     OW44359   6.467   1.314   4.893 -0.4060  0.6269  0.0516
13171SOL    HW144360   6.375   1.337   4.880 -0.0066  1.7463 -0.9106
13171SOL    HW244361   6.466   1.220   4.909 -1.5882  0.3520 -1.4716
13172SOL     OW44362   4.792   1.732   5.619 -0.2720 -0.1288  0.4885
13172SOL    HW144363   4.701   1.717   5.647 -0.2155 -1.4989  0.0195
13172SOL    HW244364   4.826   1.645   5.601  1.1783  0.3690  0.7258
13173SOL     OW44365   6.791   2.839   5.816  0.4254 -0.0433  0.1252
13173SOL    HW144366   6.783   2.766   5.877 -0.2237 -0.9977 -1.0483
13173SOL    HW244367   6.707   2.885   5.823  1.1871  1.2036  1.5656
13174SOL     OW44368   3.741   3.006   3.526  0.3230  0.2854  0.7787
13174SOL    HW144369   3.732   2.918   3.491 -0.3325  0.8072 -0.4580
13174SOL    HW244370   3.690   3.005   3.608  0.8228 -0.6274  1.0860
13175SOL     OW44371   5.631   0.382   5.472  0.0915 -0.1023 -0.3068
13175SOL    HW144372   5.658   0.468   5.503  1.4426  0.1263 -1.9990
13175SOL    HW244373   5.682   0.320   5.525 -0.5338  0.1345  0.5855
13176SOL     OW44374   4.500   3.574   7.825  0.1787 -0.3357 -0.2883
13176SOL    HW144375   4.585   3.591   7.784 -0.2135 -0.5301 -1.2096
13176SOL    HW244376   4.442   3.643   7.790 -0.7324 -1.8379 -1.8893
13177SOL     OW44377   4.526   1.727   8.205  0.5282  0.0909 -0.0549
13177SOL    HW144378   4.588   1.673   8.255 -1.1517 -1.3339  0.5777
13177SOL    HW244379   4.469   1.766   8.270 -1.8164 -1.9402 -0.7229
13178SOL     OW44380   4.845   3.134   6.593 -0.2345  0.2763  0.0217
13178SOL    HW144381   4.933   3.122   6.628 -0.2541  0.7544  0.2599
13178SOL    HW244382   4.833   3.229   6.592 -0.0916  0.3049 -1.6833
13179SOL     OW44383   4.419   4.761   7.918  0.1615  0.7401 -0.1359
13179SOL    HW144384   4.459   4.802   7.995 -0.4721  0.8307  0.1539
13179SOL    HW244385   4.424   4.667   7.936  1.5603  0.6662 -0.7720
13180SOL     OW44386   3.411   3.052   9.375  0.6091  0.1904 -0.2527
13180SOL    HW144387   3.364   2.970   9.388 -0.9188  1.3245  1.9937
13180SOL    HW244388   3.442   3.048   9.284 -1.0642 -2.0324 -0.8085
13181SOL     OW44389   7.795   4.443   8.110  0.0627  0.4822 -0.7967
13181SOL    HW144390   7.848   4.394   8.047 -0.0660 -1.2156  0.3352
13181SOL    HW244391   7.761   4.517   8.061 -2.3571 -2.2104 -3.5922
13182SOL     OW44392   8.090   3.234   7.600  0.0441  0.3754  0.8387
13182SOL    HW144393   8.061   3.199   7.684  1.5629  0.0502  1.2478
13182SOL    HW244394   8.050   3.321   7.596 -2.2281 -0.5956  0.6539
13183SOL     OW44395   3.194   3.353   9.293  0.3216  0.4991  0.1046
13183SOL    HW144396   3.221   3.311   9.211  0.5547  0.8981 -0.0228
13183SOL    HW244397   3.113   3.307   9.318  0.6603 -0.1306  0.0516
13184SOL     OW44398   3.555   4.652   8.770  0.2172 -0.3684  0.5349
13184SOL    HW144399   3.468   4.621   8.794  0.7502 -0.9690  1.7345
13184SOL    HW244400   3.587   4.587   8.708 -0.4520  0.2436 -0.4953
13185SOL     OW44401   4.048   3.661   0.471  0.3325 -0.6063  0.2131
13185SOL    HW144402   3.960   3.625   0.482  0.6803 -1.6591 -0.3486
13185SOL    HW244403   4.054   3.682   0.378  0.7877 -0.8337  0.1912
13186SOL     OW44404   5.347   4.080   8.374 -0.0795 -0.1256 -0.4474
13186SOL    HW144405   5.281   4.131   8.421 -0.1415 -0.3011 -0.3457
13186SOL    HW244406   5.369   4.008   8.433  1.9461  1.2266  0.5943
13187SOL     OW44407   5.672   2.300   8.523  0.4963  0.1250  0.5349
13187SOL    HW144408   5.642   2.389   8.544 -0.0591  0.0504  0.0764
13187SOL    HW244409   5.758   2.312   8.484 -0.2878  0.6229 -1.1388
13188SOL     OW44410   3.548   1.954   0.377 -0.4155  0.0626  0.3023
13188SOL    HW144411   3.634   1.966   0.338  0.5762  0.0884  2.3757
13188SOL    HW244412   3.488   1.950   0.302  1.4143 -0.4276 -1.2144
13189SOL     OW44413   3.644   2.640   1.113 -0.7253 -0.0251 -0.5467
13189SOL    HW144414   3.630   2.734   1.122 -0.4129 -0.0686  0.5670
13189SOL    HW244415   3.577   2.612   1.051 -1.7078  0.7166  0.1455
13190SOL     OW44416   5.759   2.712   7.539  0.3115  0.1961  0.2778
13190SOL    HW144417   5.792   2.757   7.462  0.2210  1.5437  0.9964
13190SOL    HW244418   5.837   2.675   7.581  0.3742 -0.4228 -0.3664
13191SOL     OW44419   2.554   1.708   7.081 -0.9757  0.2259 -0.6599
13191SOL    HW144420   2.470   1.665   7.067 -0.2690 -0.4789 -3.4089
13191SOL    HW244421   2.563   1.767   7.006  0.9405  0.3412 -0.3879
13192SOL     OW44422   4.916   6.633   9.496 -0.0339  0.2665 -0.3678
13192SOL    HW144423   4.959   6.693   9.436  0.2181 -0.2495 -0.7118
13192SOL    HW244424   4.854   6.584   9.442 -0.2576  0.2345 -0.0872
13193SOL     OW44425   5.619   1.560   7.618 -0.0160 -0.3124 -0.1682
13193SOL    HW144426   5.707   1.526   7.600 -0.4396 -1.1645 -0.7247
13193SOL    HW244427   5.628   1.609   7.699  0.3679 -2.9577  1.5372
13194SOL     OW44428   5.763   0.432   6.741  0.2060 -0.7696 -0.1844
13194SOL    HW144429   5.824   0.469   6.806  3.4850 -2.0936 -2.2388
13194SOL    HW244430   5.746   0.343   6.771 -1.3883 -0.1883  0.7426
13195SOL     OW44431   4.891   3.633   6.917 -0.3289 -0.2253 -0.0034
13195SOL    HW144432   4.919   3.712   6.964 -0.4929  0.2165 -0.6439
13195SOL    HW244433   4.814   3.603   6.966  0.7310 -0.9818  1.2781
13196SOL     OW44434   4.661   4.444   8.119 -0.2882 -0.0461  0.0195
13196SOL    HW144435   4.746   4.399   8.125  0.6922  1.5650 -0.8751
13196SOL    HW244436   4.630   4.449   8.209 -0.0173 -1.6910  0.2410
13197SOL     OW44437   2.680   0.052   8.536  0.5575 -0.9485  0.0263
13197SOL    HW144438   2.596   0.084   8.504  1.8067  0.1837 -2.4099
13197SOL    HW244439   2.712  -0.006   8.467  1.3703 -2.1671  1.3550
13198SOL     OW44440   4.438   3.798   7.038 -0.0782  0.6532 -0.5119
13198SOL    HW144441   4.501   3.767   7.104  0.8466  2.9508 -0.2111
13198SOL    HW244442   4.448   3.736   6.966 -0.3062 -1.2830  1.0109
13199SOL     OW44443   5.334   3.479   8.249 -0.5631  0.5706 -0.8564
13199SOL    HW144444   5.360   3.522   8.331  0.8938 -1.1807 -0.3556
13199SOL    HW244445   5.350   3.545   8.181  1.5944  0.8827 -0.1029
13200SOL     OW44446   3.120   3.590   8.393 -0.2358  0.4444  0.3790
13200SOL    HW144447   3.080   3.515   8.436 -1.5400  0.8711 -0.0345
13200SOL    HW244448   3.065   3.664   8.420 -0.2382  0.9224 -0.8984
13201SOL     OW44449   5.150   2.127   9.616 -0.1408  0.1596  0.2097
13201SOL    HW144450   5.076   2.149   9.672 -1.8957  2.6861 -2.7773
13201SOL    HW244451   5.126   2.044   9.575  0.6329 -1.0994  2.1776
13202SOL     OW44452   6.533   5.254   8.898 -0.0792 -0.1604 -0.0073
13202SOL    HW144453   6.442   5.226   8.892 -0.3666  0.8341 -0.5159
13202SOL    HW244454   6.581   5.192   8.843 -0.7297  0.4530 -1.3084
13203SOL     OW44455   5.813   3.044   7.903 -0.4419  0.6045  0.3729
13203SOL    HW144456   5.904   3.048   7.874  0.1240  0.0446  1.9462
13203SOL    HW244457   5.791   2.951   7.900 -0.2879  0.4990  1.8691
13204SOL     OW44458   5.441   4.428   7.724  0.6393  0.1505  0.2125
13204SOL    HW144459   5.489   4.389   7.797 -0.8962 -0.5738  0.8786
13204SOL    HW244460   5.406   4.510   7.761 -3.0767 -1.8238  1.5422
13205SOL     OW44461   5.850   2.225   7.201  0.6232 -0.0697  0.3290
13205SOL    HW144462   5.896   2.216   7.118 -0.2930  0.3497 -0.2393
13205SOL    HW244463   5.849   2.319   7.219  0.5804 -0.1344  0.6853
13206SOL     OW44464   3.101   2.197   8.912 -0.8522 -0.4570 -0.1841
13206SOL    HW144465   3.145   2.237   8.837 -0.2482  0.2701  0.5343
13206SOL    HW244466   3.041   2.265   8.943 -0.2136 -0.2779  0.7149
13207SOL     OW44467   5.306   2.495   8.695 -0.1723 -0.1421 -0.6004
13207SOL    HW144468   5.311   2.587   8.720  0.3332 -0.4377  0.4466
13207SOL    HW244469   5.283   2.449   8.776 -2.3394 -0.7645 -1.4793
13208SOL     OW44470   5.048   2.679   6.722  0.0044 -0.3171 -0.9186
13208SOL    HW144471   5.039   2.706   6.814  1.8900  0.1104 -0.8205
13208SOL    HW244472   4.993   2.741   6.674 -1.1447 -0.6483 -0.0958
13209SOL     OW44473   4.709   3.487   8.447  0.1198 -0.1369  0.3080
13209SOL    HW144474   4.795   3.517   8.414  1.3444 -2.0349  1.5912
13209SOL    HW244475   4.647   3.548   8.408  1.8562  0.2106 -2.1864
13210SOL     OW44476   4.657   3.067   7.888 -0.4970 -0.3110 -0.2903
13210SOL    HW144477   4.614   3.112   7.815  0.6453  1.0259 -0.1883
13210SOL    HW244478   4.685   3.138   7.947 -3.9520 -1.3784  3.0410
13211SOL     OW44479   5.670   2.511   9.220 -0.1410 -0.1731 -0.3370
13211SOL    HW144480   5.616   2.507   9.299 -1.1113  0.6621 -0.9311
13211SOL    HW244481   5.626   2.453   9.158  0.3202 -0.4165 -0.4410
13212SOL     OW44482   2.429   5.083   7.946 -0.0672  0.0177  0.3977
13212SOL    HW144483   2.357   5.142   7.927 -0.0508  0.1663  0.7906
13212SOL    HW244484   2.502   5.140   7.968 -0.5302 -0.1351  2.5501
13213SOL     OW44485   5.035   2.777   2.135  0.0579  0.3932 -0.2307
13213SOL    HW144486   5.091   2.701   2.153  1.2837  1.3952  0.2823
13213SOL    HW244487   4.950   2.751   2.170  0.7433 -0.3124  1.0229
13214SOL     OW44488   2.872   2.526   7.425 -0.3307 -0.6086  0.4948
13214SOL    HW144489   2.792   2.552   7.471  0.9640  3.2625  0.9755
13214SOL    HW244490   2.932   2.498   7.494 -0.6483 -1.8024  0.3123
13215SOL     OW44491   4.517   4.045   1.466  0.1113  0.5661  0.1300
13215SOL    HW144492   4.480   3.966   1.425 -0.6594  1.5175 -1.1098
13215SOL    HW244493   4.608   4.023   1.484 -0.1054 -0.6177 -0.1517
13216SOL     OW44494   5.131   3.586   9.723  0.7987  0.2173  0.3831
13216SOL    HW144495   5.087   3.502   9.735  1.6959 -0.4186 -0.6124
13216SOL    HW244496   5.094   3.621   9.642  2.3819 -0.5411 -0.7216
13217SOL     OW44497   4.318   2.315   7.658 -0.2541  0.2635  0.3450
13217SOL    HW144498   4.363   2.398   7.643 -2.8769  1.7633  0.1144
13217SOL    HW244499   4.253   2.310   7.587  0.6072 -2.6316 -0.3800
13218SOL     OW44500   2.713   1.610   9.014 -0.7378  0.6416  0.8068
13218SOL    HW144501   2.670   1.527   9.034 -1.4780  1.0383  0.8763
13218SOL    HW244502   2.776   1.623   9.085 -0.1365 -0.1793  0.4461
13219SOL     OW44503   3.425   3.714   5.692  0.0236  0.0650  0.3159
13219SOL    HW144504   3.339   3.749   5.715 -0.5441 -0.7606 -0.4756
13219SOL    HW244505   3.407   3.651   5.622  1.5084  1.4028 -1.3236
13220SOL     OW44506   2.303   3.717   6.582 -0.1175 -0.6082  0.3430
13220SOL    HW144507   2.394   3.717   6.555 -0.4692 -0.0723 -0.8982
13220SOL    HW244508   2.274   3.627   6.571 -0.0583 -0.5381 -0.4089
13221SOL     OW44509   6.631   4.745   4.281  0.5101  0.0011 -0.3309
13221SOL    HW144510   6.668   4.792   4.206  1.8980  0.6552  0.7199
13221SOL    HW244511   6.704   4.693   4.315 -1.0464 -3.4837 -1.7428
13222SOL     OW44512   6.257   4.641   0.441 -0.4781 -0.6896 -0.0789
13222SOL    HW144513   6.343   4.675   0.465 -0.0012 -1.4303 -0.6826
13222SOL    HW244514   6.251   4.556   0.485 -1.6025  0.0527  1.3107
13223SOL     OW44515   2.336   3.016   8.341  0.7422 -0.2412 -0.6653
13223SOL    HW144516   2.292   3.068   8.274 -1.3999 -2.0617 -0.8036
13223SOL    HW244517   2.279   2.940   8.354  2.3216 -1.1825  1.4791
13224SOL     OW44518   4.877   3.435   6.671 -0.3827  0.5116 -0.1138
13224SOL    HW144519   4.821   3.467   6.600 -3.9857 -1.1277  1.7316
13224SOL    HW244520   4.882   3.508   6.733 -0.7395  0.5829 -0.1678
13225SOL     OW44521   6.742   4.425   0.036 -0.3731 -0.1305  0.2533
13225SOL    HW144522   6.716   4.515   0.020 -0.5634 -0.2494 -0.1123
13225SOL    HW244523   6.659   4.377   0.043 -0.2701 -0.3726 -0.1302
13226SOL     OW44524   3.788   0.988   7.306 -0.1238 -0.0224 -0.2495
13226SOL    HW144525   3.868   0.974   7.256 -0.7718  2.7603 -2.2567
13226SOL    HW244526   3.816   0.981   7.398  1.5867 -2.7836 -0.8660
13227SOL     OW44527   3.778   1.828   9.400 -0.1991  0.1176  0.0346
13227SOL    HW144528   3.683   1.835   9.409 -0.1227 -0.2139  1.3334
13227SOL    HW244529   3.812   1.850   9.487  0.8600 -0.7085 -0.1520
13228SOL     OW44530   4.597   3.383   6.428  0.0599  0.1435  0.0949
13228SOL    HW144531   4.581   3.356   6.518 -2.0073 -1.1064 -0.5880
13228SOL    HW244532   4.515   3.422   6.399  0.9192  1.1872 -1.0587
13229SOL     OW44533   1.975   4.917   6.957  0.3354  0.1471  0.1425
13229SOL    HW144534   1.964   4.848   6.892  2.5929  0.0594 -0.2578
13229SOL    HW244535   1.905   4.903   7.020 -1.5308 -0.1706 -1.8839
13230SOL     OW44536   6.390   1.014   6.780  0.0396 -0.2157 -0.5298
13230SOL    HW144537   6.312   0.958   6.779 -2.0924  2.5170 -0.1916
13230SOL    HW244538   6.426   1.002   6.868 -0.7087 -0.6882 -0.2723
13231SOL     OW44539   4.269   3.746   7.788  0.0455 -0.5398 -0.3329
13231SOL    HW144540   4.180   3.714   7.779 -1.2100  1.9229  1.9680
13231SOL    HW244541   4.272   3.826   7.735  0.9702 -0.7151 -0.5699
13232SOL     OW44542   3.748   3.503   9.066 -0.0047 -0.2730  0.1498
13232SOL    HW144543   3.679   3.467   9.011  1.3706 -0.0264 -1.8447
13232SOL    HW244544   3.770   3.587   9.026  1.1152 -0.1220  1.0187
13233SOL     OW44545   3.558   4.008   6.009 -0.1966 -0.0455  0.1501
13233SOL    HW144546   3.592   4.080   5.956  2.3740 -1.0731  0.2447
13233SOL    HW244547   3.572   3.930   5.954 -1.8420 -0.6273  0.5055
13234SOL     OW44548   5.377   2.963   9.098  0.1069 -0.3617 -0.1244
13234SOL    HW144549   5.385   3.054   9.067 -2.0746 -0.0856 -0.0264
13234SOL    HW244550   5.372   2.912   9.017  0.3399 -0.2850 -0.1882
13235SOL     OW44551   2.728   0.307   6.512  0.2752 -0.1057 -0.6087
13235SOL    HW144552   2.670   0.355   6.571  1.4973  2.4425 -1.3354
13235SOL    HW244553   2.687   0.221   6.503 -0.2064 -0.5282  3.5543
13236SOL     OW44554   3.494   4.281   8.593 -0.1227 -0.1630 -0.3602
13236SOL    HW144555   3.499   4.363   8.544 -1.1776  0.5802  0.7199
13236SOL    HW244556   3.506   4.307   8.684  1.6208 -1.4953 -0.1418
13237SOL     OW44557   3.879   2.679   5.475  0.3165  0.0311 -0.6355
13237SOL    HW144558   3.944   2.746   5.454 -0.1296 -0.4013 -4.1058
13237SOL    HW244559   3.924   2.596   5.461  0.2781 -0.4114  1.5870
13238SOL     OW44560   6.064   2.275   8.206 -0.7142 -0.5779 -0.4845
13238SOL    HW144561   6.023   2.346   8.158 -0.8755 -1.1184 -1.1559
13238SOL    HW244562   6.015   2.270   8.288  0.5585  1.3810  0.4615
13239SOL     OW44563   4.158   4.386   9.765 -0.0746 -0.3508  0.4916
13239SOL    HW144564   4.094   4.386   9.693  2.1498  1.2096 -1.6419
13239SOL    HW244565   4.110   4.424   9.839 -1.8892 -0.1149 -0.7250
13240SOL     OW44566   3.773   3.602   6.433 -0.1602  0.4414 -0.6096
13240SOL    HW144567   3.742   3.630   6.519  2.8147  1.1399  0.3911
13240SOL    HW244568   3.745   3.511   6.425 -0.1718  0.2341  1.3194
13241SOL     OW44569   5.474   1.872   7.878  0.3416  0.2495 -0.1591
13241SOL    HW144570   5.389   1.857   7.918 -0.5422  2.9756 -0.7870
13241SOL    HW244571   5.513   1.785   7.870 -2.0182 -0.9864  0.8817
13242SOL     OW44572   5.015   4.126   9.010  0.1765 -0.5018 -0.1363
13242SOL    HW144573   5.024   4.186   9.084  1.1678 -1.5086  0.5934
13242SOL    HW244574   4.971   4.178   8.943 -1.8213  0.1048  1.5441
13243SOL     OW44575   5.675   0.976   8.328  0.5813  0.0702  0.1047
13243SOL    HW144576   5.647   0.952   8.240 -0.6362  0.0758  0.4709
13243SOL    HW244577   5.754   0.924   8.343 -1.1756 -2.7461  0.3326
13244SOL     OW44578   4.310   2.746   8.035 -0.2576  0.3307 -0.0200
13244SOL    HW144579   4.339   2.699   7.956  1.0105  0.0411  0.5922
13244SOL    HW244580   4.228   2.789   8.008 -0.2619 -0.3876 -1.2606
13245SOL     OW44581   4.259   1.862   9.325 -0.5717 -0.1788 -0.2898
13245SOL    HW144582   4.195   1.916   9.372 -2.1576 -2.2177  0.0169
13245SOL    HW244583   4.292   1.920   9.256 -0.4419  1.9100  1.4030
13246SOL     OW44584   3.626   2.183   7.583 -0.3216  0.4689  0.1102
13246SOL    HW144585   3.542   2.136   7.590 -0.7658  1.2241 -0.0503
13246SOL    HW244586   3.627   2.217   7.494 -0.0267  0.8101  0.2447
13247SOL     OW44587   5.672   2.000   7.405 -0.0110 -0.1790 -0.2837
13247SOL    HW144588   5.758   1.975   7.438 -0.0197  1.0764  0.7840
13247SOL    HW244589   5.619   2.012   7.484 -0.3413  1.8876 -0.7461
13248SOL     OW44590   6.375   2.784   7.250  0.2748  0.2635  0.1028
13248SOL    HW144591   6.364   2.702   7.203  0.3388  0.0112  0.5202
13248SOL    HW244592   6.426   2.760   7.328  0.4541  0.7307  0.1291
13249SOL     OW44593   3.951   2.818   7.012 -0.3621 -0.1428 -0.2557
13249SOL    HW144594   3.996   2.825   7.097  0.0348 -0.4925 -0.4351
13249SOL    HW244595   3.993   2.744   6.969  0.1732  0.6944 -1.2024
13250SOL     OW44596   4.710   9.003   8.893  0.1312  0.2745  0.3719
13250SOL    HW144597   4.763   9.010   8.972  1.0582  0.3590 -0.2322
13250SOL    HW244598   4.646   8.935   8.913 -0.9523  1.6568  1.8778
13251SOL     OW44599   2.544   1.820   5.957  0.8720  0.2892 -0.1124
13251SOL    HW144600   2.633   1.794   5.935  0.8495 -0.1597  0.3218
13251SOL    HW244601   2.535   1.801   6.051  0.1429 -0.1829 -0.2683
13252SOL     OW44602   4.041   4.092   7.015 -0.2113 -0.0985 -0.5952
13252SOL    HW144603   4.012   4.003   7.035 -0.2432  0.0944  0.2603
13252SOL    HW244604   4.089   4.120   7.093 -1.0492  0.9928 -0.4444
13253SOL     OW44605   7.503   2.253   9.356  0.0626  0.3079 -0.1595
13253SOL    HW144606   7.486   2.161   9.335  0.0206  0.1595  0.5135
13253SOL    HW244607   7.513   2.255   9.451  4.3399  0.2954 -0.4050
13254SOL     OW44608   4.960   3.270   7.624  0.0862 -0.3642 -0.1464
13254SOL    HW144609   4.886   3.312   7.580 -0.0952 -1.8175 -1.2803
13254SOL    HW244610   4.946   3.289   7.717 -0.6040  1.0593 -0.5055
13255SOL     OW44611   5.905   1.397   8.474 -0.4198  0.1175 -0.6394
13255SOL    HW144612   5.889   1.352   8.391 -1.7229  1.5921 -1.2480
13255SOL    HW244613   5.910   1.327   8.538 -3.2161 -0.9631 -1.4100
13256SOL     OW44614   3.133   2.772   7.144 -0.4312  0.3389 -0.1965
13256SOL    HW144615   3.045   2.761   7.181 -0.4401 -1.2237 -0.6374
13256SOL    HW244616   3.169   2.684   7.139  0.8236  0.8632 -0.8767
13257SOL     OW44617   4.597   2.861   7.597  0.0990 -0.1273  0.1017
13257SOL    HW144618   4.505   2.885   7.595 -0.3986 -1.8926 -2.2925
13257SOL    HW244619   4.639   2.923   7.537  0.1639 -0.4190 -0.1542
13258SOL     OW44620   7.000   2.254   8.059  0.6309  0.0865 -0.0073
13258SOL    HW144621   7.060   2.291   7.995 -1.1716  1.2576 -1.1110
13258SOL    HW244622   7.013   2.159   8.051 -0.5147  0.0710 -3.2276
13259SOL     OW44623   4.042   0.407   7.535  0.2901 -0.1790  0.0576
13259SOL    HW144624   4.009   0.430   7.448 -1.8639  1.6073  1.2128
13259SOL    HW244625   4.092   0.484   7.562  0.7046 -0.6046  0.5230
13260SOL     OW44626   2.722   4.296   8.173  0.2387  0.0454 -0.0258
13260SOL    HW144627   2.679   4.271   8.254 -1.0013  0.7570 -0.4464
13260SOL    HW244628   2.745   4.212   8.132 -2.9505 -0.5158 -0.9422
13261SOL     OW44629   4.187   3.266   0.722 -0.2501 -0.1312  0.2042
13261SOL    HW144630   4.184   3.285   0.816  3.2169  2.1921  0.0244
13261SOL    HW244631   4.251   3.195   0.714 -0.6549 -0.4342 -0.3959
13262SOL     OW44632   4.533   2.652   9.463 -0.6712 -0.5914 -0.2524
13262SOL    HW144633   4.593   2.671   9.391  0.4895 -1.1085  0.5513
13262SOL    HW244634   4.555   2.717   9.530 -0.7192 -1.0476  0.2110
13263SOL     OW44635   6.101   2.735   6.443  0.2107 -0.5681  0.2022
13263SOL    HW144636   6.168   2.688   6.392  1.3193  1.1196  0.0302
13263SOL    HW244637   6.148   2.766   6.521 -0.2566  0.9605 -0.0982
13264SOL     OW44638   4.044   3.633   0.969 -0.2008  0.0907  0.1897
13264SOL    HW144639   4.104   3.584   1.025 -0.9854 -1.2946 -0.1401
13264SOL    HW244640   4.087   3.635   0.884  0.3197  0.9308  0.4586
13265SOL     OW44641   4.593   3.226   0.388 -0.0440 -0.0281  0.1267
13265SOL    HW144642   4.631   3.149   0.345 -1.8696 -1.3066  0.6701
13265SOL    HW244643   4.498   3.213   0.381 -0.4049  1.2104  1.9497
13266SOL     OW44644   4.655   3.046   7.417  0.1016 -0.1242  0.1655
13266SOL    HW144645   4.635   3.051   7.324 -1.2763  1.2847  0.4863
13266SOL    HW244646   4.751   3.043   7.421  0.1556 -1.7846 -1.3085
13267SOL     OW44647   5.618   3.165   8.056 -0.9655 -0.2876  0.7613
13267SOL    HW144648   5.682   3.106   8.017 -1.6146  0.1596 -1.0718
13267SOL    HW244649   5.537   3.148   8.009 -0.7158  3.4707 -1.4118
13268SOL     OW44650   3.859   4.511   7.430 -0.5647 -0.8395 -0.9478
13268SOL    HW144651   3.801   4.555   7.368 -1.6238 -1.4855 -0.4619
13268SOL    HW244652   3.839   4.418   7.419 -0.3314 -1.0037 -0.0756
13269SOL     OW44653   3.126   2.213   0.427  0.3335  0.2954 -0.3218
13269SOL    HW144654   3.131   2.215   0.331  0.5064 -0.6616 -0.3458
13269SOL    HW244655   3.130   2.120   0.449  1.1732  0.5453  0.6642
13270SOL     OW44656   4.171   2.754   0.502  0.6581  0.0756 -0.1903
13270SOL    HW144657   4.182   2.671   0.549 -0.4796 -0.9487 -1.6414
13270SOL    HW244658   4.212   2.739   0.417 -0.0250  0.8119 -0.6668
13271SOL     OW44659   4.438   3.423   8.687 -0.3647 -0.2171 -0.3519
13271SOL    HW144660   4.451   3.477   8.608 -0.7783  0.7322  0.2076
13271SOL    HW244661   4.466   3.480   8.759 -1.6393 -0.4158  0.3314
13272SOL     OW44662   5.097   4.384   2.744  0.0566 -0.0186 -0.0188
13272SOL    HW144663   5.039   4.325   2.696  0.4787 -0.5641  0.1316
13272SOL    HW244664   5.059   4.471   2.731 -0.3687 -0.2779 -0.5454
13273SOL     OW44665   4.263   3.864   9.590 -0.0721  0.1548 -0.0142
13273SOL    HW144666   4.209   3.837   9.517  2.5098  1.0222 -2.4233
13273SOL    HW244667   4.287   3.782   9.634 -2.1698 -0.3237  0.3438
13274SOL     OW44668   4.190   2.885   7.186 -0.3673  0.2621 -0.1958
13274SOL    HW144669   4.234   2.938   7.253  2.8735  0.1419 -2.0273
13274SOL    HW244670   4.198   2.937   7.106 -1.4368 -0.9144 -1.1073
13275SOL     OW44671   7.000   4.354   9.820  0.1393  0.8933  0.3056
13275SOL    HW144672   7.033   4.435   9.857 -0.3151  1.3924 -0.3480
13275SOL    HW244673   6.909   4.350   9.849 -0.4139  1.6116 -1.2240
13276SOL     OW44674   6.439   1.016   1.540  0.3105 -0.4952 -0.4169
13276SOL    HW144675   6.474   0.930   1.566 -1.4939 -1.3552 -0.6721
13276SOL    HW244676   6.362   0.995   1.487  0.5369  1.2916 -1.5178
13277SOL     OW44677   4.943   2.210   8.891  0.2909  0.1946 -0.4951
13277SOL    HW144678   4.909   2.246   8.973  1.4340 -0.7515  0.4327
13277SOL    HW244679   4.886   2.136   8.872 -0.0650  0.5035 -0.6347
13278SOL     OW44680   3.914   3.352   6.879 -0.0448 -0.1153 -0.0683
13278SOL    HW144681   3.826   3.385   6.857 -0.4633  0.1558  1.8935
13278SOL    HW244682   3.908   3.258   6.865 -0.3935 -0.0023 -0.7347
13279SOL     OW44683   5.157   2.896   7.909  0.0557 -0.2638 -0.4148
13279SOL    HW144684   5.067   2.926   7.918 -0.2083 -0.4971 -1.9584
13279SOL    HW244685   5.152   2.801   7.919  0.2206 -0.2258  0.0508
13280SOL     OW44686   5.288   1.832   8.291 -0.5327  0.0299 -0.2283
13280SOL    HW144687   5.325   1.749   8.262  0.6904  0.0616  1.1146
13280SOL    HW244688   5.195   1.825   8.273 -0.2911 -1.2175 -1.0718
13281SOL     OW44689   6.806   2.528   6.370 -0.6125 -0.0339 -0.4859
13281SOL    HW144690   6.779   2.508   6.459 -3.6500  2.5219 -0.6822
13281SOL    HW244691   6.884   2.582   6.379 -0.8055  0.0686  0.6044
13282SOL     OW44692   2.866   1.150   0.192  0.7335  0.4025  0.1404
13282SOL    HW144693   2.831   1.081   0.135 -2.3593  2.5156 -0.7837
13282SOL    HW244694   2.905   1.213   0.132  1.7586  0.4203  0.8068
13283SOL     OW44695   3.071   3.688   7.104  0.5042  0.2555  0.4593
13283SOL    HW144696   3.103   3.646   7.184  1.0701  1.3674  0.8424
13283SOL    HW244697   3.007   3.751   7.134  0.0701  0.0631 -0.0570
13284SOL     OW44698   5.643   3.193   9.077 -0.4428 -0.1279 -0.3751
13284SOL    HW144699   5.659   3.118   9.134  0.4635 -0.0917 -0.5745
13284SOL    HW244700   5.619   3.264   9.138  0.2574 -0.1599 -0.0545
13285SOL     OW44701   5.328   4.026   9.211  0.1153 -0.1441  0.1369
13285SOL    HW144702   5.300   3.939   9.183  0.4401 -0.8860  1.9974
13285SOL    HW244703   5.407   4.011   9.263 -1.1270  0.9607  2.5320
13286SOL     OW44704   3.147   1.501   7.595 -0.0896  0.0078 -0.4938
13286SOL    HW144705   3.202   1.579   7.600  0.1116 -0.1866  0.5267
13286SOL    HW244706   3.063   1.528   7.631 -1.0150  0.5531 -2.8591
13287SOL     OW44707   4.509   0.799   6.034  0.4491 -0.1402  0.4826
13287SOL    HW144708   4.586   0.796   5.977 -0.8956 -0.4879 -1.4042
13287SOL    HW244709   4.529   0.738   6.105  1.2927 -1.4353 -0.8139
13288SOL     OW44710   4.586   2.950   0.942  0.0356  0.1852 -0.1593
13288SOL    HW144711   4.601   2.874   0.998  0.5273  0.7209  0.4500
13288SOL    HW244712   4.495   2.941   0.914 -0.3104  0.0437  0.9499
13289SOL     OW44713   4.158   3.263   7.905 -0.1124 -0.6597 -0.3053
13289SOL    HW144714   4.222   3.202   7.868  1.8102  1.3991 -0.6050
13289SOL    HW244715   4.162   3.247   7.999  0.5126 -0.8814 -0.3607
13290SOL     OW44716   4.477   1.991   6.439 -0.1087  0.3277 -0.4027
13290SOL    HW144717   4.454   1.987   6.347 -0.9212 -0.6145 -0.1702
13290SOL    HW244718   4.533   1.914   6.454 -0.8878 -0.1517  0.1205
13291SOL     OW44719   2.121   3.371   1.721  0.1783 -0.0849 -0.7706
13291SOL    HW144720   2.034   3.406   1.704  0.0664  0.9794  1.6322
13291SOL    HW244721   2.107   3.277   1.735 -0.5103 -0.0005 -0.8711
13292SOL     OW44722   5.623   3.350   7.213  0.1393 -0.0693 -0.0041
13292SOL    HW144723   5.693   3.285   7.202  0.1261 -0.0167 -0.3888
13292SOL    HW244724   5.583   3.327   7.297 -0.4399 -1.1116 -0.5375
13293SOL     OW44725   9.785   2.127   8.276 -0.4152 -0.4080 -0.5225
13293SOL    HW144726   9.729   2.097   8.205 -0.9801  1.0539 -0.7446
13293SOL    HW244727   9.874   2.107   8.248 -0.7765 -2.4408 -0.3331
13294SOL     OW44728   5.957   0.402   8.051  0.0192  0.5029  0.5441
13294SOL    HW144729   6.030   0.342   8.035 -1.6205 -1.5114  0.1470
13294SOL    HW244730   5.973   0.438   8.139  1.4432  0.0721  0.4724
13295SOL     OW44731   3.782   4.583   6.823  0.2275  0.0412  0.2457
13295SOL    HW144732   3.873   4.566   6.849  0.6897  2.1478  0.2261
13295SOL    HW244733   3.730   4.520   6.873  1.7416 -1.9259 -0.5202
13296SOL     OW44734   2.466   2.493   7.691 -0.8406  0.2217  0.2667
13296SOL    HW144735   2.384   2.527   7.726  0.4107  0.7266  2.9303
13296SOL    HW244736   2.439   2.427   7.627 -3.2792  1.4988 -0.1500
13297SOL     OW44737   4.741   4.831   0.291 -0.2929 -0.7911  0.4634
13297SOL    HW144738   4.663   4.860   0.338 -0.1809 -0.2712  0.3374
13297SOL    HW244739   4.770   4.908   0.242 -0.2467 -1.2509 -0.2452
13298SOL     OW44740   3.176   4.098   7.778  0.1826  0.1228  0.5738
13298SOL    HW144741   3.112   4.134   7.840 -0.8584 -1.8614  0.7253
13298SOL    HW244742   3.167   4.003   7.786 -1.5413 -0.3573 -4.0420
13299SOL     OW44743   5.363   2.171   4.936 -0.0415 -0.1990 -0.6832
13299SOL    HW144744   5.385   2.257   4.972 -2.9145  0.4494 -0.1775
13299SOL    HW244745   5.395   2.109   5.001 -0.2170  0.6755  0.2706
13300SOL     OW44746   3.357   4.852   9.086  0.3860 -0.4161 -0.1831
13300SOL    HW144747   3.394   4.888   9.167 -0.5051 -0.7521  0.3955
13300SOL    HW244748   3.331   4.762   9.110  0.2403 -0.5633 -0.8762
13301SOL     OW44749   4.251   4.256   8.916  0.0923 -0.0033 -0.7955
13301SOL    HW144750   4.245   4.183   8.855  2.5867 -0.9259 -0.0579
13301SOL    HW244751   4.283   4.329   8.863  1.1845 -0.4961 -0.8335
13302SOL     OW44752   3.399   3.784   9.465 -0.0393 -0.3167 -0.2973
13302SOL    HW144753   3.305   3.779   9.481  0.1727 -1.1701  0.8627
13302SOL    HW244754   3.434   3.707   9.510  1.1978 -0.0641 -0.8037
13303SOL     OW44755   1.691   5.592   7.593 -0.4956 -0.1173 -0.2304
13303SOL    HW144756   1.618   5.572   7.534 -0.2825 -0.5638 -0.3481
13303SOL    HW244757   1.719   5.506   7.627 -0.9527  0.1666  0.9282
13304SOL     OW44758   2.632   1.030   1.459  0.2499  0.2294  0.1706
13304SOL    HW144759   2.575   1.093   1.503  0.2371  0.7610 -0.5935
13304SOL    HW244760   2.573   0.975   1.407  0.4056  0.6200 -0.4247
13305SOL     OW44761   2.878   1.358   8.182 -0.0390  0.1091  0.1646
13305SOL    HW144762   2.837   1.382   8.264  1.0818  0.8871  0.5257
13305SOL    HW244763   2.851   1.268   8.166 -0.8190  0.1828  1.0300
13306SOL     OW44764   5.197   1.181   8.588 -0.3909  0.0182 -0.1989
13306SOL    HW144765   5.262   1.111   8.588  1.1976  1.4228 -1.4053
13306SOL    HW244766   5.157   1.177   8.501 -2.1974 -1.0236  0.6306
13307SOL     OW44767   2.092   5.278   9.421  0.1865 -0.9485 -0.5566
13307SOL    HW144768   2.123   5.271   9.331 -0.7179 -0.2464 -0.9402
13307SOL    HW244769   2.102   5.190   9.457  1.6458 -0.9767 -0.9634
13308SOL     OW44770   5.238   2.400   7.915 -0.4849 -0.6519  0.3438
13308SOL    HW144771   5.159   2.453   7.907 -0.8748 -1.1808  0.6768
13308SOL    HW244772   5.226   2.349   7.995 -0.1554 -1.3135 -0.0179
13309SOL     OW44773   3.778   3.067   9.112  0.0015  0.0183  0.4026
13309SOL    HW144774   3.770   3.082   9.206  0.8737 -0.2461  0.5304
13309SOL    HW244775   3.840   3.133   9.082 -0.2986  0.1238  0.0062
13310SOL     OW44776   4.112   5.233   7.015 -0.4604 -0.2004 -0.0746
13310SOL    HW144777   4.020   5.246   6.991 -0.2301  1.4554 -0.2098
13310SOL    HW244778   4.135   5.147   6.980 -2.4741 -1.5226  1.6436
13311SOL     OW44779   4.719   3.003   9.641  0.2709 -0.6102  0.5252
13311SOL    HW144780   4.733   2.922   9.593  1.8670 -1.6353  2.5800
13311SOL    HW244781   4.752   3.071   9.582 -1.8491 -1.2505 -1.5840
13312SOL     OW44782   5.768   1.892   8.724  0.6167  0.3462 -0.2595
13312SOL    HW144783   5.807   1.879   8.811  1.3533 -1.2125 -0.7763
13312SOL    HW244784   5.821   1.838   8.666 -0.1139  1.0454 -1.6282
13313SOL     OW44785   6.111   4.798   8.442  0.2674 -0.6010 -0.6864
13313SOL    HW144786   6.070   4.884   8.444  0.2095 -0.6388  0.9774
13313SOL    HW244787   6.205   4.817   8.443  0.2590 -0.5598 -0.6832
13314SOL     OW44788   3.060   2.899   8.087 -0.7253  0.3226  0.0315
13314SOL    HW144789   3.015   2.855   8.159 -0.5719  1.4504  0.8471
13314SOL    HW244790   3.091   2.828   8.031 -0.7089 -0.5834  1.1602
13315SOL     OW44791   5.813   3.872   5.525  0.5521 -0.4964  0.1979
13315SOL    HW144792   5.731   3.895   5.480  0.0931  1.1490  1.7453
13315SOL    HW244793   5.826   3.780   5.505 -0.9239 -0.4490 -1.2435
13316SOL     OW44794   3.712   2.195   6.990  0.5770 -0.2224 -0.3566
13316SOL    HW144795   3.702   2.219   6.898 -2.0949  2.2266  0.4218
13316SOL    HW244796   3.623   2.199   7.025  1.7327  1.0124  2.7843
13317SOL     OW44797   3.475   5.017   0.894 -0.1796  0.6525 -0.1085
13317SOL    HW144798   3.524   4.935   0.896 -1.6244 -0.2299  0.1976
13317SOL    HW244799   3.537   5.080   0.857  2.0064  0.1737  2.4322
13318SOL     OW44800   6.201   3.321   7.629  0.1589 -0.2463 -0.4067
13318SOL    HW144801   6.289   3.284   7.636 -0.1740 -0.9909  0.0209
13318SOL    HW244802   6.179   3.347   7.718 -0.0900 -0.1535 -0.4955
13319SOL     OW44803   2.820   4.051   6.283 -0.0520  0.0316  0.3924
13319SOL    HW144804   2.795   3.997   6.208  1.3144 -0.7481  0.4717
13319SOL    HW244805   2.748   4.042   6.345 -0.8613  0.1044 -0.5283
13320SOL     OW44806   5.364   5.063   8.345  0.3780 -0.1590  0.0670
13320SOL    HW144807   5.286   5.008   8.353 -0.1906  0.3942 -1.4242
13320SOL    HW244808   5.362   5.119   8.423 -1.2108  0.4414 -0.3720
13321SOL     OW44809   5.834   2.004   6.749 -0.8774 -0.3162 -0.1779
13321SOL    HW144810   5.898   2.075   6.738 -0.3238 -0.7642  0.1153
13321SOL    HW244811   5.852   1.943   6.677  0.8713 -1.8233  1.4370
13322SOL     OW44812   3.424   2.066   5.752 -0.2958  0.4010  0.4845
13322SOL    HW144813   3.508   2.045   5.792 -0.1852 -1.9547 -0.7838
13322SOL    HW244814   3.370   2.098   5.824  0.9558 -0.3478  1.8017
13323SOL     OW44815   3.547   9.825   4.801  0.1447 -0.1414 -1.0960
13323SOL    HW144816   3.500   9.815   4.718  0.2010 -0.7787 -1.0556
13323SOL    HW244817   3.636   9.795   4.782  0.1378 -0.3586 -0.7911
13324SOL     OW44818   5.570   1.131   8.535  0.1667  0.0379  0.3776
13324SOL    HW144819   5.619   1.079   8.471 -0.2971  1.1646 -0.9284
13324SOL    HW244820   5.506   1.179   8.484 -0.5527  0.6077  1.7554
13325SOL     OW44821   4.811   1.732   7.736  0.1825 -0.8904 -0.0870
13325SOL    HW144822   4.783   1.672   7.667 -0.3635 -0.0508 -0.6113
13325SOL    HW244823   4.755   1.711   7.811 -0.0613 -0.9641 -0.2922
13326SOL     OW44824   5.178   2.466   6.581  0.2903  0.4434 -0.2557
13326SOL    HW144825   5.127   2.543   6.606 -0.8043 -0.0816 -0.8038
13326SOL    HW244826   5.215   2.488   6.496  0.9102  0.7866  0.0976
13327SOL     OW44827   5.448   2.394   9.086  0.5483 -0.6417 -0.0398
13327SOL    HW144828   5.421   2.336   9.157  0.6597 -1.5408 -0.7064
13327SOL    HW244829   5.367   2.412   9.038  0.8020 -1.9998 -1.0685
13328SOL     OW44830   6.021   4.057   5.901 -0.0336 -0.1709 -0.0112
13328SOL    HW144831   6.051   4.137   5.943  0.9009  0.8797 -2.4953
13328SOL    HW244832   6.069   3.987   5.946 -0.2792  0.6840  1.6705
13329SOL     OW44833   4.774   2.222   8.303 -0.4839 -0.4670  0.4467
13329SOL    HW144834   4.682   2.197   8.290  0.2522 -3.3926  0.2191
13329SOL    HW244835   4.778   2.249   8.395 -1.7042  0.5350  0.2370
13330SOL     OW44836   3.883   2.950   9.825  0.2277 -0.3780  0.2837
13330SOL    HW144837   3.795   2.951   9.787  0.3336  0.8301  0.0445
13330SOL    HW244838   3.868   2.964   9.919  0.2730  3.3787 -0.1114
13331SOL     OW44839   6.375   1.788   1.091  0.3845  0.2471 -0.3237
13331SOL    HW144840   6.362   1.694   1.101 -0.0717  0.4168  0.7718
13331SOL    HW244841   6.464   1.796   1.056  0.6593 -0.5650  0.1654
13332SOL     OW44842   4.774   3.697   7.740 -0.0462 -0.0224 -0.0885
13332SOL    HW144843   4.741   3.766   7.797 -1.4835 -0.1026 -0.7900
13332SOL    HW244844   4.844   3.738   7.689 -0.3021  0.6620  0.1114
13333SOL     OW44845   2.291   1.975   7.248  0.6222  0.2671 -0.3004
13333SOL    HW144846   2.285   1.958   7.154 -0.4659  2.8248 -0.7735
13333SOL    HW244847   2.209   1.940   7.284 -0.2227  1.6852 -0.7773
13334SOL     OW44848   2.722   5.195   4.255 -0.2851 -0.2473  0.2005
13334SOL    HW144849   2.663   5.267   4.235  1.0479  0.9788  0.4950
13334SOL    HW244850   2.681   5.150   4.328 -0.4371  1.1477  1.0132
13335SOL     OW44851   2.927   2.687   0.644  0.0190  0.2816  0.1400
13335SOL    HW144852   2.930   2.675   0.549  0.6728 -0.7307  0.2711
13335SOL    HW244853   2.942   2.600   0.679  1.8004  0.9679  1.1864
13336SOL     OW44854   3.149   1.551   8.707  0.1712  0.0499  0.0145
13336SOL    HW144855   3.073   1.594   8.747  0.0707 -0.7517  0.7214
13336SOL    HW244856   3.217   1.554   8.775  0.8316  0.8748 -0.6568
13337SOL     OW44857   4.322   4.330   7.458  0.5494 -0.2413 -0.2036
13337SOL    HW144858   4.275   4.412   7.445 -0.1219 -0.6135 -0.1693
13337SOL    HW244859   4.253   4.263   7.460  1.0221 -0.7230  0.5027
13338SOL     OW44860   3.228   3.322   9.673  0.4966 -0.5947  0.3891
13338SOL    HW144861   3.170   3.374   9.617  0.3557 -1.7273 -0.5610
13338SOL    HW244862   3.313   3.366   9.666  0.6854 -1.1663 -1.4096
13339SOL     OW44863   5.319   1.800   1.368 -0.4189  0.2560  0.1239
13339SOL    HW144864   5.225   1.781   1.377 -0.2097 -0.2670  1.4283
13339SOL    HW244865   5.360   1.714   1.367  0.1893  0.5029  1.5466
13340SOL     OW44866   5.320   2.403   6.834  0.2603  0.4788  0.2160
13340SOL    HW144867   5.262   2.451   6.892 -0.4736  0.7501 -0.7107
13340SOL    HW244868   5.282   2.415   6.747  0.7603 -0.7418 -0.1941
13341SOL     OW44869   4.438   2.850   6.240 -0.4386 -0.1373 -0.5278
13341SOL    HW144870   4.393   2.925   6.201  0.5888 -0.0749 -1.6577
13341SOL    HW244871   4.377   2.816   6.305 -1.2994  1.1184 -0.6489
13342SOL     OW44872   3.674   1.102   6.883  0.1869  0.1125 -0.2322
13342SOL    HW144873   3.657   1.020   6.930 -0.5191  0.6956  0.5882
13342SOL    HW244874   3.627   1.092   6.800 -0.7100  0.0437  0.2652
13343SOL     OW44875   7.143   3.248   5.671  0.1477  0.5039 -0.3149
13343SOL    HW144876   7.201   3.324   5.661  1.0415 -0.1895 -0.5471
13343SOL    HW244877   7.180   3.198   5.744  1.2699 -1.1381 -1.8941
13344SOL     OW44878   4.939   2.563   8.267 -0.3373 -0.5635 -0.1351
13344SOL    HW144879   4.998   2.608   8.327 -0.7271 -1.1466  0.7018
13344SOL    HW244880   4.851   2.581   8.301 -0.5009 -1.9622  0.2467
13345SOL     OW44881   5.719   0.951   0.110  0.2663  0.3480  0.1644
13345SOL    HW144882   5.662   0.964   0.035  1.8284 -1.2239 -1.3737
13345SOL    HW244883   5.667   0.896   0.170 -2.1453  3.9549  1.7950
13346SOL     OW44884   3.555   4.200   9.686  0.1138 -0.3883 -0.2095
13346SOL    HW144885   3.568   4.141   9.611  0.7506 -0.2041 -0.2454
13346SOL    HW244886   3.460   4.203   9.697 -0.0757  0.4546 -1.7287
13347SOL     OW44887   7.771   2.262   8.650  0.3499 -0.1862  0.1757
13347SOL    HW144888   7.703   2.265   8.582  1.0126 -0.0495 -0.4925
13347SOL    HW244889   7.779   2.169   8.670  0.4528 -0.2699 -0.2430
13348SOL     OW44890   5.821   1.193   7.286 -0.7309 -0.5793 -0.3989
13348SOL    HW144891   5.777   1.141   7.353 -1.0113 -1.1632 -1.0216
13348SOL    HW244892   5.913   1.195   7.314 -1.0280  0.0992  0.5608
13349SOL     OW44893   4.644   2.645   0.201  0.2531  0.5325  0.4477
13349SOL    HW144894   4.635   2.551   0.185  1.3582 -0.1928  3.4128
13349SOL    HW244895   4.594   2.686   0.130 -0.4901 -2.2593 -0.8040
13350SOL     OW44896   7.270   1.915   5.519 -0.7820 -0.1700  0.2868
13350SOL    HW144897   7.333   1.974   5.478 -1.1950  0.3636  0.4097
13350SOL    HW244898   7.324   1.853   5.569 -0.3621  0.3904  0.5378
13351SOL     OW44899   4.956   2.836   6.498  0.2350 -0.0775  0.3782
13351SOL    HW144900   4.969   2.767   6.433 -0.2437 -1.1971  1.4401
13351SOL    HW244901   4.976   2.917   6.450 -0.8248 -0.7861 -1.3729
13352SOL     OW44902   5.173   2.915   8.654  0.1904 -0.2131  0.1077
13352SOL    HW144903   5.219   2.994   8.624  3.4008 -0.5325  3.4190
13352SOL    HW244904   5.220   2.843   8.612 -1.2943 -0.4901 -1.1536
13353SOL     OW44905   5.527   5.417   8.369 -0.5235  0.0759  0.3689
13353SOL    HW144906   5.570   5.486   8.318 -1.3036 -0.2315 -0.7467
13353SOL    HW244907   5.436   5.445   8.373 -0.7168 -0.5602  0.4697
13354SOL     OW44908   3.542   3.415   8.641 -0.3976  0.6067  0.2928
13354SOL    HW144909   3.522   3.450   8.728 -1.0633 -0.7653  0.7277
13354SOL    HW244910   3.482   3.341   8.631  1.0831 -0.5359 -0.4860
13355SOL     OW44911   5.173   3.736   7.173  0.9161 -0.1009  0.4097
13355SOL    HW144912   5.079   3.754   7.160  0.7641  0.6292  2.2570
13355SOL    HW244913   5.193   3.669   7.108 -0.6787  0.3437 -0.6200
13356SOL     OW44914   5.735   2.766   7.903 -0.3197  0.3457 -0.1165
13356SOL    HW144915   5.697   2.699   7.959  0.2261  0.7512  0.7562
13356SOL    HW244916   5.794   2.718   7.845 -0.2433  0.0239  0.2263
13357SOL     OW44917   4.594   4.462   7.028  0.6100  0.0242 -0.1046
13357SOL    HW144918   4.518   4.421   6.986 -0.0701  0.5713  0.5699
13357SOL    HW244919   4.596   4.424   7.116 -2.0412  3.7053  1.7871
13358SOL     OW44920   2.840   4.907   8.184 -0.1683  0.8412  0.1935
13358SOL    HW144921   2.763   4.948   8.223 -1.5230 -1.3515 -0.0039
13358SOL    HW244922   2.865   4.838   8.246 -0.7290 -0.9331 -1.4390
13359SOL     OW44923   3.199   4.595   6.610  0.7571 -0.6931  0.3562
13359SOL    HW144924   3.212   4.686   6.582  0.1458 -0.2259  1.5126
13359SOL    HW244925   3.142   4.602   6.687 -0.9887 -2.1941 -0.7329
13360SOL     OW44926   4.377   2.095   9.641  0.0264  0.7078  0.4232
13360SOL    HW144927   4.386   2.185   9.611  0.4383  1.0175  1.4313
13360SOL    HW244928   4.327   2.051   9.572  0.5235  1.5034 -0.4646
13361SOL     OW44929   4.055   2.188   7.803 -0.3307 -0.5104  0.3385
13361SOL    HW144930   4.046   2.163   7.711 -1.9751  2.0169 -0.2822
13361SOL    HW244931   3.983   2.249   7.818  0.2776 -0.3728  3.1572
13362SOL     OW44932   5.950   3.252   9.324 -0.4848 -0.1187  0.3480
13362SOL    HW144933   5.871   3.274   9.373  0.1393  2.6248  0.2785
13362SOL    HW244934   5.970   3.163   9.351 -4.0853 -1.3223 -0.3589
13363SOL     OW44935   3.893   1.860   6.854 -0.3340 -0.2398  1.0903
13363SOL    HW144936   3.887   1.954   6.835 -2.8248 -0.1462  1.9778
13363SOL    HW244937   3.908   1.855   6.948  4.0194 -0.7913  0.5582
13364SOL     OW44938   2.836   3.048   0.513 -0.2903  0.6417  0.3226
13364SOL    HW144939   2.839   2.981   0.445 -0.7525 -0.2913  1.1911
13364SOL    HW244940   2.928   3.074   0.525 -0.1283  0.3078 -0.1443
13365SOL     OW44941   2.881   2.806   9.633 -0.1698  0.1412 -0.5320
13365SOL    HW144942   2.903   2.815   9.541 -0.2449  0.5429 -0.5136
13365SOL    HW244943   2.788   2.828   9.638 -0.3239 -0.5063 -0.4534
13366SOL     OW44944   2.736   5.666   5.189 -0.1997 -0.5992  0.0449
13366SOL    HW144945   2.789   5.657   5.110  0.2002 -1.8316  0.4342
13366SOL    HW244946   2.650   5.693   5.157 -0.0252 -1.0223 -0.8129
13367SOL     OW44947   3.139   4.780   9.746  0.0282  0.2476  0.4778
13367SOL    HW144948   3.206   4.724   9.786 -0.0573 -0.4417 -0.3227
13367SOL    HW244949   3.175   4.801   9.660  0.0973  1.5120  0.7908
13368SOL     OW44950   3.902   3.064   6.848 -0.3139 -0.1366  0.6361
13368SOL    HW144951   3.912   2.980   6.892 -1.5249 -0.5765  0.1082
13368SOL    HW244952   3.864   3.043   6.764 -3.6464  1.1433  1.6760
13369SOL     OW44953   3.179   3.830   8.858  0.2557 -0.4602 -0.4831
13369SOL    HW144954   3.133   3.862   8.935  0.3353 -1.7872  0.1379
13369SOL    HW244955   3.271   3.826   8.885  0.3351 -0.5902 -0.7709
13370SOL     OW44956   4.499   4.965   7.131 -0.1622  0.1749  0.1438
13370SOL    HW144957   4.534   4.966   7.221 -0.8876  0.1700  0.4340
13370SOL    HW244958   4.541   4.889   7.090  0.4710  0.4030  0.3563
13371SOL     OW44959   4.014   3.635   8.320  0.1791 -0.1413  0.1029
13371SOL    HW144960   4.004   3.730   8.328  0.2378 -0.2036  0.9314
13371SOL    HW244961   4.034   3.621   8.227  1.5694  0.7782  0.2410
13372SOL     OW44962   5.466   1.496   0.115 -0.6026 -0.0951 -0.8114
13372SOL    HW144963   5.420   1.484   0.198 -0.7723  1.8970 -0.5672
13372SOL    HW244964   5.511   1.413   0.100  0.8443  0.0122  2.1854
13373SOL     OW44965   4.109   5.927   8.500  0.3093 -0.1980 -0.2381
13373SOL    HW144966   4.064   5.852   8.461 -1.7448  1.0285 -0.4009
13373SOL    HW244967   4.038   5.989   8.520  1.3880 -0.0725  4.0134
13374SOL     OW44968   4.882   2.923   9.287  0.2293  0.0924  0.1206
13374SOL    HW144969   4.872   2.980   9.211  2.4389 -0.6972 -0.8321
13374SOL    HW244970   4.939   2.972   9.346  1.5056 -0.7571 -0.3664
13375SOL     OW44971   3.093   5.640   7.998  0.3577 -0.0467  0.2863
13375SOL    HW144972   3.156   5.567   8.002 -1.8331 -2.0082  1.4983
13375SOL    HW244973   3.094   5.676   8.087 -0.5857 -0.4441  0.4637
13376SOL     OW44974   4.187   3.239   1.557 -0.2040 -0.2745 -0.2677
13376SOL    HW144975   4.234   3.179   1.615  0.9631 -0.4589 -1.3555
13376SOL    HW244976   4.150   3.305   1.615  1.2876 -0.2196  0.6641
13377SOL     OW44977   2.949   1.266   9.316 -0.3224  0.1499  0.4131
13377SOL    HW144978   3.038   1.287   9.343 -0.2480 -0.3542  0.5786
13377SOL    HW244979   2.916   1.208   9.385 -0.6500  0.0384  0.1674
13378SOL     OW44980   3.998   3.915   0.107 -0.0344 -0.9910 -0.0346
13378SOL    HW144981   3.960   3.998   0.080 -0.0745 -0.9038  0.2916
13378SOL    HW244982   4.082   3.910   0.060  0.9537  0.2016  1.5142
13379SOL     OW44983   6.928   2.552   9.016 -0.4644 -0.0053  0.3172
13379SOL    HW144984   6.840   2.515   9.017 -0.2919 -0.4261  1.0758
13379SOL    HW244985   6.958   2.544   9.107  1.4483 -2.5683 -0.4164
13380SOL     OW44986   5.367   4.757   1.702  0.6305  0.1087  0.1531
13380SOL    HW144987   5.357   4.717   1.616 -0.8614 -0.8288  0.7158
13380SOL    HW244988   5.417   4.693   1.753  0.9744  0.3825  0.1629
13381SOL     OW44989   1.540   5.241   0.294  1.1051  0.4238 -0.3688
13381SOL    HW144990   1.568   5.212   0.381 -0.9366 -0.4985  0.0313
13381SOL    HW244991   1.486   5.318   0.311  0.4443  0.0557 -0.8004
13382SOL     OW44992   4.010   1.376   0.500  0.6259 -0.3945  0.0365
13382SOL    HW144993   4.022   1.454   0.554  1.8384  0.2039 -1.0281
13382SOL    HW244994   3.922   1.385   0.464  0.9121  0.7399 -0.4297
13383SOL     OW44995   5.812   1.989   9.857 -0.3717  0.3706  0.2835
13383SOL    HW144996   5.788   2.064   9.802  2.8628 -1.1107 -3.6586
13383SOL    HW244997   5.876   2.024   9.919 -0.0225  1.2163 -0.5265
13384SOL     OW44998   5.424   0.434   7.522  0.3427  0.1341  1.1674
13384SOL    HW144999   5.517   0.453   7.509  0.2424 -0.4651 -0.5958
13384SOL    HW245000   5.416   0.340   7.506 -0.7404  0.3732  0.1955
13385SOL     OW45001   6.535   3.139   8.371 -0.7129  0.0890  0.0032
13385SOL    HW145002   6.585   3.217   8.345 -0.8455  0.3749  0.5881
13385SOL    HW245003   6.558   3.073   8.305  0.8690  0.0329  0.5660
13386SOL     OW45004   2.881   2.308   1.882  0.2373 -0.0157  0.6990
13386SOL    HW145005   2.887   2.234   1.943 -2.0892  0.7665  1.9871
13386SOL    HW245006   2.843   2.270   1.802  1.2122 -0.6121  0.4983
13387SOL     OW45007   5.147   2.316   8.183  0.2206  0.1638  0.4333
13387SOL    HW145008   5.175   2.239   8.232  1.2716  1.1759  1.4739
13387SOL    HW245009   5.156   2.388   8.244 -2.3061  0.9327 -0.0072
13388SOL     OW45010   5.147   3.279   0.705  0.5211  0.1977  0.3617
13388SOL    HW145011   5.108   3.193   0.718  0.3261  0.4351  1.4513
13388SOL    HW245012   5.216   3.265   0.640 -0.3096 -0.5285 -0.3847
13389SOL     OW45013   2.966   2.463   0.418 -0.5710  0.5029 -0.0553
13389SOL    HW145014   2.985   2.385   0.366  0.1503  2.1239 -2.4121
13389SOL    HW245015   2.874   2.481   0.402 -0.1207  1.5757 -1.7693
13390SOL     OW45016   7.384   9.476   0.137 -0.3614  0.5041  0.4433
13390SOL    HW145017   7.430   9.428   0.205 -2.0465 -1.0702  0.5453
13390SOL    HW245018   7.388   9.568   0.165  1.9188  0.3432  0.8415
13391SOL     OW45019   4.750   1.041   8.853 -0.6886 -0.2097 -0.1104
13391SOL    HW145020   4.830   1.066   8.900  0.1655 -1.6239 -0.7235
13391SOL    HW245021   4.782   0.987   8.780 -2.1132  0.3630 -1.1986
13392SOL     OW45022   3.757   3.592   7.551  0.1090 -0.0666 -0.0115
13392SOL    HW145023   3.849   3.617   7.562  0.2811  0.6575 -2.4535
13392SOL    HW245024   3.757   3.530   7.478 -1.3762  0.5518 -0.5891
13393SOL     OW45025   5.322   2.903   1.236  0.2370 -0.0092 -0.2028
13393SOL    HW145026   5.389   2.972   1.234  1.2318 -0.9704 -1.1731
13393SOL    HW245027   5.243   2.945   1.203  0.6718  0.8144 -0.2209
13394SOL     OW45028   4.350   3.570   8.461  0.0959  0.0160  0.8410
13394SOL    HW145029   4.257   3.566   8.483  0.0740  0.1529  0.7716
13394SOL    HW245030   4.364   3.660   8.432 -0.0071 -0.3061 -0.2762
13395SOL     OW45031   6.138   2.694   7.513  0.2140  0.1872 -0.2694
13395SOL    HW145032   6.224   2.694   7.555  0.2347  0.7295 -0.3145
13395SOL    HW245033   6.076   2.694   7.585  0.1613 -3.6063 -0.0889
13396SOL     OW45034   4.814   3.048   9.034 -0.2173 -0.2311  0.5668
13396SOL    HW145035   4.894   3.050   8.981 -1.6326 -1.2796 -1.7718
13396SOL    HW245036   4.775   3.135   9.020 -0.9439 -0.7430 -0.7956
13397SOL     OW45037   6.243   3.775   2.263 -0.3151 -0.1232  1.0084
13397SOL    HW145038   6.171   3.779   2.325  0.4863 -2.0542  2.1383
13397SOL    HW245039   6.265   3.682   2.256  0.9824  0.2492 -0.5779
13398SOL     OW45040   0.522   1.171   0.710 -0.4760 -0.6252 -0.6806
13398SOL    HW145041   0.445   1.200   0.759 -0.0168 -0.8701  0.2099
13398SOL    HW245042   0.529   1.077   0.729 -0.6751 -0.8740 -1.7660
13399SOL     OW45043   4.418   1.776   9.052 -0.2629  0.7539  0.0154
13399SOL    HW145044   4.461   1.789   8.967  1.3605  2.1250  0.9789
13399SOL    HW245045   4.352   1.846   9.057  0.5377  1.5017  0.3945
13400SOL     OW45046   4.534   3.308   1.756  0.4280  0.1904 -0.6355
13400SOL    HW145047   4.525   3.225   1.708 -2.3041  0.1050 -0.1069
13400SOL    HW245048   4.611   3.295   1.811  0.5550 -1.6975 -1.1738
13401SOL     OW45049   4.796   2.221   9.130 -0.2987  0.4169 -0.4077
13401SOL    HW145050   4.762   2.132   9.121  0.8008 -0.4797  2.7950
13401SOL    HW245051   4.723   2.271   9.167  0.1475 -0.1851  1.4070
13402SOL     OW45052   2.321   2.813   8.564 -0.4402 -0.1455  0.4945
13402SOL    HW145053   2.272   2.760   8.627 -2.5708  1.7063  0.5039
13402SOL    HW245054   2.265   2.815   8.486  0.3964  0.6813 -0.1074
13403SOL     OW45055   5.815   1.489   9.078  0.5367  0.8246 -0.1058
13403SOL    HW145056   5.816   1.489   8.983  0.7746  1.0715 -0.1071
13403SOL    HW245057   5.770   1.409   9.103 -0.4056  1.2466 -0.4297
13404SOL     OW45058   5.988   2.922   1.618  0.2779  0.0487  0.2559
13404SOL    HW145059   6.049   2.883   1.555 -1.6499  0.7629 -2.2119
13404SOL    HW245060   5.956   3.001   1.575 -2.3362 -0.2649  1.4377
13405SOL     OW45061   5.971   2.527   8.080  0.0057  0.3487 -0.5245
13405SOL    HW145062   5.881   2.496   8.076 -0.3645  1.5154 -1.8268
13405SOL    HW245063   6.008   2.505   7.994  0.6963  0.6530 -0.3104
13406SOL     OW45064   4.910   2.469   9.855 -0.2163  0.5753 -0.2510
13406SOL    HW145065   4.918   2.530   9.928 -1.2528  0.0038  0.3449
13406SOL    HW245066   4.818   2.444   9.853 -0.6166  1.8405 -2.7760
13407SOL     OW45067   2.343   3.825   0.213  0.6397 -0.0227 -0.2803
13407SOL    HW145068   2.251   3.826   0.184  0.4474  2.1053  0.2610
13407SOL    HW245069   2.339   3.804   0.306  0.6453  0.5530 -0.1455
13408SOL     OW45070   5.559   3.950   9.322  0.2079  0.5320  0.5208
13408SOL    HW145071   5.612   4.008   9.376  0.4278  0.3198  0.5299
13408SOL    HW245072   5.538   3.877   9.379  2.5278 -0.9461 -0.3903
13409SOL     OW45073   5.974   2.383   0.445 -0.1107 -0.6327 -0.5073
13409SOL    HW145074   6.066   2.368   0.422  0.6354  0.5004  1.5001
13409SOL    HW245075   5.952   2.466   0.401  0.6590  0.4220  0.9963
13410SOL     OW45076   2.390   3.269   1.253 -0.1917  0.2213  0.2219
13410SOL    HW145077   2.334   3.208   1.206  0.6382  0.7324 -1.5139
13410SOL    HW245078   2.394   3.234   1.342 -1.0043 -1.3585 -0.3239
13411SOL     OW45079   3.906   2.370   0.010 -0.5126 -0.6139 -0.3546
13411SOL    HW145080   3.917   2.462   0.035  1.3216 -0.9864  0.3716
13411SOL    HW245081   3.837   2.338   0.068  0.2107 -0.1774  0.7887
13412SOL     OW45082   1.814   3.958   7.468  0.1802  0.0251 -0.2982
13412SOL    HW145083   1.844   3.869   7.450 -2.8315 -0.7936 -1.9040
13412SOL    HW245084   1.804   3.999   7.382  1.9191  2.1417  0.4193
13413SOL     OW45085   4.259   4.109   9.178 -0.2602 -0.0845 -0.7639
13413SOL    HW145086   4.254   4.143   9.089  0.1429  0.7728 -0.4690
13413SOL    HW245087   4.351   4.088   9.191 -0.0014  1.3822  0.0047
13414SOL     OW45088   2.888   2.900   1.404 -0.0650  0.2804  0.0787
13414SOL    HW145089   2.938   2.945   1.336 -1.6607  0.4294 -1.0479
13414SOL    HW245090   2.815   2.859   1.357 -1.4020  0.6522  1.7437
13415SOL     OW45091   6.201   0.430   9.036  0.0521  0.1848 -0.1889
13415SOL    HW145092   6.177   0.490   8.965 -0.6160  0.3852  0.1961
13415SOL    HW245093   6.285   0.392   9.008 -0.4205 -0.0818 -1.2860
13416SOL     OW45094   1.339   1.496   1.412 -0.2187 -0.2442 -0.1924
13416SOL    HW145095   1.281   1.492   1.336  0.0816 -0.0226 -0.4323
13416SOL    HW245096   1.306   1.427   1.471 -1.8048  0.9881  0.4288
13417SOL     OW45097   6.803   1.962   9.546 -0.1124  0.6851  0.5063
13417SOL    HW145098   6.877   1.992   9.599  0.4087  1.5668 -0.6687
13417SOL    HW245099   6.843   1.906   9.480 -0.8764 -1.2651  1.6176
13418SOL     OW45100   3.497   1.496   8.734 -0.3323  0.2033  0.4099
13418SOL    HW145101   3.532   1.408   8.743 -1.4236 -0.3149 -0.1977
13418SOL    HW245102   3.549   1.535   8.663  0.7519  0.3889  1.2774
13419SOL     OW45103   4.064   2.340   0.289  0.0589  0.4609  0.2155
13419SOL    HW145104   4.138   2.281   0.303 -0.3195 -0.3124 -0.8766
13419SOL    HW245105   4.040   2.327   0.197 -2.4762 -0.5891  0.9357
13420SOL     OW45106   4.703   3.268   6.975 -0.3971 -0.0191  0.7636
13420SOL    HW145107   4.774   3.317   7.017 -0.5846  0.4458  0.5416
13420SOL    HW245108   4.743   3.185   6.950 -0.2479 -0.2658  1.7584
13421SOL     OW45109   5.145   1.983   0.785 -0.2534 -0.1268  0.1282
13421SOL    HW145110   5.193   1.979   0.868  1.2044  2.2668 -0.5036
13421SOL    HW245111   5.190   1.920   0.728  1.8006  1.5588 -0.2282
13422SOL     OW45112   1.780   2.786   7.611  0.2459 -0.4903 -0.4058
13422SOL    HW145113   1.766   2.702   7.654 -1.4585  0.3941  0.9019
13422SOL    HW245114   1.694   2.829   7.615  1.2940  1.7072 -0.1650
13423SOL     OW45115   5.479   1.970   9.753  0.0963  0.0866  0.5249
13423SOL    HW145116   5.391   1.945   9.780  0.2872 -0.0634  1.0093
13423SOL    HW245117   5.526   1.887   9.746 -0.4940 -0.1337 -2.3186
13424SOL     OW45118   5.239   6.940   7.973 -1.1068  0.6953  0.3738
13424SOL    HW145119   5.290   6.936   7.892  1.9123 -1.2664  2.1291
13424SOL    HW245120   5.225   6.848   7.997  0.1254  1.0941  3.0929
13425SOL     OW45121   6.308   2.955   8.033 -0.0802 -0.0736  0.2797
13425SOL    HW145122   6.383   2.899   8.052  0.0489 -0.2293 -0.6299
13425SOL    HW245123   6.232   2.898   8.045  0.0646 -0.5547 -0.9344
13426SOL     OW45124   5.890   4.195   9.518 -0.4391 -0.1269 -0.0404
13426SOL    HW145125   5.963   4.157   9.469  1.1980 -0.1331  2.2733
13426SOL    HW245126   5.899   4.289   9.506 -1.1972 -0.1855 -1.2500
13427SOL     OW45127   4.541   3.994   3.267 -0.0435  0.1630  0.4215
13427SOL    HW145128   4.497   4.064   3.218  0.0044 -0.3542 -0.3898
13427SOL    HW245129   4.482   3.974   3.339 -1.7149 -1.2386 -1.2388
13428SOL     OW45130   6.288   2.985   9.128 -0.0741  0.7525 -0.9225
13428SOL    HW145131   6.206   3.023   9.095  0.0001 -0.5562 -2.7595
13428SOL    HW245132   6.269   2.962   9.219 -0.7462  3.2302 -0.3658
13429SOL     OW45133   5.019   3.477   0.252 -0.0701 -0.3174  0.3271
13429SOL    HW145134   5.016   3.451   0.160  1.7611 -2.4028  0.7851
13429SOL    HW245135   5.049   3.568   0.250  0.3910 -0.4828 -1.1239
13430SOL     OW45136   6.674   2.412   9.033 -0.0780 -0.2689  0.0872
13430SOL    HW145137   6.634   2.415   9.120 -1.1488 -0.2580 -0.3910
13430SOL    HW245138   6.629   2.340   8.988  0.4718 -0.2838 -0.4494
13431SOL     OW45139   2.049   2.909   7.680  0.6465  0.4944 -0.5289
13431SOL    HW145140   2.073   2.939   7.592 -0.0649  0.6141 -0.6931
13431SOL    HW245141   1.976   2.849   7.666  0.5048  0.5407 -0.0173
13432SOL     OW45142   3.515   2.998   9.127  0.4853  0.1538 -0.2859
13432SOL    HW145143   3.493   3.056   9.054 -0.2446  0.0842 -0.1279
13432SOL    HW245144   3.608   2.982   9.117  0.5440  0.7541 -0.7673
13433SOL     OW45145   6.224   3.148   6.935 -0.0726  0.2902  0.1529
13433SOL    HW145146   6.130   3.162   6.951 -0.0803 -0.8034  1.2624
13433SOL    HW245147   6.251   3.224   6.884 -1.3068  1.2381  0.8370
13434SOL     OW45148   6.271   1.043   9.106  0.1855 -0.3765 -0.7063
13434SOL    HW145149   6.359   1.010   9.124  0.5429  0.2081 -1.3534
13434SOL    HW245150   6.219   1.013   9.180  1.7786  2.7311  1.9051
13435SOL     OW45151   3.918   1.264   7.794  0.1002  0.1326 -0.5669
13435SOL    HW145152   3.935   1.357   7.776 -1.6695  0.5494 -0.2750
13435SOL    HW245153   4.005   1.223   7.793  0.7447  1.3917 -2.8024
13436SOL     OW45154   3.250   2.839   9.604 -0.5335 -0.6537  0.5003
13436SOL    HW145155   3.214   2.784   9.674  0.8118 -0.7280  1.1592
13436SOL    HW245156   3.266   2.924   9.645  2.0829 -1.2384  0.8933
13437SOL     OW45157   3.756   4.046   9.340  0.6258 -0.0042 -0.0477
13437SOL    HW145158   3.736   3.973   9.398 -1.2897 -1.5791 -2.4968
13437SOL    HW245159   3.844   4.028   9.307  1.0203 -0.0235  0.9884
13438SOL     OW45160   2.442   2.205   8.262  0.6225 -0.3570  0.2534
13438SOL    HW145161   2.484   2.291   8.255 -0.7999  0.4593  1.2396
13438SOL    HW245162   2.497   2.156   8.323  1.1459  0.0305  0.1023
13439SOL     OW45163   4.160   0.326   8.201  0.8393  0.1299 -0.2703
13439SOL    HW145164   4.204   0.245   8.176 -0.3511 -0.3334 -0.9745
13439SOL    HW245165   4.121   0.308   8.287  1.3888  0.2890  0.0133
13440SOL     OW45166   2.354   5.687   3.372 -0.3698 -0.3053  0.7357
13440SOL    HW145167   2.341   5.771   3.328 -1.1083  0.3978  2.2136
13440SOL    HW245168   2.397   5.632   3.307  0.1553  1.2227 -0.2588
13441SOL     OW45169   6.429   2.530   8.614 -0.4453  0.0027 -0.4929
13441SOL    HW145170   6.340   2.499   8.632  0.3733 -2.0920  0.1458
13441SOL    HW245171   6.430   2.620   8.648 -2.6298  0.5159 -1.5688
13442SOL     OW45172   3.910   1.917   1.233 -0.0837  0.4614 -0.1660
13442SOL    HW145173   3.957   1.855   1.177 -0.2945  0.1432  0.0115
13442SOL    HW245174   3.818   1.903   1.212 -0.2590 -0.5612  1.1857
13443SOL     OW45175   4.967   3.181   2.627 -0.1340  0.7895  0.5442
13443SOL    HW145176   4.979   3.205   2.718 -0.9933  0.0721  0.8658
13443SOL    HW245177   4.888   3.126   2.627  1.0441 -1.0081 -0.2995
13444SOL     OW45178   4.554   4.829   1.511  0.3517  0.0002  0.4253
13444SOL    HW145179   4.485   4.891   1.535  1.6401  1.6258  0.0593
13444SOL    HW245180   4.551   4.762   1.580 -0.8974  0.5783  0.9596
13445SOL     OW45181   3.624   4.963   1.544  0.2864 -0.1289 -0.1972
13445SOL    HW145182   3.533   4.983   1.521  0.0075  1.0985  1.7601
13445SOL    HW245183   3.675   4.999   1.471 -0.7809 -1.0111 -1.4209
13446SOL     OW45184   3.151   4.511   0.862  0.1166  0.6668 -0.1525
13446SOL    HW145185   3.090   4.441   0.840 -0.5085  1.7083 -2.0088
13446SOL    HW245186   3.208   4.518   0.785  1.1037  1.2385  0.6031
13447SOL     OW45187   5.745   5.605   2.614  0.3456 -0.3278  0.2203
13447SOL    HW145188   5.745   5.511   2.599 -0.3206 -0.2274 -0.4951
13447SOL    HW245189   5.653   5.627   2.630  0.1721  0.4804 -1.5993
13448SOL     OW45190   5.590   6.129   1.145  0.0333 -0.1742 -0.1037
13448SOL    HW145191   5.676   6.171   1.141 -0.3516  0.6618  0.1879
13448SOL    HW245192   5.528   6.197   1.121 -0.6049 -0.5830  0.3360
13449SOL     OW45193   4.306   4.612   2.173 -0.3098 -0.2774 -0.1913
13449SOL    HW145194   4.293   4.619   2.268 -0.8142 -1.1219 -0.1898
13449SOL    HW245195   4.399   4.633   2.160  0.6349 -3.2959  0.8791
13450SOL     OW45196   5.194   3.268   9.395  0.3001  0.1514 -0.1000
13450SOL    HW145197   5.263   3.264   9.329  1.2015 -0.0071  0.8220
13450SOL    HW245198   5.146   3.348   9.375  1.4354  0.8550 -0.1075
13451SOL     OW45199   4.265   6.200   8.442 -0.7132  0.3418 -0.5752
13451SOL    HW145200   4.232   6.111   8.442 -1.7579  0.7002  0.9283
13451SOL    HW245201   4.315   6.207   8.360  0.9964 -2.1766  0.1304
13452SOL     OW45202   5.786   2.671   1.048 -0.0981 -0.2695 -0.4580
13452SOL    HW145203   5.740   2.748   1.081  0.1645 -0.7078  1.0244
13452SOL    HW245204   5.779   2.677   0.953 -1.3850  0.7819 -0.3250
13453SOL     OW45205   5.150   6.380   9.240 -0.2304  0.4961  0.3137
13453SOL    HW145206   5.211   6.381   9.314 -0.2281 -1.0158  0.3598
13453SOL    HW245207   5.085   6.314   9.263 -1.3318  1.3454 -0.2063
13454SOL     OW45208   4.387   1.696   0.012 -0.1956 -0.0455  0.0500
13454SOL    HW145209   4.360   1.628  -0.050  0.8491  1.9579 -2.7707
13454SOL    HW245210   4.322   1.766   0.000 -0.5051  0.0404  1.9479
13455SOL     OW45211   4.412   7.251   1.337  0.2820 -0.6835  0.1571
13455SOL    HW145212   4.459   7.182   1.385  0.4150 -0.1375  0.8193
13455SOL    HW245213   4.435   7.235   1.245  2.1426 -0.1766  0.4834
13456SOL     OW45214   4.126   6.420   1.656 -0.4509 -0.2644 -0.1252
13456SOL    HW145215   4.064   6.474   1.705 -2.0052 -1.2472 -0.9107
13456SOL    HW245216   4.212   6.450   1.685 -1.2570  1.7787  0.3345
13457SOL     OW45217   5.287   4.172   9.566 -0.7250 -0.0007 -0.0782
13457SOL    HW145218   5.377   4.143   9.576 -0.7929 -0.2345 -0.1426
13457SOL    HW245219   5.294   4.263   9.537 -0.5079 -0.1639 -0.5424
13458SOL     OW45220   5.583   3.493   7.738 -0.1994  0.1881  0.0308
13458SOL    HW145221   5.522   3.430   7.775 -1.0109  0.6738 -0.4348
13458SOL    HW245222   5.531   3.574   7.729  0.5450  0.6475 -0.2559
13459SOL     OW45223   2.132   5.819   2.582  0.0874  0.0953  0.1153
13459SOL    HW145224   2.075   5.835   2.507 -0.7171 -1.8898  0.2566
13459SOL    HW245225   2.213   5.785   2.544  0.4319  0.9511  0.0524
13460SOL     OW45226   4.533   5.867   3.693  0.1712 -0.3904 -0.0531
13460SOL    HW145227   4.554   5.789   3.641  0.3058 -0.2027 -0.2812
13460SOL    HW245228   4.608   5.925   3.680  0.4309 -0.5390  0.7329
13461SOL     OW45229   3.181   5.049   8.941  0.3272 -0.3446  0.5444
13461SOL    HW145230   3.222   4.978   8.991 -0.1176 -0.0695  1.3184
13461SOL    HW245231   3.111   5.007   8.893 -1.8234 -0.0553  3.1871
13462SOL     OW45232   3.631   7.621   4.685 -0.1204  0.2819  0.2204
13462SOL    HW145233   3.552   7.635   4.633  0.5861 -0.0206 -0.9879
13462SOL    HW245234   3.703   7.627   4.621  1.0218  2.7275  1.6115
13463SOL     OW45235   2.197   6.373   3.720  0.5187 -0.1400 -0.1965
13463SOL    HW145236   2.198   6.311   3.647 -2.0075  0.8818 -1.2552
13463SOL    HW245237   2.289   6.398   3.732  1.7929 -4.5429  0.8609
13464SOL     OW45238   5.762   4.592   8.386 -0.0098  0.0312  0.0309
13464SOL    HW145239   5.810   4.637   8.316  0.3379 -0.6978 -0.2055
13464SOL    HW245240   5.745   4.504   8.351 -0.6673 -0.0353  0.4945
13465SOL     OW45241   6.396   5.019   1.104 -0.2090 -0.1369  0.3413
13465SOL    HW145242   6.334   5.089   1.124 -1.8710 -1.5515  0.3009
13465SOL    HW245243   6.369   4.985   1.019  2.6292  1.2892 -1.2984
13466SOL     OW45244   2.543   5.866   9.635  0.1733 -0.2670  0.1665
13466SOL    HW145245   2.626   5.822   9.653  1.7701  2.6506  0.5418
13466SOL    HW245246   2.508   5.820   9.558  2.0549 -1.6537  0.0650
13467SOL     OW45247   5.595   4.796   0.522 -0.5059 -0.6896 -0.3503
13467SOL    HW145248   5.681   4.828   0.495 -1.2485 -0.1633 -2.2780
13467SOL    HW245249   5.607   4.768   0.613  1.0882  1.6548  0.2586
13468SOL     OW45250   4.448   4.293   0.649 -0.8093 -0.3615  0.4019
13468SOL    HW145251   4.404   4.301   0.734 -0.0080 -0.3802  0.8241
13468SOL    HW245252   4.515   4.227   0.663  1.0298  1.4445  0.4844
13469SOL     OW45253   4.758   4.413   0.403 -0.4277  0.5920 -0.4995
13469SOL    HW145254   4.729   4.333   0.359 -1.2644  0.8772 -0.4932
13469SOL    HW245255   4.677   4.464   0.414 -0.6262 -0.1969  2.9147
13470SOL     OW45256   5.128   4.372   0.148  0.1188  0.4682 -0.0822
13470SOL    HW145257   5.211   4.374   0.196  0.1013 -1.5774  0.1130
13470SOL    HW245258   5.131   4.450   0.093  1.7643  0.9262  0.5819
13471SOL     OW45259   3.722   2.775   3.875  0.1913  0.2329  0.4985
13471SOL    HW145260   3.752   2.749   3.962 -2.2973  0.3248  1.4699
13471SOL    HW245261   3.709   2.692   3.829  2.0093  0.1939 -0.0519
13472SOL     OW45262   5.561   5.707   9.838 -0.3228  0.1968  0.0636
13472SOL    HW145263   5.478   5.755   9.841 -1.2594 -1.3360 -0.1939
13472SOL    HW245264   5.572   5.685   9.745 -0.9966 -1.8423  0.4229
13473SOL     OW45265   6.211   5.554   2.906  0.1973 -0.3818 -0.0210
13473SOL    HW145266   6.186   5.612   2.978 -0.7492 -1.1179  0.2633
13473SOL    HW245267   6.151   5.578   2.835 -0.2457 -1.0291  0.1194
13474SOL     OW45268   3.131   5.769   9.822 -0.1834 -0.4008 -0.3907
13474SOL    HW145269   3.055   5.712   9.832 -0.1743 -0.5740 -1.2020
13474SOL    HW245270   3.177   5.734   9.746 -0.6112  1.1664 -1.4237
13475SOL     OW45271   6.504   5.376   1.154 -0.9370  0.2681  0.1035
13475SOL    HW145272   6.540   5.404   1.238  0.7533  0.4796 -0.6516
13475SOL    HW245273   6.573   5.321   1.115 -1.8426 -0.1550 -0.9765
13476SOL     OW45274   3.870   4.137   6.780  0.3740 -0.0954 -0.3566
13476SOL    HW145275   3.833   4.050   6.798 -0.4553 -0.1779 -2.2689
13476SOL    HW245276   3.957   4.134   6.819  0.8371 -2.2395 -1.3950
13477SOL     OW45277   5.470   5.521   1.310 -0.3981 -0.2194  0.2400
13477SOL    HW145278   5.449   5.545   1.401  0.9565  0.4681  0.3968
13477SOL    HW245279   5.560   5.549   1.298 -0.3123 -0.9811 -1.1075
13478SOL     OW45280   4.694   5.917   2.935  0.3356 -0.6130  0.7273
13478SOL    HW145281   4.769   5.871   2.898  0.8496  0.0523  0.9161
13478SOL    HW245282   4.617   5.871   2.901  0.8240 -0.9980  0.1414
13479SOL     OW45283   5.143   6.435   4.337  0.1590 -0.1199 -0.6034
13479SOL    HW145284   5.114   6.386   4.414 -0.7387  0.8406 -0.3066
13479SOL    HW245285   5.134   6.527   4.362  3.3032  0.2966 -0.5768
13480SOL     OW45286   5.175   3.099   1.083 -0.8143 -0.0175  0.6582
13480SOL    HW145287   5.121   3.119   1.006 -0.2795 -1.0788 -0.0294
13480SOL    HW245288   5.250   3.157   1.075 -1.7172  1.3041  1.4952
13481SOL     OW45289   2.985   7.694   9.636 -0.4316 -0.6822 -0.1749
13481SOL    HW145290   3.021   7.782   9.621 -1.4874 -0.1478  0.3070
13481SOL    HW245291   3.051   7.635   9.601  0.0695  0.3185 -0.9850
13482SOL     OW45292   6.055   3.245   9.818 -0.2307 -0.2409 -0.3214
13482SOL    HW145293   6.028   3.240   9.726 -1.6461 -1.5716  0.1240
13482SOL    HW245294   6.104   3.163   9.833  0.6475  0.3119 -0.0622
13483SOL     OW45295   5.948   7.014   8.479  0.1043 -0.8851 -0.6470
13483SOL    HW145296   5.958   7.017   8.384  0.8673  0.0733 -0.5417
13483SOL    HW245297   6.037   7.024   8.513 -0.4225  1.5769  0.1990
13484SOL     OW45298   5.074   3.707   0.386  0.0004  0.0586 -0.2969
13484SOL    HW145299   5.067   3.747   0.473 -0.7461 -0.5311 -0.0665
13484SOL    HW245300   5.155   3.743   0.349  0.3791  0.2499  0.6797
13485SOL     OW45301   2.593   4.492   1.502 -1.0657 -0.3191  0.2840
13485SOL    HW145302   2.563   4.464   1.589  1.9469 -0.0512  1.5227
13485SOL    HW245303   2.688   4.484   1.506 -0.7684  0.6609 -2.6940
13486SOL     OW45304   5.130   4.864   2.169 -0.3272 -0.1255 -0.5679
13486SOL    HW145305   5.097   4.795   2.111  1.7001 -0.6220 -1.1880
13486SOL    HW245306   5.203   4.903   2.121 -0.5347  1.5281  0.3788
13487SOL     OW45307   4.512   2.049   0.015 -0.3566 -0.0394 -0.5826
13487SOL    HW145308   4.449   2.076  -0.052 -1.0215  1.1075  0.4493
13487SOL    HW245309   4.486   2.100   0.092  1.4623 -0.0237  0.0457
13488SOL     OW45310   3.965   5.031   8.634 -0.4187 -0.7412  0.4165
13488SOL    HW145311   3.921   4.948   8.652 -1.1211  0.0357  2.5954
13488SOL    HW245312   3.897   5.087   8.597 -0.5983 -0.4116  1.2107
13489SOL     OW45313   2.593   8.660   3.313 -0.4403  0.5398  0.5908
13489SOL    HW145314   2.519   8.621   3.269 -0.5459 -1.1978  2.1769
13489SOL    HW245315   2.624   8.729   3.254 -0.2259 -1.9393 -2.3972
13490SOL     OW45316   6.663   2.157   7.019 -0.1638  0.2848 -0.0031
13490SOL    HW145317   6.740   2.100   7.012 -0.5269 -0.2580  0.3508
13490SOL    HW245318   6.638   2.151   7.111 -0.5021  0.6338 -0.0715
13491SOL     OW45319   6.660   3.632   1.167  0.0635 -0.5624  0.2297
13491SOL    HW145320   6.569   3.654   1.187  0.0127 -0.8424  0.3105
13491SOL    HW245321   6.694   3.595   1.248  0.0877 -0.9707  0.0347
13492SOL     OW45322   4.517   5.574   0.773  0.2273  0.1450 -0.6282
13492SOL    HW145323   4.489   5.657   0.732 -1.2631  0.3396  0.6702
13492SOL    HW245324   4.490   5.507   0.711  1.3754  0.5944 -1.6606
13493SOL     OW45325   2.166   4.723   8.516 -0.1057  0.2443 -0.0788
13493SOL    HW145326   2.233   4.711   8.583 -1.1422 -1.8407  0.6488
13493SOL    HW245327   2.154   4.637   8.477 -1.2233  0.9099 -1.3121
13494SOL     OW45328   3.541   6.487   1.549  0.1889  0.0807 -0.2730
13494SOL    HW145329   3.521   6.442   1.631  0.3293  0.5912  0.0481
13494SOL    HW245330   3.458   6.525   1.520  0.3533  0.8807  0.2484
13495SOL     OW45331   5.177   4.947   1.569  0.1723  0.2330  0.5542
13495SOL    HW145332   5.212   4.858   1.573  0.9802  0.3214 -2.4313
13495SOL    HW245333   5.097   4.943   1.621 -0.7495 -2.7171 -0.8769
13496SOL     OW45334   6.202   5.856   1.375  1.2202  0.1456  0.0008
13496SOL    HW145335   6.172   5.947   1.376  1.2120  0.1775 -1.3491
13496SOL    HW245336   6.122   5.805   1.382  0.7865  0.2428 -2.7966
13497SOL     OW45337   3.597   7.030   2.140 -0.3474  0.3682 -0.5114
13497SOL    HW145338   3.564   7.105   2.091  0.4304  1.3423  0.4225
13497SOL    HW245339   3.615   7.064   2.227 -1.7744 -1.3247  0.5326
13498SOL     OW45340   2.922   6.766   0.312  0.1448  0.7447 -0.3597
13498SOL    HW145341   3.001   6.728   0.273  0.1854 -0.8606  1.1883
13498SOL    HW245342   2.921   6.732   0.401 -2.3607  0.6652 -0.3655
13499SOL     OW45343   3.605   1.885   1.191 -0.2166  0.5848 -0.3615
13499SOL    HW145344   3.513   1.884   1.165 -0.3271 -0.1691  0.0119
13499SOL    HW245345   3.613   1.811   1.251  0.8490  0.0286 -1.1482
13500SOL     OW45346   5.371   6.713   0.765 -0.7667  0.1204 -0.5928
13500SOL    HW145347   5.293   6.680   0.810 -0.3339 -0.4324 -0.2416
13500SOL    HW245348   5.399   6.788   0.818 -0.3615 -0.4197 -0.0285
13501SOL     OW45349   5.075   4.070   4.273 -0.1468 -0.3376 -0.1677
13501SOL    HW145350   5.047   4.122   4.198  2.3518  1.9905  0.3244
13501SOL    HW245351   5.147   4.017   4.239 -0.2999 -0.7483  0.1503
13502SOL     OW45352   6.528   5.454   0.049 -0.4224  0.1295  0.0601
13502SOL    HW145353   6.480   5.537   0.038 -1.0007 -0.3701 -1.4816
13502SOL    HW245354   6.465   5.397   0.093 -0.3681  0.2122  0.2463
13503SOL     OW45355   4.606   6.360   3.074  0.1760 -0.0994  0.1188
13503SOL    HW145356   4.552   6.288   3.105 -0.9942  0.0223 -1.5678
13503SOL    HW245357   4.638   6.332   2.989  1.8799  0.3086  0.5835
13504SOL     OW45358   5.104   4.525   7.745  0.0761  0.6049 -0.5854
13504SOL    HW145359   5.182   4.579   7.749  1.0104 -0.7346  0.6872
13504SOL    HW245360   5.057   4.545   7.826 -0.1227  0.3305 -0.6315
13505SOL     OW45361   4.839   5.482   9.654 -0.9244 -0.1393 -0.1904
13505SOL    HW145362   4.904   5.454   9.719 -0.9192  0.2051 -0.0468
13505SOL    HW245363   4.763   5.510   9.705 -0.4058  1.4907 -0.2444
13506SOL     OW45364   6.139   6.965   0.095 -0.0659  0.2312  0.0688
13506SOL    HW145365   6.097   7.046   0.065 -0.4580 -0.5932 -1.7794
13506SOL    HW245366   6.232   6.985   0.096 -0.2439  1.0527  0.8056
13507SOL     OW45367   3.390   5.827   0.454 -0.4582  0.1945  0.2494
13507SOL    HW145368   3.335   5.801   0.380  0.9309 -0.1803 -0.6823
13507SOL    HW245369   3.400   5.921   0.444  0.7449 -0.0063 -0.8196
13508SOL     OW45370   1.327   3.784   0.690  0.2514  0.1756 -0.0007
13508SOL    HW145371   1.332   3.689   0.680 -0.0568  0.4343 -4.1760
13508SOL    HW245372   1.233   3.802   0.694  0.3201  0.3025  2.2707
13509SOL     OW45373   3.316   3.206   2.072 -0.8967 -0.6341  0.0909
13509SOL    HW145374   3.258   3.173   2.003 -1.7111  1.5523 -0.3479
13509SOL    HW245375   3.330   3.298   2.050 -0.8171  0.0240  2.5662
13510SOL     OW45376   3.045   3.491   1.444  0.3110 -0.3527  0.3165
13510SOL    HW145377   3.101   3.562   1.412  1.9435 -2.2103 -1.1868
13510SOL    HW245378   3.103   3.440   1.501 -0.5851 -0.9768  0.6774
13511SOL     OW45379   4.427   2.673   9.123 -0.3092 -0.0818  0.0949
13511SOL    HW145380   4.500   2.723   9.087  0.3922 -1.1617 -0.0281
13511SOL    HW245381   4.402   2.613   9.053 -0.3294 -0.7345  0.6533
13512SOL     OW45382   3.312   4.319   0.969 -0.2841 -0.0462  0.1811
13512SOL    HW145383   3.262   4.390   0.929 -0.2456  0.4829  1.0499
13512SOL    HW245384   3.378   4.363   1.022 -1.7049 -0.6504  2.6219
13513SOL     OW45385   3.952   5.754   9.296  0.3727 -0.3002 -0.0702
13513SOL    HW145386   3.988   5.665   9.292  0.5281 -0.2126 -2.7276
13513SOL    HW245387   4.011   5.805   9.240 -0.5449  1.1648  0.2712
13514SOL     OW45388   4.022   4.613   6.988  0.1855  0.5298  0.2681
13514SOL    HW145389   4.047   4.705   6.980 -0.2349  0.7753  1.5314
13514SOL    HW245390   3.953   4.613   7.055  0.4277 -0.7360  0.5340
13515SOL     OW45391   3.641   5.729   1.280 -0.3205 -0.4035  0.3257
13515SOL    HW145392   3.552   5.705   1.254 -1.0937  0.6512  1.8328
13515SOL    HW245393   3.694   5.652   1.262 -1.5053 -0.9806 -0.7812
13516SOL     OW45394   2.275   3.887   0.489 -0.7089  0.2653 -0.3275
13516SOL    HW145395   2.216   3.904   0.562 -0.3646 -2.5218  0.7143
13516SOL    HW245396   2.257   3.797   0.464  2.5232 -0.4695 -0.4584
13517SOL     OW45397   3.321   7.374   1.577  0.3186 -0.0584 -0.3823
13517SOL    HW145398   3.365   7.455   1.550 -0.3760  0.1853 -0.8188
13517SOL    HW245399   3.355   7.307   1.517 -0.1040  0.1858 -0.9058
13518SOL     OW45400   2.428   8.739   1.941 -0.1046 -0.3245 -0.3013
13518SOL    HW145401   2.435   8.749   2.036 -0.2617  0.6651 -0.3895
13518SOL    HW245402   2.471   8.816   1.905 -4.3361  2.0858 -0.9402
13519SOL     OW45403   5.976   3.266   8.316 -0.5121  0.2122 -0.8906
13519SOL    HW145404   5.987   3.358   8.292  2.8888  0.9235  2.3211
13519SOL    HW245405   6.055   3.223   8.282 -0.1816 -0.6412  0.8429
13520SOL     OW45406   2.480   2.949   0.353  0.0073  0.5070  0.0441
13520SOL    HW145407   2.400   2.973   0.398  1.5590  0.7021  2.9286
13520SOL    HW245408   2.499   2.860   0.383  1.3940  0.8482  0.2666
13521SOL     OW45409   3.619   5.041   2.393  0.0150 -0.2855  0.1966
13521SOL    HW145410   3.581   5.126   2.371 -0.5726 -0.5824  0.0577
13521SOL    HW245411   3.647   5.005   2.309 -2.8623 -1.7276 -0.2551
13522SOL     OW45412   3.726   3.225   1.862 -0.8237  0.2283  0.0256
13522SOL    HW145413   3.650   3.178   1.828 -2.5462  1.5312  1.8725
13522SOL    HW245414   3.780   3.157   1.903 -1.9341 -0.4791  0.3476
13523SOL     OW45415   3.059   4.787   1.750 -0.5295 -0.2415 -0.2872
13523SOL    HW145416   3.015   4.783   1.835 -0.8592 -0.3943 -0.4675
13523SOL    HW245417   3.071   4.696   1.724 -0.2912 -0.1984 -0.3361
13524SOL     OW45418   7.040   4.731   3.041  0.3138 -0.0514 -0.3444
13524SOL    HW145419   7.081   4.781   2.970 -1.7721  0.4200 -1.2813
13524SOL    HW245420   7.114   4.693   3.088  1.8909  1.9840 -1.0106
13525SOL     OW45421   4.266   4.177   2.907 -0.7110 -0.3816  0.0294
13525SOL    HW145422   4.254   4.121   2.984  0.4804 -0.5427  0.1186
13525SOL    HW245423   4.215   4.256   2.927  0.2960 -0.0349  1.4069
13526SOL     OW45424   5.364   4.261   0.038  0.9312  0.3956  0.1777
13526SOL    HW145425   5.334   4.348   0.063  1.6248  1.0856 -1.2666
13526SOL    HW245426   5.293   4.225  -0.015  0.4896 -0.0906  1.0722
13527SOL     OW45427   4.234   4.208   8.098 -0.3310 -0.4979 -0.7897
13527SOL    HW145428   4.150   4.197   8.054 -2.3044  1.6012  2.0598
13527SOL    HW245429   4.274   4.283   8.055 -2.5453  1.9690  1.0874
13528SOL     OW45430   6.047   3.903   9.638  0.4881  0.3565 -0.3157
13528SOL    HW145431   6.068   3.971   9.574  1.0639 -1.0091 -1.6360
13528SOL    HW245432   6.085   3.934   9.720  1.2731  1.3310 -1.0284
13529SOL     OW45433   4.416   4.419   9.442  0.0942  0.4207 -0.1612
13529SOL    HW145434   4.360   4.496   9.435 -2.3260 -1.0550  1.6132
13529SOL    HW245435   4.419   4.383   9.354 -0.6972  1.2192 -0.5313
13530SOL     OW45436   1.172   6.276   8.416 -0.5426 -0.4485 -0.4053
13530SOL    HW145437   1.154   6.366   8.389 -1.2460 -0.6585 -0.6687
13530SOL    HW245438   1.267   6.266   8.408 -0.4369  0.3229 -0.1881
13531SOL     OW45439   5.345   7.390   0.752  0.1210  0.0572 -0.2355
13531SOL    HW145440   5.351   7.476   0.793 -2.4366  0.5847 -0.7887
13531SOL    HW245441   5.427   7.347   0.775 -0.1541  1.1400  3.4371
13532SOL     OW45442   4.590   7.572   1.265 -0.1860  0.7028  0.2547
13532SOL    HW145443   4.625   7.487   1.241 -1.4444 -0.3521  1.9319
13532SOL    HW245444   4.647   7.603   1.336  0.9124  1.7918 -1.0561
13533SOL     OW45445   5.484   5.270   0.269 -0.0534  0.1513  0.3134
13533SOL    HW145446   5.399   5.262   0.225 -0.8142  1.5447  1.4581
13533SOL    HW245447   5.506   5.181   0.295 -2.0021 -0.0309  1.5093
13534SOL     OW45448   4.537   5.348   9.699  0.2937 -0.1761  0.1667
13534SOL    HW145449   4.611   5.297   9.731 -0.5130 -1.8745 -0.5455
13534SOL    HW245450   4.557   5.438   9.725  2.9763 -0.4417 -0.6932
13535SOL     OW45451   7.483   5.425   3.779 -0.1578  0.4858  0.3690
13535SOL    HW145452   7.475   5.511   3.820 -0.4624  0.3733  0.5568
13535SOL    HW245453   7.452   5.437   3.690 -1.3732  0.3185  0.7446
13536SOL     OW45454   4.234   6.089   0.901 -0.5105 -0.1281 -0.3256
13536SOL    HW145455   4.238   6.169   0.953  0.6836  0.6939 -1.6092
13536SOL    HW245456   4.206   6.021   0.962  0.4337  0.8790  1.2670
13537SOL     OW45457   5.172   3.499   1.949  0.0487  0.2508 -0.0281
13537SOL    HW145458   5.199   3.488   1.858 -1.0036 -0.0780 -0.3237
13537SOL    HW245459   5.234   3.447   1.999 -0.1874 -0.7055 -0.6972
13538SOL     OW45460   1.799   5.346   7.582 -0.7912  0.1220 -0.0753
13538SOL    HW145461   1.843   5.261   7.584 -3.9142 -1.6146  0.3422
13538SOL    HW245462   1.784   5.363   7.489 -0.4888  0.0791 -0.1354
13539SOL     OW45463   3.403   6.983   1.113  0.6321  0.4124  0.6570
13539SOL    HW145464   3.479   6.991   1.171  1.1980  0.6313 -0.1001
13539SOL    HW245465   3.346   7.056   1.137 -0.0824 -0.6214  2.2749
13540SOL     OW45466   6.283   3.017   1.695  0.5089  0.1168  0.1498
13540SOL    HW145467   6.199   3.020   1.741  0.4048 -0.1826 -0.0141
13540SOL    HW245468   6.265   2.965   1.616  1.4924 -2.4695  1.5075
13541SOL     OW45469   4.967   3.586   0.660  1.4801 -0.2219  0.5346
13541SOL    HW145470   5.024   3.610   0.733 -0.9469  1.3035  2.1139
13541SOL    HW245471   4.911   3.663   0.648 -2.4462 -2.6284  1.4262
13542SOL     OW45472   3.739   7.062   7.934 -0.5827 -0.7721 -0.4993
13542SOL    HW145473   3.732   7.157   7.926  2.4744 -0.4017 -0.2361
13542SOL    HW245474   3.651   7.029   7.915 -1.5168  2.0326 -1.5621
13543SOL     OW45475   3.234   6.720   6.514 -0.6089 -0.1591  0.2221
13543SOL    HW145476   3.328   6.719   6.534 -0.1867 -0.9325 -1.5569
13543SOL    HW245477   3.226   6.780   6.439 -1.2029 -1.5782 -0.9018
13544SOL     OW45478   5.982   5.083   1.729 -0.2206 -0.3361 -0.4625
13544SOL    HW145479   5.958   5.013   1.669  1.8401 -1.6346  0.1285
13544SOL    HW245480   6.061   5.051   1.774 -0.3020  1.5743  1.2068
13545SOL     OW45481   3.918   5.394   1.629  0.3290  0.5130  0.5163
13545SOL    HW145482   3.936   5.342   1.707  0.4047  1.3646  1.0690
13545SOL    HW245483   3.824   5.382   1.614  0.3420  0.2317  0.6469
13546SOL     OW45484   3.351   5.770   2.566 -0.1439  0.1963 -0.0236
13546SOL    HW145485   3.411   5.837   2.601  0.6945 -1.0046  0.9329
13546SOL    HW245486   3.375   5.762   2.474 -0.0917  1.0320 -0.0921
13547SOL     OW45487   5.386   5.677   3.250 -0.3474  0.2667 -0.2929
13547SOL    HW145488   5.416   5.626   3.175 -0.5578  1.0733 -0.9339
13547SOL    HW245489   5.401   5.620   3.325  1.0017 -0.0707 -0.8045
13548SOL     OW45490   4.287   3.281   1.895 -0.8899  0.5817 -0.2154
13548SOL    HW145491   4.311   3.255   1.984  0.0085  1.6914 -0.1049
13548SOL    HW245492   4.371   3.288   1.849 -1.3957 -3.8962 -2.4180
13549SOL     OW45493   4.514   3.607   0.286  0.2812 -0.2280  0.0755
13549SOL    HW145494   4.594   3.657   0.296 -0.2025  0.5437  0.1488
13549SOL    HW245495   4.478   3.635   0.201  0.4574 -1.1081 -0.3020
13550SOL     OW45496   1.992   4.143   8.993 -0.6245  0.3399 -0.0916
13550SOL    HW145497   2.034   4.227   9.010  1.3938 -0.6061 -0.0851
13550SOL    HW245498   1.971   4.107   9.079  0.6800 -0.1741  0.0298
13551SOL     OW45499   1.987   4.424   2.785 -0.0458 -0.2250 -0.0257
13551SOL    HW145500   1.902   4.451   2.818 -0.2413  0.5695 -1.1383
13551SOL    HW245501   1.967   4.370   2.708  0.4558  0.3678 -0.5829
13552SOL     OW45502   5.007   4.764   1.718  0.6791  0.0313  0.2282
13552SOL    HW145503   5.086   4.713   1.735  0.0670 -1.0405 -0.0896
13552SOL    HW245504   4.948   4.740   1.789  0.5303  0.6169  0.3049
13553SOL     OW45505   4.643   5.457   1.071 -0.2594 -0.0255 -0.5616
13553SOL    HW145506   4.713   5.443   1.007 -0.9753  0.2279 -1.4229
13553SOL    HW245507   4.666   5.540   1.113  0.7738 -0.7084  0.2812
13554SOL     OW45508   4.772   5.570   2.624  0.1690 -0.4104  0.1994
13554SOL    HW145509   4.805   5.513   2.693  1.0231  1.4026  1.3777
13554SOL    HW245510   4.717   5.634   2.670  0.9166  0.9610 -0.7335
13555SOL     OW45511   3.570   1.914   9.124 -0.2133  0.2318  0.0930
13555SOL    HW145512   3.663   1.889   9.120 -0.4459 -0.4916 -0.9504
13555SOL    HW245513   3.543   1.887   9.212  0.0200 -1.5820 -0.3466
13556SOL     OW45514   4.198   4.171   9.529 -0.4299  0.1335 -0.0607
13556SOL    HW145515   4.249   4.093   9.507  0.5214  0.1951  1.7570
13556SOL    HW245516   4.110   4.138   9.544 -0.6146 -0.2044 -1.7171
13557SOL     OW45517   4.241   5.062   0.093 -0.7426 -0.8606  0.4697
13557SOL    HW145518   4.173   5.129   0.103  0.2736  0.2687  0.0273
13557SOL    HW245519   4.323   5.108   0.109  0.0345 -1.8439 -0.5015
13558SOL     OW45520   5.480   5.963   0.923  0.3026 -0.2342  0.2186
13558SOL    HW145521   5.500   5.981   0.831  0.9662  0.1688  0.4333
13558SOL    HW245522   5.499   6.045   0.968  0.7870 -0.6763  0.8378
13559SOL     OW45523   5.376   3.325   2.034  0.1393  0.0144 -0.1222
13559SOL    HW145524   5.443   3.350   1.970  0.2435 -1.1140 -0.4647
13559SOL    HW245525   5.349   3.237   2.008 -1.0347  0.2049  0.3849
13560SOL     OW45526   6.077   2.704   0.815  0.1329  0.4242  0.4072
13560SOL    HW145527   6.027   2.623   0.813  1.0783 -0.1656 -0.0970
13560SOL    HW245528   6.011   2.773   0.821 -0.8849 -0.2208 -2.1245
13561SOL     OW45529   4.018   4.334   8.698  0.3756  0.2861  0.2814
13561SOL    HW145530   4.105   4.347   8.660  1.6160 -0.4922  2.6381
13561SOL    HW245531   3.972   4.278   8.635  1.7938  0.2008 -0.7192
13562SOL     OW45532   5.821   5.683   3.836 -0.6621 -0.4636 -0.2924
13562SOL    HW145533   5.792   5.627   3.764  1.5679  0.8082 -2.3328
13562SOL    HW245534   5.860   5.759   3.792 -0.1054  0.8439  2.3123
13563SOL     OW45535   3.940   5.545   0.869 -0.8744  0.0466 -0.9014
13563SOL    HW145536   3.920   5.498   0.788  0.1021 -0.9900 -0.5721
13563SOL    HW245537   3.893   5.497   0.937 -4.0694  2.5516 -1.0778
13564SOL     OW45538   3.549   6.036   0.669 -0.5627 -0.4562 -0.0823
13564SOL    HW145539   3.538   6.117   0.717  2.8016  1.1819 -1.7225
13564SOL    HW245540   3.491   6.044   0.593  0.4270  0.9474 -0.7339
13565SOL     OW45541   5.316   5.238   8.562  0.5917  0.4152  0.0274
13565SOL    HW145542   5.308   5.315   8.506 -1.4565  0.8377  0.8042
13565SOL    HW245543   5.312   5.273   8.651  1.1266 -0.4669  0.4144
13566SOL     OW45544   4.910   4.837   0.698  0.2224 -0.2828 -0.2716
13566SOL    HW145545   4.933   4.836   0.605 -0.3469  0.0201 -0.4174
13566SOL    HW245546   4.991   4.812   0.743  0.3895 -0.8512 -0.8700
13567SOL     OW45547   3.762   5.498   2.003 -0.3070 -0.0310 -0.3457
13567SOL    HW145548   3.828   5.525   2.067  0.9114 -0.8168 -1.2400
13567SOL    HW245549   3.731   5.580   1.964  0.6725  0.3171 -0.4275
13568SOL     OW45550   1.096   5.670   8.908  0.1445 -0.1975 -0.0678
13568SOL    HW145551   1.124   5.762   8.910  3.1578 -0.9897  0.1964
13568SOL    HW245552   1.088   5.645   9.000  3.3510 -1.1441  0.0715
13569SOL     OW45553   6.174   2.867   0.469 -0.5183 -0.6045 -0.3214
13569SOL    HW145554   6.220   2.813   0.404  0.2495 -0.8552  0.4213
13569SOL    HW245555   6.244   2.914   0.515 -1.1595  1.0225 -0.9277
13570SOL     OW45556   5.262   2.879   9.733 -0.0613 -0.7868 -0.1432
13570SOL    HW145557   5.244   2.853   9.823  0.9396  1.3219  0.7315
13570SOL    HW245558   5.248   2.974   9.732 -0.7356 -0.8563 -2.3985
13571SOL     OW45559   3.541   4.804   2.233  0.5353  0.1657 -0.1566
13571SOL    HW145560   3.462   4.857   2.243 -0.6630 -0.9222 -2.8818
13571SOL    HW245561   3.608   4.867   2.206  0.0386  0.7715 -0.0219
13572SOL     OW45562   4.476   2.738   0.720 -0.5793 -0.0214 -0.1475
13572SOL    HW145563   4.445   2.824   0.693  0.6779  0.0688 -1.3826
13572SOL    HW245564   4.495   2.693   0.638 -0.3099 -1.1456  0.5121
13573SOL     OW45565   4.307   4.580   0.321  0.0537 -0.0515 -0.0330
13573SOL    HW145566   4.263   4.520   0.380 -2.6787 -1.3872 -3.1220
13573SOL    HW245567   4.249   4.655   0.314 -0.5856 -0.6662 -2.1758
13574SOL     OW45568   5.429   2.983   0.178  0.5186 -0.5504 -0.6955
13574SOL    HW145569   5.452   3.027   0.260  0.3067 -0.9933 -0.3988
13574SOL    HW245570   5.490   3.020   0.114  0.6150 -0.1209 -0.3668
13575SOL     OW45571   5.382   6.777   1.145  0.2476  0.1916  0.4320
13575SOL    HW145572   5.344   6.707   1.199  0.6058 -0.4288 -0.0991
13575SOL    HW245573   5.369   6.747   1.055  0.1213  0.9720  0.1860
13576SOL     OW45574   4.831   2.786   9.526 -0.5537  0.1037  0.3751
13576SOL    HW145575   4.906   2.730   9.545 -1.2016 -0.8061  0.3131
13576SOL    HW245576   4.844   2.813   9.435 -0.9169 -1.0653 -0.0436
13577SOL     OW45577   4.650   4.937   8.908 -0.3138 -0.2838  0.0135
13577SOL    HW145578   4.705   4.912   8.834  2.1040 -0.1267  1.6034
13577SOL    HW245579   4.690   5.018   8.941 -1.6233 -0.0771  1.1819
13578SOL     OW45580   4.767   4.485   3.251 -0.0694 -0.0610 -0.0447
13578SOL    HW145581   4.724   4.523   3.327  1.2156  0.9212  0.2286
13578SOL    HW245582   4.800   4.560   3.202 -1.1146 -0.6522 -1.7450
13579SOL     OW45583   4.732   4.366   1.543  0.2766 -0.7175  0.0408
13579SOL    HW145584   4.654   4.335   1.498 -0.6639  0.2821  0.9409
13579SOL    HW245585   4.781   4.414   1.477 -0.0479 -1.0454 -0.4388
13580SOL     OW45586   5.415   5.318   0.588  0.2194  0.8653  0.1795
13580SOL    HW145587   5.324   5.290   0.585  0.5979 -0.3794 -0.2343
13580SOL    HW245588   5.421   5.375   0.666 -0.7141  0.2885  0.6798
13581SOL     OW45589   4.565   6.042   2.674 -0.2006 -0.0905  0.4525
13581SOL    HW145590   4.543   6.059   2.582 -1.7297 -0.0965  0.7923
13581SOL    HW245591   4.505   6.097   2.723  2.2618  1.8525  1.4802
13582SOL     OW45592   2.617   3.064   9.756 -0.1366  0.7477  0.1277
13582SOL    HW145593   2.528   3.087   9.782 -0.2728  0.2180  0.1445
13582SOL    HW245594   2.642   2.993   9.816 -0.5327 -0.6339 -1.2765
13583SOL     OW45595   3.212   3.691   1.329 -0.0237 -0.5293  0.2709
13583SOL    HW145596   3.245   3.780   1.339 -2.6956  0.5454  0.1927
13583SOL    HW245597   3.279   3.647   1.275  1.4554  1.3287  0.4890
13584SOL     OW45598   3.329   4.594   0.589  0.1950 -0.3412  0.0227
13584SOL    HW145599   3.348   4.647   0.512 -0.0838 -0.5208 -0.1682
13584SOL    HW245600   3.402   4.531   0.593  1.6299  1.3124  1.3922
13585SOL     OW45601   4.143   2.819   8.622  0.0321  0.3641  0.1353
13585SOL    HW145602   4.064   2.800   8.571  0.0726 -1.1972  0.5874
13585SOL    HW245603   4.212   2.826   8.556 -0.1831 -0.0793 -0.1489
13586SOL     OW45604   7.034   6.177   0.993 -0.3093 -0.2913 -0.0505
13586SOL    HW145605   7.012   6.253   1.047 -0.4823 -1.4637  1.5887
13586SOL    HW245606   7.075   6.116   1.054 -0.7753 -1.7870 -1.1930
13587SOL     OW45607   4.901   5.062   0.231 -0.2441 -0.0549 -0.4486
13587SOL    HW145608   4.884   5.077   0.324  1.1914 -1.2258  0.0455
13587SOL    HW245609   4.871   5.141   0.188  0.8682  1.3632  1.2307
13588SOL     OW45610   3.831   3.518   1.976  0.1449 -0.3241 -0.9628
13588SOL    HW145611   3.921   3.543   1.994 -0.0933 -1.4630  2.6014
13588SOL    HW245612   3.838   3.446   1.913  1.9279 -1.6550  0.6423
13589SOL     OW45613   5.547   3.404   9.179 -0.0403  0.2747  0.3476
13589SOL    HW145614   5.556   3.497   9.201  1.9291  0.5958 -1.5414
13589SOL    HW245615   5.486   3.402   9.106 -0.5410 -0.0193  0.7595
13590SOL     OW45616   3.432   5.074   9.634 -0.0823  0.1879 -0.3314
13590SOL    HW145617   3.449   5.164   9.662  0.0258  0.0444  0.0690
13590SOL    HW245618   3.338   5.071   9.617 -0.1556  0.2650  0.0582
13591SOL     OW45619   6.183   2.088   9.403 -0.1239 -0.0780  0.2648
13591SOL    HW145620   6.155   2.146   9.332  0.0124 -0.2532  0.0656
13591SOL    HW245621   6.270   2.058   9.376 -0.5299 -1.0197 -0.0446
13592SOL     OW45622   4.418   4.395   0.990 -0.1278 -0.0450  0.1382
13592SOL    HW145623   4.495   4.351   0.955  0.8844  0.3819  1.6875
13592SOL    HW245624   4.452   4.477   1.027 -1.2647  0.0194  1.1233
13593SOL     OW45625   2.982   5.898   1.877 -0.1692  0.5802  0.3339
13593SOL    HW145626   2.928   5.908   1.955 -0.6697  0.6211 -0.0164
13593SOL    HW245627   2.921   5.906   1.804  0.4515  1.6777 -0.0990
13594SOL     OW45628   5.374   3.621   8.017 -0.0016  0.5190 -0.1864
13594SOL    HW145629   5.466   3.630   7.993  0.2683 -0.5504  0.3732
13594SOL    HW245630   5.334   3.704   7.991  1.1780  1.1121 -0.1755
13595SOL     OW45631   4.905   3.217   1.292  0.0993  0.3115  0.4971
13595SOL    HW145632   4.885   3.160   1.218  0.3267  1.2926 -0.3515
13595SOL    HW245633   4.959   3.287   1.255  2.5910 -0.5858  2.0932
13596SOL     OW45634   3.143   5.747   3.754 -0.3299 -0.0191 -0.0310
13596SOL    HW145635   3.239   5.753   3.762 -0.2642 -1.1152  0.1336
13596SOL    HW245636   3.117   5.680   3.817 -1.1995  0.1725 -0.1718
13597SOL     OW45637   5.049   5.250   1.110 -0.3238  0.0223 -0.4032
13597SOL    HW145638   5.128   5.301   1.095 -0.9016  0.7914 -0.9205
13597SOL    HW245639   5.068   5.198   1.188  0.0586  1.5116  0.5349
13598SOL     OW45640   4.358   5.452   0.196  0.4126  0.9536  0.5829
13598SOL    HW145641   4.419   5.378   0.187  0.0071  0.6865 -0.0372
13598SOL    HW245642   4.390   5.500   0.272  0.4991 -0.0393  1.1968
13599SOL     OW45643   2.664   3.174   0.364 -0.5111  0.3742  0.2939
13599SOL    HW145644   2.732   3.152   0.429  0.2844 -2.0144 -1.2231
13599SOL    HW245645   2.608   3.097   0.361 -1.6922  1.2282 -0.4817
13600SOL     OW45646   6.640   2.536   0.001 -0.2330  0.6852 -0.2377
13600SOL    HW145647   6.593   2.489  -0.068  0.6984 -0.0174 -0.4138
13600SOL    HW245648   6.680   2.610  -0.043  1.4496 -0.4818 -0.7557
13601SOL     OW45649   3.680   3.850   9.810 -0.5044  0.9082 -0.1630
13601SOL    HW145650   3.624   3.785   9.851 -2.0009  1.3086 -1.4946
13601SOL    HW245651   3.682   3.922   9.873  0.1056  0.1433  0.7365
13602SOL     OW45652   4.683   3.139   1.455  0.1654 -0.2347 -0.4025
13602SOL    HW145653   4.733   3.126   1.374  0.2335  1.0228 -0.5826
13602SOL    HW245654   4.593   3.151   1.426  0.1791  0.1427 -0.3021
13603SOL     OW45655   7.048   3.979   0.993 -0.6201 -0.3359  0.5498
13603SOL    HW145656   7.112   3.914   0.963 -0.9890 -0.5862  0.3049
13603SOL    HW245657   7.000   3.934   1.063  0.7424  0.4918  2.0894
13604SOL     OW45658   4.181   5.800   3.641  0.2749 -0.2705  0.2407
13604SOL    HW145659   4.195   5.705   3.643  3.5198  0.0905  1.7120
13604SOL    HW245660   4.229   5.830   3.564 -0.5484  0.2108 -0.0929
13605SOL     OW45661   5.337   2.453   1.223 -0.4451 -0.5190  0.4166
13605SOL    HW145662   5.252   2.448   1.265 -1.2013 -1.9450 -1.1510
13605SOL    HW245663   5.369   2.362   1.224  0.6489 -0.1511  0.2113
13606SOL     OW45664   1.943   5.227   0.481 -0.2037 -0.1050  0.9949
13606SOL    HW145665   2.005   5.291   0.518  0.2202 -0.2759  0.5929
13606SOL    HW245666   1.921   5.170   0.554 -0.9393  0.7568  1.4800
13607SOL     OW45667   6.221   3.628   1.997  0.1003  0.0665 -0.0115
13607SOL    HW145668   6.209   3.722   2.005  1.0318  0.1409  0.6785
13607SOL    HW245669   6.310   3.618   1.961 -0.8526 -0.4999 -2.4324
13608SOL     OW45670   2.498   7.590   2.655 -0.2336  0.1647 -0.0274
13608SOL    HW145671   2.538   7.503   2.654  0.3716  0.3518  2.2612
13608SOL    HW245672   2.572   7.650   2.664 -0.6501  0.9699 -1.5398
13609SOL     OW45673   6.113   7.247   2.960  0.4037  0.6149  0.1953
13609SOL    HW145674   6.101   7.221   2.869  0.4670 -0.5955  0.5219
13609SOL    HW245675   6.090   7.340   2.961  0.4640  0.6605 -1.0614
13610SOL     OW45676   3.063   4.231   1.467 -0.0566  0.4097 -0.1041
13610SOL    HW145677   3.046   4.140   1.445 -0.7783  0.6514 -0.5861
13610SOL    HW245678   3.158   4.240   1.460  0.1308 -0.5509  0.9459
13611SOL     OW45679   3.602   5.264   1.956  0.3587 -0.0610 -0.1631
13611SOL    HW145680   3.597   5.337   1.895 -1.3281  0.5734  0.6711
13611SOL    HW245681   3.638   5.192   1.905 -1.5620  0.2641 -2.0934
13612SOL     OW45682   4.727   2.891   2.878  0.1644 -0.0345 -0.0977
13612SOL    HW145683   4.741   2.967   2.822 -0.5458  0.9121  0.9694
13612SOL    HW245684   4.633   2.887   2.891  0.0073 -2.0150 -1.3210
13613SOL     OW45685   2.664   2.738   1.807 -0.0700 -0.1511 -0.3334
13613SOL    HW145686   2.674   2.678   1.880 -2.7877 -1.0684 -0.5994
13613SOL    HW245687   2.753   2.753   1.776  0.8817 -2.4265  1.0332
13614SOL     OW45688   4.250   5.481   1.188  0.2532  0.0967 -0.3368
13614SOL    HW145689   4.231   5.555   1.245  2.0999 -0.2265  0.7650
13614SOL    HW245690   4.169   5.469   1.137 -1.2626  0.7270  1.7971
13615SOL     OW45691   2.562   4.126   0.129  0.2585 -0.2797 -0.1011
13615SOL    HW145692   2.504   4.194   0.094  0.5982 -1.2263 -2.6680
13615SOL    HW245693   2.638   4.175   0.163 -0.4736  0.7357  0.1290
13616SOL     OW45694   6.748   3.742   8.534  0.6156  0.1036  0.0144
13616SOL    HW145695   6.741   3.803   8.608 -0.1614  1.2396 -0.9566
13616SOL    HW245696   6.681   3.676   8.550 -0.3316  0.9841 -0.2286
13617SOL     OW45697   2.448   3.332   0.099  1.2310 -0.1242 -0.6622
13617SOL    HW145698   2.365   3.377   0.116  0.3069 -1.4953 -1.3897
13617SOL    HW245699   2.425   3.239   0.098  2.5451 -0.4684 -2.1048
13618SOL     OW45700   3.385   6.926   6.784 -0.2513  0.2930 -0.2118
13618SOL    HW145701   3.417   6.992   6.845 -0.4940 -1.1250  1.5437
13618SOL    HW245702   3.464   6.895   6.739  0.1348  0.4099  0.3715
13619SOL     OW45703   4.536   4.515   0.494 -0.0219  0.0604  0.4533
13619SOL    HW145704   4.453   4.524   0.447  1.0205  0.2532 -1.4058
13619SOL    HW245705   4.519   4.447   0.559 -1.3611 -0.5791 -0.5215
13620SOL     OW45706   8.120   5.087   4.024  0.3382  0.6617  0.1636
13620SOL    HW145707   8.164   5.161   4.064  0.3798  0.5738  0.2827
13620SOL    HW245708   8.157   5.082   3.935 -0.2341  1.2583 -0.1123
13621SOL     OW45709   3.894   6.366   8.313 -0.1236 -0.2560  0.2131
13621SOL    HW145710   3.962   6.332   8.255  0.0897 -1.2279  1.0184
13621SOL    HW245711   3.911   6.460   8.318  0.9662 -0.4396  0.1600
13622SOL     OW45712   5.522   3.842   4.513  0.4190  0.8572  0.1143
13622SOL    HW145713   5.428   3.828   4.511  0.4413 -0.0241  2.4241
13622SOL    HW245714   5.559   3.768   4.464 -0.0558  1.6322 -1.5033
13623SOL     OW45715   1.697   3.053   8.307  0.2096 -0.2969 -0.1711
13623SOL    HW145716   1.690   3.141   8.343  1.0498  0.4234 -1.6937
13623SOL    HW245717   1.680   2.995   8.382 -2.1174  1.1250  0.5007
13624SOL     OW45718   3.292   3.607   9.144  0.3789  0.2294 -0.0563
13624SOL    HW145719   3.279   3.540   9.211 -1.2343  1.0716  0.5188
13624SOL    HW245720   3.204   3.638   9.122  1.0611  2.4629  0.0422
13625SOL     OW45721   5.921   4.666   2.881 -0.1134  0.7146  0.8186
13625SOL    HW145722   5.975   4.723   2.826  0.0763 -1.1030 -1.0357
13625SOL    HW245723   5.877   4.608   2.818 -2.2322  0.4383  2.4397
13626SOL     OW45724   1.558   6.179   8.858  0.5726 -0.5048  0.3116
13626SOL    HW145725   1.492   6.214   8.918  1.9117  0.4559  1.2750
13626SOL    HW245726   1.603   6.111   8.910 -1.1288 -2.8876 -1.1030
13627SOL     OW45727   4.355   5.758   9.341  0.0595 -0.3893  0.2466
13627SOL    HW145728   4.284   5.725   9.285 -0.2928  0.8077 -0.0455
13627SOL    HW245729   4.338   5.720   9.427  0.5295 -2.1545 -0.3971
13628SOL     OW45730   3.782   5.977   0.525  0.2291 -0.0623  0.1383
13628SOL    HW145731   3.710   5.972   0.588  1.2542  0.3438  1.3998
13628SOL    HW245732   3.828   5.893   0.535 -1.2013 -1.2274 -2.1679
13629SOL     OW45733   5.939   4.006   0.169  0.3762 -0.1529 -0.3468
13629SOL    HW145734   5.930   4.029   0.262  1.3221  0.2086 -0.3387
13629SOL    HW245735   5.855   4.030   0.130  0.5907  1.3618  0.0756
13630SOL     OW45736   5.575   4.268   9.516  0.1340  0.3569 -0.3575
13630SOL    HW145737   5.609   4.301   9.433  1.4205 -2.3151 -1.0134
13630SOL    HW245738   5.565   4.346   9.571  0.0693  2.1122 -2.6835
13631SOL     OW45739   6.027   5.949   4.049  0.0098 -0.0780  0.4265
13631SOL    HW145740   5.977   6.029   4.069 -0.4172 -0.2607  0.1037
13631SOL    HW245741   5.996   5.885   4.112 -2.8579 -1.2805 -1.9470
13632SOL     OW45742   3.037   2.160   9.382 -0.5834  0.8521  0.3665
13632SOL    HW145743   2.955   2.112   9.395 -0.6800  1.3876  1.9361
13632SOL    HW245744   3.024   2.208   9.300 -1.5807  0.4179  0.2566
13633SOL     OW45745   3.447   6.556   9.836 -0.0071  0.0538  0.4086
13633SOL    HW145746   3.388   6.574   9.763  1.9234  2.1827 -0.7448
13633SOL    HW245747   3.426   6.622   9.902  0.7765  0.5445  0.1733
13634SOL     OW45748   3.690   5.035   1.819  1.2360 -0.5806 -0.4682
13634SOL    HW145749   3.605   4.994   1.834  1.0099  0.3797  1.1262
13634SOL    HW245750   3.694   5.049   1.724  0.2181 -1.8626 -0.7300
13635SOL     OW45751   5.682   4.554   0.405 -0.2518  0.6805 -0.3672
13635SOL    HW145752   5.627   4.626   0.436 -1.2357  0.8116 -2.2827
13635SOL    HW245753   5.699   4.574   0.313 -1.2134 -1.8927 -1.1944
13636SOL     OW45754   1.012   4.348   9.842  0.1775 -0.3646  0.5361
13636SOL    HW145755   0.923   4.375   9.823  0.1294 -0.7505  0.2010
13636SOL    HW245756   1.030   4.385   9.929 -0.1267  0.1349  0.3914
13637SOL     OW45757   2.147   4.369   1.832 -0.1509  0.2797  0.2345
13637SOL    HW145758   2.165   4.347   1.923 -0.3198 -1.5227 -0.1400
13637SOL    HW245759   2.052   4.370   1.825 -0.1505 -0.6493 -0.1305
13638SOL     OW45760   3.753   5.949   3.577  0.0452  0.6369 -0.0610
13638SOL    HW145761   3.788   5.928   3.490  0.8097 -0.8661  0.5598
13638SOL    HW245762   3.717   5.866   3.608 -1.6913  1.5357  0.4300
13639SOL     OW45763   3.739   6.096   1.588  0.5194 -0.3582  0.2386
13639SOL    HW145764   3.710   6.187   1.582  1.2863 -0.2137 -2.5766
13639SOL    HW245765   3.718   6.070   1.678 -3.4773  1.3052  0.0046
13640SOL     OW45766   5.895   4.032   0.687  0.0509 -0.0776 -0.6561
13640SOL    HW145767   5.953   4.095   0.644 -0.8600  0.5268 -1.0401
13640SOL    HW245768   5.807   4.063   0.666 -0.4893  0.9202  2.5208
13641SOL     OW45769   3.882   7.009   2.999 -0.2766 -0.3088  0.2829
13641SOL    HW145770   3.873   7.099   3.029 -0.8234 -0.1522 -0.3191
13641SOL    HW245771   3.806   6.964   3.037 -1.9832  0.2708 -2.1421
13642SOL     OW45772   4.615   3.463   1.091  0.3458  0.2783  0.0079
13642SOL    HW145773   4.539   3.468   1.032  0.2812  2.7929  0.2003
13642SOL    HW245774   4.679   3.411   1.042 -0.7922 -0.2343 -1.0006
13643SOL     OW45775   2.496   2.168   0.850  0.4941  0.2186 -0.7272
13643SOL    HW145776   2.511   2.098   0.786 -1.4186  0.1137 -1.1421
13643SOL    HW245777   2.479   2.121   0.932 -0.7012  0.1637 -0.9863
13644SOL     OW45778   5.321   2.424   0.941  0.3277  0.4474  0.0763
13644SOL    HW145779   5.259   2.462   0.880 -0.1286  0.2866  0.4368
13644SOL    HW245780   5.268   2.371   1.001  0.8832 -0.2786 -0.0514
13645SOL     OW45781   2.305   6.377   6.923 -0.2385 -0.1644  0.1483
13645SOL    HW145782   2.375   6.390   6.859  0.3247 -2.4822  0.2226
13645SOL    HW245783   2.339   6.416   7.003  0.8745 -1.0287  0.1154
13646SOL     OW45784   1.680   5.867   4.213 -0.2100  0.2717  1.3396
13646SOL    HW145785   1.774   5.857   4.227 -0.0148 -1.2028 -0.5057
13646SOL    HW245786   1.664   5.961   4.218  1.9170  0.8736 -1.1421
13647SOL     OW45787   3.864   3.707   5.296  0.2311 -0.1352 -0.0922
13647SOL    HW145788   3.875   3.802   5.290  0.2884 -0.0962  0.5688
13647SOL    HW245789   3.874   3.687   5.390  2.1095 -1.0270 -0.4273
13648SOL     OW45790   3.109   4.500   8.598 -0.1881 -0.2770 -0.4275
13648SOL    HW145791   3.066   4.564   8.654  0.6282  0.2720 -0.4175
13648SOL    HW245792   3.040   4.472   8.537 -0.6430  0.3519 -0.2119
13649SOL     OW45793   7.981   4.403   1.826 -0.2447  0.6513  0.4059
13649SOL    HW145794   8.035   4.358   1.761  1.4641  1.0547  1.4834
13649SOL    HW245795   7.931   4.333   1.868 -0.4148  0.2399 -0.4513
13650SOL     OW45796   4.200   3.144   3.829  0.1414  0.0710  0.5495
13650SOL    HW145797   4.227   3.059   3.865 -1.0554  0.2083  1.8540
13650SOL    HW245798   4.124   3.124   3.775  0.1519  0.2622  0.4626
13651SOL     OW45799   7.367   6.175   4.716 -0.5351  0.3038 -0.0329
13651SOL    HW145800   7.277   6.157   4.689 -1.0932 -0.0866  1.8770
13651SOL    HW245801   7.358   6.236   4.789  0.6524 -0.6809  0.9915
13652SOL     OW45802   3.584   4.797   0.252 -0.2409 -0.6648  0.2388
13652SOL    HW145803   3.663   4.745   0.238  2.5053  3.5500 -2.1765
13652SOL    HW245804   3.575   4.848   0.171 -3.5731  1.4058  1.7160
13653SOL     OW45805   4.886   3.455   3.074  0.5642  0.4703 -0.4838
13653SOL    HW145806   4.806   3.403   3.078 -0.5619  1.9427 -2.2903
13653SOL    HW245807   4.952   3.401   3.117 -0.8949 -1.7217 -0.8407
13654SOL     OW45808   4.162   4.145   4.042 -0.1358  0.1222  0.2239
13654SOL    HW145809   4.218   4.220   4.060  0.4394 -0.7100  2.1308
13654SOL    HW245810   4.222   4.073   4.025 -0.6779 -0.1337 -0.6963
13655SOL     OW45811   2.022   5.062   2.740  0.0412 -0.0440 -0.4562
13655SOL    HW145812   2.105   5.090   2.701 -0.1201  0.3914 -0.4900
13655SOL    HW245813   1.956   5.120   2.702 -0.2858 -0.3953 -0.4417
13656SOL     OW45814   2.062   5.490   2.641 -0.2973 -0.5994 -0.0724
13656SOL    HW145815   2.080   5.452   2.727 -4.1202 -2.8970 -0.0241
13656SOL    HW245816   2.008   5.566   2.660 -2.9098 -2.2572 -0.2645
13657SOL     OW45817   4.264   2.424   4.033 -0.0216  0.6212 -0.1238
13657SOL    HW145818   4.267   2.338   4.074  0.2494  0.0275 -1.3450
13657SOL    HW245819   4.340   2.426   3.975 -0.5664  1.2978 -0.8437
13658SOL     OW45820   5.606   6.476   2.677 -0.6207 -0.1994 -0.4645
13658SOL    HW145821   5.579   6.564   2.652  0.0639  0.9969  2.5164
13658SOL    HW245822   5.549   6.454   2.751 -1.1606 -2.5589 -1.4841
13659SOL     OW45823   4.337   3.047   3.344  0.0165 -0.4951  0.1378
13659SOL    HW145824   4.408   3.109   3.327 -0.8597  0.7875  1.0326
13659SOL    HW245825   4.373   2.987   3.409  1.0653 -1.3185 -1.1464
13660SOL     OW45826   6.323   3.519   2.381  0.2007 -0.3574  0.4963
13660SOL    HW145827   6.362   3.466   2.450  2.4961  0.4964 -0.0611
13660SOL    HW245828   6.317   3.460   2.306  1.5567 -0.1899  0.2448
13661SOL     OW45829   4.606   4.522   8.725 -0.1529 -0.0677 -0.9737
13661SOL    HW145830   4.609   4.573   8.806  0.2990 -2.0990  0.3745
13661SOL    HW245831   4.522   4.477   8.728 -0.2459  0.0347 -1.7873
13662SOL     OW45832   5.604   5.904   2.521  0.7415  0.2398 -0.5652
13662SOL    HW145833   5.586   5.905   2.427 -0.1201  0.4910 -0.4092
13662SOL    HW245834   5.690   5.944   2.529  0.1895  1.5810 -1.1265
13663SOL     OW45835   3.913   3.283   0.364 -0.5377  0.6372 -0.0725
13663SOL    HW145836   3.961   3.364   0.351 -1.0391  0.8763 -0.4784
13663SOL    HW245837   3.829   3.298   0.321  0.6520 -1.3654 -3.5448
13664SOL     OW45838   4.049   4.398   3.855  0.1800  0.2409 -0.4798
13664SOL    HW145839   4.046   4.307   3.887  2.0159 -0.5218 -2.2187
13664SOL    HW245840   4.028   4.451   3.932 -0.0222 -1.6208  0.8302
13665SOL     OW45841   5.822   3.347   2.006  0.8429  0.1371  0.3106
13665SOL    HW145842   5.825   3.377   2.096  0.0944  0.3167  0.2808
13665SOL    HW245843   5.888   3.400   1.961  0.3896  0.8781  0.5123
13666SOL     OW45844   3.491   4.370   0.518  0.2105  0.5702  0.5430
13666SOL    HW145845   3.452   4.297   0.470 -0.8316  2.0585 -0.9899
13666SOL    HW245846   3.507   4.335   0.606  0.3082 -1.6526 -0.2903
13667SOL     OW45847   4.640   4.795   0.705 -0.4549  0.1479 -0.0797
13667SOL    HW145848   4.615   4.757   0.620  0.5424 -0.0795 -0.2886
13667SOL    HW245849   4.729   4.763   0.720 -0.7616 -0.1676  1.2637
13668SOL     OW45850   5.791   4.843   9.212 -0.1736 -0.1012 -0.1581
13668SOL    HW145851   5.800   4.918   9.153 -0.5068 -0.5489 -0.8009
13668SOL    HW245852   5.882   4.821   9.235 -0.1091  0.9915  0.7015
13669SOL     OW45853   4.407   4.779   3.860 -0.0427 -0.1485 -0.4038
13669SOL    HW145854   4.332   4.832   3.833 -0.4270 -0.8020 -0.6337
13669SOL    HW245855   4.375   4.689   3.858  0.6303 -0.4023 -0.1064
13670SOL     OW45856   3.825   2.661   2.161 -0.0322  0.1566  0.0661
13670SOL    HW145857   3.759   2.727   2.184 -0.0743 -0.0333  0.5183
13670SOL    HW245858   3.778   2.578   2.167 -0.5736  0.1804 -2.6510
13671SOL     OW45859   6.209   7.118   2.164  0.5427 -0.8343 -0.1330
13671SOL    HW145860   6.149   7.150   2.097 -0.6554 -0.4117  1.0820
13671SOL    HW245861   6.286   7.174   2.157  0.4797 -0.8644 -1.2048
13672SOL     OW45862   4.369   2.421   0.931 -0.2883 -0.3368 -0.4793
13672SOL    HW145863   4.297   2.357   0.930 -1.6974  1.1569 -2.1038
13672SOL    HW245864   4.397   2.426   0.839 -0.4263  1.5809 -0.4484
13673SOL     OW45865   5.401   5.035   1.727  0.2199 -0.2329 -0.2634
13673SOL    HW145866   5.397   4.940   1.722  1.2632 -0.2813 -0.5136
13673SOL    HW245867   5.310   5.064   1.728 -0.0993 -1.1997 -0.7773
13674SOL     OW45868   3.789   6.365   3.805  0.7774  0.1598 -0.7921
13674SOL    HW145869   3.805   6.273   3.822 -0.6479 -0.1201 -0.8376
13674SOL    HW245870   3.757   6.400   3.888  2.2370  0.8645 -0.4937
13675SOL     OW45871   4.996   4.635   8.816  0.5321  0.2811  0.0858
13675SOL    HW145872   5.091   4.639   8.825  0.7137 -0.1255 -1.3472
13675SOL    HW245873   4.964   4.601   8.900  1.6885 -0.0237  0.4092
13676SOL     OW45874   2.613   4.149   5.953 -0.6134 -0.1711  0.3519
13676SOL    HW145875   2.689   4.196   5.920 -1.5664 -0.3162 -2.2532
13676SOL    HW245876   2.646   4.061   5.974  0.0980  0.0433  0.1535
13677SOL     OW45877   2.465   2.022   2.638  0.1412 -0.2157 -0.0684
13677SOL    HW145878   2.497   2.102   2.681  1.2254 -0.2085 -0.8576
13677SOL    HW245879   2.517   2.015   2.558  0.8919 -2.3376  0.5403
13678SOL     OW45880   3.197   6.590   2.113  0.3762 -0.2883 -1.1292
13678SOL    HW145881   3.132   6.641   2.064  0.8700  0.4891 -1.0060
13678SOL    HW245882   3.192   6.502   2.077 -2.1580 -0.7875  0.2188
13679SOL     OW45883   5.546   5.236   3.950 -0.2157 -0.1507  0.2209
13679SOL    HW145884   5.477   5.260   3.887  1.2459  1.8229 -0.7283
13679SOL    HW245885   5.534   5.298   4.022  0.0533 -0.3546  0.4399
13680SOL     OW45886   4.911   4.049   2.041  0.0257  0.6409 -0.0717
13680SOL    HW145887   4.837   3.989   2.057  0.0843  0.6803  0.3556
13680SOL    HW245888   4.947   4.066   2.128 -1.0282  2.6502  0.0385
13681SOL     OW45889   5.139   6.841   0.433 -0.3430  0.2786  0.5792
13681SOL    HW145890   5.141   6.906   0.503 -0.9229  0.6734  0.2362
13681SOL    HW245891   5.062   6.864   0.381 -1.1986 -1.3276  1.0716
13682SOL     OW45892   3.468   3.831   0.371  0.1113 -0.2523 -0.3820
13682SOL    HW145893   3.382   3.791   0.369 -0.7358  1.2925  1.5504
13682SOL    HW245894   3.453   3.923   0.346  1.3540 -0.1941 -0.9860
13683SOL     OW45895   3.190   3.981   3.354  0.6839  0.1459  0.5735
13683SOL    HW145896   3.123   4.030   3.306  1.8161  1.7841  0.6032
13683SOL    HW245897   3.210   3.907   3.297 -0.2519  0.3303 -0.0147
13684SOL     OW45898   7.762   6.436   1.421  0.6425 -0.1569  0.2356
13684SOL    HW145899   7.721   6.363   1.468 -0.1380  0.6207  0.8100
13684SOL    HW245900   7.779   6.501   1.489  2.3276 -0.2141 -0.0929
13685SOL     OW45901   6.043   2.897   1.884 -0.6319  0.5807  0.2238
13685SOL    HW145902   6.010   2.896   1.795  0.1001 -0.4855 -0.0577
13685SOL    HW245903   5.974   2.940   1.935 -0.7793  1.7771 -0.9403
13686SOL     OW45904   5.507   2.385   2.827 -0.1559 -0.0557  0.5046
13686SOL    HW145905   5.592   2.427   2.813  0.6209 -1.6723  0.1271
13686SOL    HW245906   5.529   2.294   2.847 -1.8111 -0.5043  0.3681
13687SOL     OW45907   6.422   2.725   1.631 -0.2918 -0.0678 -0.1536
13687SOL    HW145908   6.370   2.671   1.690  0.3063 -1.9361 -1.2812
13687SOL    HW245909   6.385   2.709   1.544  1.2141 -0.2789 -0.7842
13688SOL     OW45910   3.788   4.502   0.656 -0.4612  0.0825  0.1728
13688SOL    HW145911   3.789   4.500   0.752 -4.0984 -0.4533  0.3111
13688SOL    HW245912   3.699   4.477   0.632  0.2574  0.4429 -3.3801
13689SOL     OW45913   4.749   2.979   0.714 -0.0977 -0.0987  0.3788
13689SOL    HW145914   4.674   2.986   0.774  0.0050  0.2945  0.4695
13689SOL    HW245915   4.711   2.950   0.631  0.0584 -3.0203  1.2189
13690SOL     OW45916   5.145   7.512   5.278 -1.0256  0.3527  0.0305
13690SOL    HW145917   5.087   7.545   5.346 -2.9074 -2.3815 -0.0969
13690SOL    HW245918   5.092   7.513   5.198  0.1525  0.6368 -0.7860
13691SOL     OW45919   4.516   3.768   0.809 -0.2281  0.4902 -0.0164
13691SOL    HW145920   4.496   3.836   0.873 -0.2834  0.8165 -0.3813
13691SOL    HW245921   4.454   3.782   0.738  0.1980  0.4776 -0.3956
13692SOL     OW45922   5.616   4.827   2.036  0.2945 -0.8237  0.1169
13692SOL    HW145923   5.688   4.872   1.993  0.4687 -0.8794  0.3461
13692SOL    HW245924   5.613   4.865   2.124 -0.5005 -0.2167 -0.1650
13693SOL     OW45925   6.129   6.408   3.438 -0.1292 -0.8215 -0.0965
13693SOL    HW145926   6.206   6.351   3.446  0.9644  0.4134 -1.1870
13693SOL    HW245927   6.075   6.365   3.371  0.4171 -0.8903 -0.5076
13694SOL     OW45928   3.913   2.672   9.807 -0.6482 -0.6688  0.3261
13694SOL    HW145929   3.882   2.657   9.717 -0.3980 -1.2764  0.3349
13694SOL    HW245930   3.922   2.767   9.814 -0.2573 -0.6421 -0.4324
13695SOL     OW45931   4.911   3.238   1.622 -0.6423  0.1154 -0.1456
13695SOL    HW145932   4.916   3.333   1.635 -0.9710  0.1733 -0.4249
13695SOL    HW245933   4.853   3.227   1.547  0.6348 -0.2438 -1.1175
13696SOL     OW45934   3.323   4.147   4.788  0.1261  0.4320  0.1742
13696SOL    HW145935   3.277   4.097   4.855 -0.9004  1.0743 -0.0192
13696SOL    HW245936   3.311   4.239   4.814  0.4425  0.6473 -0.4173
13697SOL     OW45937   3.466   2.363   2.564  0.8538  0.0281 -0.2221
13697SOL    HW145938   3.476   2.272   2.594 -0.3540  0.2906  1.0761
13697SOL    HW245939   3.535   2.374   2.499  0.0839 -2.3102 -1.5795
13698SOL     OW45940   5.374   4.395   2.808 -0.7562 -0.2893 -1.1146
13698SOL    HW145941   5.280   4.384   2.792 -0.7273  1.4011 -2.6935
13698SOL    HW245942   5.415   4.379   2.724  0.4916 -1.6083 -0.3102
13699SOL     OW45943   4.974   5.151   8.576 -0.3735  1.0000 -0.6833
13699SOL    HW145944   5.048   5.206   8.600  1.2272 -0.2446 -2.4642
13699SOL    HW245945   4.928   5.201   8.509 -0.0345  0.9798 -0.9331
13700SOL     OW45946   5.321   3.055   1.993  0.0590 -0.2782  0.3968
13700SOL    HW145947   5.296   3.002   1.917 -0.4598 -2.1700  1.8029
13700SOL    HW245948   5.242   3.059   2.047  0.2584  1.5012  0.6142
13701SOL     OW45949   4.415   5.235   2.805  0.5938 -0.2213  0.0517
13701SOL    HW145950   4.383   5.325   2.794  2.1280  0.2057 -1.3143
13701SOL    HW245951   4.336   5.181   2.805 -0.4522  1.1645  1.9277
13702SOL     OW45952   6.460   6.429   2.084  0.9764  0.3162 -0.1101
13702SOL    HW145953   6.503   6.351   2.119 -1.1737 -0.3215  1.2684
13702SOL    HW245954   6.501   6.502   2.130  0.4197 -0.2983  1.4229
13703SOL     OW45955   6.175   3.181   2.637 -0.6761  0.5631  0.1959
13703SOL    HW145956   6.164   3.167   2.731 -0.6086 -0.0173  0.1169
13703SOL    HW245957   6.117   3.117   2.596 -1.1195  1.1765 -0.1564
13704SOL     OW45958   5.641   4.593   1.001 -0.2562  0.1823 -0.8846
13704SOL    HW145959   5.627   4.679   1.041 -0.9190  1.2277 -3.1785
13704SOL    HW245960   5.735   4.581   1.004 -0.2959  0.0389  1.2302
13705SOL     OW45961   4.722   3.043   2.629 -0.4649  0.3730 -0.0687
13705SOL    HW145962   4.747   2.959   2.592  0.7640  0.6035  0.1967
13705SOL    HW245963   4.633   3.058   2.596 -1.2893 -1.6833  1.0541
13706SOL     OW45964   4.894   7.435   3.592  0.4891  0.2312  0.7484
13706SOL    HW145965   4.823   7.482   3.548  0.7739 -0.2795 -0.2632
13706SOL    HW245966   4.889   7.346   3.558  1.2523  0.0436  1.1072
13707SOL     OW45967   3.189   4.486   1.350 -0.8375 -0.2664 -0.3504
13707SOL    HW145968   3.136   4.410   1.323  0.8896 -1.7179  0.1485
13707SOL    HW245969   3.142   4.561   1.314 -3.3672 -1.4243  0.2764
13708SOL     OW45970   4.540   3.449   1.410 -0.3829  0.3385 -0.0922
13708SOL    HW145971   4.537   3.476   1.318 -0.1116  1.5965  0.2489
13708SOL    HW245972   4.599   3.373   1.410 -3.3325 -2.1454 -1.4830
13709SOL     OW45973   5.402   3.979   0.464  0.1132 -0.2345  0.0810
13709SOL    HW145974   5.360   3.931   0.536 -1.2391  0.7165 -0.0341
13709SOL    HW245975   5.329   4.004   0.407  1.2569 -2.3598 -2.5332
13710SOL     OW45976   4.077   2.551   0.972  0.3790 -0.4924 -0.1413
13710SOL    HW145977   4.141   2.591   0.913  0.9529 -0.6543  0.3647
13710SOL    HW245978   4.113   2.465   0.992 -0.6089 -1.0776 -0.8204
13711SOL     OW45979   4.490   4.971   2.008  0.8869 -0.2194  0.1653
13711SOL    HW145980   4.436   4.965   1.930 -0.4946 -0.8134  1.1295
13711SOL    HW245981   4.507   5.064   2.019  2.5215 -0.2163 -1.7363
13712SOL     OW45982   5.170   3.855   1.586  0.1197 -0.3281  0.0976
13712SOL    HW145983   5.109   3.922   1.616  0.4608  0.3124 -0.6209
13712SOL    HW245984   5.237   3.851   1.654 -0.7944 -1.1704  0.9893
13713SOL     OW45985   4.902   2.778   1.518 -0.1955  0.3771  0.0090
13713SOL    HW145986   4.997   2.778   1.502 -0.0346 -1.7794  0.6169
13713SOL    HW245987   4.874   2.690   1.493 -2.6105  1.7894 -2.8523
13714SOL     OW45988   5.652   3.884   0.815  0.0208 -0.3098 -0.0233
13714SOL    HW145989   5.679   3.899   0.724 -2.1952  0.2561 -0.6461
13714SOL    HW245990   5.557   3.876   0.811 -0.0286 -1.7582  2.0770
13715SOL     OW45991   5.529   5.197   1.247 -0.3574 -0.0677 -0.0266
13715SOL    HW145992   5.573   5.142   1.311 -0.9385  0.1102  0.5304
13715SOL    HW245993   5.499   5.136   1.180  0.5636 -0.2127 -0.3234
13716SOL     OW45994   3.245   1.717   2.257 -0.5844 -0.2771 -0.2650
13716SOL    HW145995   3.335   1.689   2.275 -0.5024 -0.7586 -1.3772
13716SOL    HW245996   3.253   1.810   2.239 -0.4147 -0.1663  0.3448
13717SOL     OW45997   4.132   5.918   3.350 -0.3245  0.4867 -0.2719
13717SOL    HW145998   4.042   5.947   3.364 -0.0875  1.1352 -0.0707
13717SOL    HW245999   4.186   5.983   3.394  0.2299 -0.1869  0.0771
13718SOL     OW46000   3.609   4.187   1.664  0.0359 -0.1736 -0.1516
13718SOL    HW146001   3.664   4.257   1.629  0.5251 -1.2279 -1.6021
13718SOL    HW246002   3.671   4.124   1.701 -0.3493 -0.2051  0.4510
13719SOL     OW46003   3.792   2.538   2.837 -0.6279  0.0634 -0.0614
13719SOL    HW146004   3.876   2.582   2.824 -0.9265  1.2757  1.7525
13719SOL    HW246005   3.761   2.569   2.922 -3.1962  0.1189 -0.9046
13720SOL     OW46006   4.633   3.807   3.687 -0.1121 -0.6044  0.0636
13720SOL    HW146007   4.693   3.734   3.676 -0.0233 -0.2536 -2.3204
13720SOL    HW246008   4.546   3.767   3.686 -0.0265 -0.7984  0.2472
13721SOL     OW46009   4.547   4.135   1.921  0.3091 -1.1468  0.0305
13721SOL    HW146010   4.521   4.091   2.002  1.7560  0.2886  1.3567
13721SOL    HW246011   4.572   4.065   1.861  2.6462 -2.2020  2.0880
13722SOL     OW46012   4.841   5.269   2.211  0.1319  0.5688 -0.6703
13722SOL    HW146013   4.889   5.277   2.128 -0.8511  2.1802 -1.1353
13722SOL    HW246014   4.847   5.176   2.234  2.6780  0.5608 -1.1583
13723SOL     OW46015   4.150   3.705   0.725  0.3522  0.0801 -0.2243
13723SOL    HW146016   4.095   3.688   0.649 -1.1539 -1.1947  1.0802
13723SOL    HW246017   4.130   3.795   0.750 -0.7300 -0.1850 -0.1117
13724SOL     OW46018   5.205   3.624   1.114 -0.3068  0.3199  0.0962
13724SOL    HW146019   5.235   3.685   1.181  1.2840  1.4759 -1.6001
13724SOL    HW246020   5.257   3.545   1.129 -2.0753 -0.5955  2.0255
13725SOL     OW46021   5.044   5.162   4.076  0.0236 -0.2708 -0.5697
13725SOL    HW146022   4.971   5.222   4.092  0.5551  0.3070 -0.2933
13725SOL    HW246023   5.122   5.209   4.106  0.2606 -1.8088  1.4462
13726SOL     OW46024   3.747   3.568   2.236 -0.2266  0.8324 -0.0038
13726SOL    HW146025   3.751   3.549   2.142 -0.3555 -1.0440  0.3341
13726SOL    HW246026   3.669   3.521   2.266  1.3345 -0.9332  1.5119
13727SOL     OW46027   5.765   3.579   0.515  0.8991 -0.2451 -0.0081
13727SOL    HW146028   5.806   3.658   0.549  1.2348  0.1844 -1.3259
13727SOL    HW246029   5.712   3.545   0.587  1.5613  0.6140  0.8963
13728SOL     OW46030   4.261   3.886   1.096  0.3488 -0.2018  0.3286
13728SOL    HW146031   4.174   3.870   1.060  0.4229  0.1377 -0.0086
13728SOL    HW246032   4.290   3.967   1.054  0.1668  0.5761  1.6391
13729SOL     OW46033   2.959   2.434   1.572 -0.0478  0.1446 -0.2938
13729SOL    HW146034   2.889   2.440   1.507  0.8033 -1.0472 -1.3741
13729SOL    HW246035   3.016   2.508   1.552 -1.6224  1.9333  1.4486
13730SOL     OW46036   7.298   5.922   4.378  0.3785  0.5705 -0.4926
13730SOL    HW146037   7.337   5.835   4.369  0.2138  0.1266  2.3361
13730SOL    HW246038   7.350   5.977   4.319  1.8742 -1.0176 -0.7453
13731SOL     OW46039   3.023   4.940   0.683 -0.0993  0.1360  0.6630
13731SOL    HW146040   2.983   4.994   0.751 -0.0886  1.2754 -0.2076
13731SOL    HW246041   2.974   4.961   0.604 -0.0203 -1.0650  0.2804
13732SOL     OW46042   7.116   2.350   1.440  0.2320 -0.1573  0.2161
13732SOL    HW146043   7.040   2.309   1.483 -1.0659  0.4125 -1.4378
13732SOL    HW246044   7.190   2.326   1.496 -0.7006 -3.2673  0.3298
13733SOL     OW46045   4.218   6.928   2.065 -0.2479  0.7016  0.0174
13733SOL    HW146046   4.218   7.024   2.056  0.0723  0.7512  0.4975
13733SOL    HW246047   4.269   6.912   2.144 -1.2923  0.1832  0.5947
13734SOL     OW46048   6.000   2.446   4.407  0.0460  0.4068  0.3822
13734SOL    HW146049   5.967   2.389   4.476 -0.6784 -1.1036 -1.1231
13734SOL    HW246050   6.090   2.418   4.393  0.2193  0.7684  0.7412
13735SOL     OW46051   5.858   5.465   2.943  0.0106  0.2167  0.4748
13735SOL    HW146052   5.904   5.536   2.900 -2.1990  1.4407  0.0065
13735SOL    HW246053   5.863   5.486   3.036 -1.7577  1.8131  0.2781
13736SOL     OW46054   5.439   5.648   3.834 -0.1003 -0.1590  0.0994
13736SOL    HW146055   5.469   5.736   3.815  0.7481 -0.1405  1.4366
13736SOL    HW246056   5.484   5.593   3.770 -0.1175  0.2870 -0.3008
13737SOL     OW46057   7.749   5.035   2.474  0.3250  0.1847  0.4678
13737SOL    HW146058   7.763   4.941   2.462 -1.0977  0.0540 -0.4100
13737SOL    HW246059   7.753   5.071   2.385  0.8953  0.9673  0.8014
13738SOL     OW46060   6.898   6.473   0.586  0.1508  0.2289 -0.5490
13738SOL    HW146061   6.972   6.423   0.553  0.5624  0.5575 -0.1479
13738SOL    HW246062   6.832   6.408   0.609  0.9372 -0.2029  0.6131
13739SOL     OW46063   5.145   6.548   4.065 -0.3254  0.1087 -0.0546
13739SOL    HW146064   5.136   6.498   4.147  1.1841 -0.2904 -0.1082
13739SOL    HW246065   5.180   6.632   4.093  0.2209 -0.0394 -0.2863
13740SOL     OW46066   3.156   1.949   4.025 -0.3092 -0.1849  0.3824
13740SOL    HW146067   3.105   1.887   4.076  0.6708 -1.7068 -0.4122
13740SOL    HW246068   3.175   1.903   3.943  3.3177 -0.2030  1.0859
13741SOL     OW46069   4.712   3.635   1.521 -0.0379 -0.3469 -0.4185
13741SOL    HW146070   4.682   3.688   1.447 -1.0474 -0.7836 -0.3514
13741SOL    HW246071   4.665   3.552   1.510  0.4648 -0.7232  0.2377
13742SOL     OW46072   3.232   4.837   8.160  0.3935  0.3883  0.3770
13742SOL    HW146073   3.177   4.773   8.115  0.7749  0.0903  0.3274
13742SOL    HW246074   3.256   4.900   8.092 -1.9980  2.0158  0.9236
13743SOL     OW46075   3.196   5.096   9.436  0.3377  0.2016 -0.7054
13743SOL    HW146076   3.197   5.181   9.392 -0.3692  0.6352  0.0810
13743SOL    HW246077   3.149   5.038   9.376 -0.4232  0.7291 -0.6319
13744SOL     OW46078   3.722   3.142   1.237  0.2556  0.1651 -0.1477
13744SOL    HW146079   3.688   3.223   1.197  0.4321  0.0057 -0.6270
13744SOL    HW246080   3.817   3.155   1.239  0.3544 -0.3673 -0.9885
13745SOL     OW46081   4.742   7.247   3.225 -0.0284  0.2150 -0.1372
13745SOL    HW146082   4.818   7.287   3.267  0.4448 -1.9274  1.1734
13745SOL    HW246083   4.758   7.257   3.131  0.4843  2.2237  0.1239
13746SOL     OW46084   3.566   4.644   3.147  0.2233  0.5783 -0.2035
13746SOL    HW146085   3.475   4.649   3.118 -0.6550 -1.4313  1.8809
13746SOL    HW246086   3.589   4.551   3.138  2.2183  1.0835 -0.9580
13747SOL     OW46087   3.245   5.448   0.337 -0.7159 -0.0093  0.0115
13747SOL    HW146088   3.270   5.436   0.429  0.1018  3.0437  0.3064
13747SOL    HW246089   3.191   5.527   0.337  0.0498  0.5992 -2.1978
13748SOL     OW46090   5.046   4.114   3.923  0.3591  0.4871 -0.0473
13748SOL    HW146091   5.027   4.189   3.979 -0.5941 -0.2160  0.5847
13748SOL    HW246092   5.075   4.153   3.841  1.7843  1.5353  0.9060
13749SOL     OW46093   4.298   4.693   2.632  0.2187  0.4334  0.0353
13749SOL    HW146094   4.380   4.714   2.675  0.1507 -0.3374  0.5568
13749SOL    HW246095   4.231   4.718   2.696  0.0997 -0.1835  0.1591
13750SOL     OW46096   5.589   4.350   2.056  0.1794  0.0300 -0.4117
13750SOL    HW146097   5.674   4.327   2.018 -0.5127 -1.6714 -1.0774
13750SOL    HW246098   5.532   4.277   2.030 -1.6109  1.3776 -0.4219
13751SOL     OW46099   1.664   6.338   2.616  0.0139 -0.3894 -0.0459
13751SOL    HW146100   1.686   6.411   2.558 -0.7666 -0.4691 -0.4608
13751SOL    HW246101   1.682   6.371   2.704  0.5416 -0.0214 -0.2836
13752SOL     OW46102   6.815   6.000   9.185 -0.1229 -0.2939 -0.2332
13752SOL    HW146103   6.836   6.086   9.219  2.2322 -1.2703  1.0128
13752SOL    HW246104   6.742   5.969   9.239  2.1634 -0.9623  2.7281
13753SOL     OW46105   5.826   6.581   4.282 -0.0579 -0.6039  0.4959
13753SOL    HW146106   5.825   6.494   4.242 -0.7644 -0.8075  0.9411
13753SOL    HW246107   5.802   6.641   4.212  0.5319 -0.7487  0.1612
13754SOL     OW46108   6.117   2.827   1.059  0.0551 -0.3731 -0.1181
13754SOL    HW146109   6.167   2.759   1.013 -0.1949 -0.5533 -0.1224
13754SOL    HW246110   6.106   2.896   0.994  0.3562 -0.3049 -0.0978
13755SOL     OW46111   1.585   4.750   2.755 -0.2050  0.2360 -0.0178
13755SOL    HW146112   1.522   4.755   2.827  1.3974  0.8753  1.4020
13755SOL    HW246113   1.604   4.841   2.733 -0.8459  0.0459 -1.4396
13756SOL     OW46114   5.492   5.530   3.052  0.0306 -0.9850  0.3190
13756SOL    HW146115   5.548   5.453   3.065 -0.5327 -1.3976  0.3557
13756SOL    HW246116   5.469   5.528   2.960  0.2804 -0.6684  0.2474
13757SOL     OW46117   4.113   2.779   2.315 -0.8109 -0.0308  1.6123
13757SOL    HW146118   4.109   2.687   2.340  0.7528 -0.3186  0.8867
13757SOL    HW246119   4.096   2.780   2.221 -2.5313  0.6238  1.8993
13758SOL     OW46120   5.101   1.894   2.971  0.5304 -0.0631 -0.1065
13758SOL    HW146121   5.079   1.820   3.027  1.2023 -0.4041 -0.2865
13758SOL    HW246122   5.173   1.938   3.017 -1.0390  1.5523  0.9284
13759SOL     OW46123   5.358   3.228   0.501  0.1987 -0.5368 -0.4236
13759SOL    HW146124   5.396   3.166   0.439  0.4314 -0.5040 -0.3135
13759SOL    HW246125   5.430   3.286   0.526 -0.2562  0.4934 -1.3834
13760SOL     OW46126   5.537   6.109   4.295  0.0470  0.2594 -0.2543
13760SOL    HW146127   5.525   6.020   4.328 -0.5458 -0.3521 -1.9846
13760SOL    HW246128   5.478   6.163   4.348 -0.5846 -0.6076 -0.0627
13761SOL     OW46129   4.192   3.586   3.532 -0.1797 -0.5604 -0.1253
13761SOL    HW146130   4.120   3.565   3.591 -0.3313 -0.7694 -0.3809
13761SOL    HW246131   4.209   3.504   3.485 -0.6916 -0.1593 -1.0387
13762SOL     OW46132   7.151   7.201   4.588  0.2305  0.3778 -0.5434
13762SOL    HW146133   7.176   7.114   4.619 -1.0604 -0.4477 -1.7193
13762SOL    HW246134   7.227   7.233   4.541  0.8160  0.0175  0.1383
13763SOL     OW46135   3.424   3.084   0.692  0.1861 -0.5441 -0.0239
13763SOL    HW146136   3.352   3.021   0.699  1.5103 -2.0052  1.2738
13763SOL    HW246137   3.491   3.038   0.640  0.4599  0.5373 -0.6613
13764SOL     OW46138   5.401   5.240   0.941  0.2356  0.1171  0.0629
13764SOL    HW146139   5.356   5.174   0.888  0.8258 -0.5883  0.4068
13764SOL    HW246140   5.466   5.278   0.883  0.3647 -0.1119  0.0533
13765SOL     OW46141   5.685   2.993   2.431  0.4383 -0.4264 -0.5070
13765SOL    HW146142   5.767   3.037   2.409  1.1348 -0.2726  2.0634
13765SOL    HW246143   5.649   2.966   2.347  2.3092  0.9362 -1.8267
13766SOL     OW46144   7.454   5.818   1.778 -0.2907 -0.0753  0.0611
13766SOL    HW146145   7.400   5.761   1.832 -0.4216  0.1707  0.1942
13766SOL    HW246146   7.392   5.881   1.740  0.1328  1.5529  1.8955
13767SOL     OW46147   7.860   5.610   4.665 -0.2926  0.3924 -0.5245
13767SOL    HW146148   7.897   5.586   4.580  0.3389  1.3059 -0.5260
13767SOL    HW246149   7.925   5.670   4.703  0.6561 -1.8006  1.6406
13768SOL     OW46150   5.963   6.876   0.744  0.2825  0.2768  0.1473
13768SOL    HW146151   5.869   6.882   0.757  0.2037  0.3839 -0.4651
13768SOL    HW246152   5.983   6.945   0.681  0.5375 -0.7810 -0.9449
13769SOL     OW46153   4.358   3.538   2.239 -0.1774 -0.2679 -0.4785
13769SOL    HW146154   4.333   3.449   2.264 -1.2899  0.4717  1.2559
13769SOL    HW246155   4.414   3.568   2.311  1.0563  0.0991 -1.5543
13770SOL     OW46156   3.078   6.360   3.122  0.2290  0.0978 -0.5779
13770SOL    HW146157   3.130   6.420   3.068  1.0116  0.0274  0.0771
13770SOL    HW246158   3.000   6.410   3.145  0.0331  0.2405 -1.4953
13771SOL     OW46159   6.094   6.038   3.169 -0.1637  0.2079 -0.0728
13771SOL    HW146160   6.028   6.081   3.224 -0.9392 -0.0986 -0.7406
13771SOL    HW246161   6.100   6.094   3.091 -0.4088 -0.3174 -0.4770
13772SOL     OW46162   2.738   6.813   3.238 -0.4514 -0.6285  0.1823
13772SOL    HW146163   2.755   6.720   3.249 -0.5357 -0.6608  0.0453
13772SOL    HW246164   2.646   6.818   3.213 -0.4123 -0.5171  0.0596
13773SOL     OW46165   3.155   3.487   2.844 -0.8165 -0.0468 -0.9016
13773SOL    HW146166   3.073   3.502   2.892 -0.4490  0.1159 -0.3113
13773SOL    HW246167   3.133   3.420   2.780 -1.5104  0.2796 -1.0100
13774SOL     OW46168   5.342   3.280   3.852  0.5656 -0.0365  0.2913
13774SOL    HW146169   5.420   3.269   3.798  0.7614 -1.0592  0.7654
13774SOL    HW246170   5.376   3.304   3.939  0.2778  1.0179  0.1267
13775SOL     OW46171   3.929   5.174   0.871  0.0200  0.2078  0.1047
13775SOL    HW146172   3.994   5.198   0.805 -0.0282 -1.8735 -0.7859
13775SOL    HW246173   3.845   5.185   0.827 -0.1225  0.7213  0.4985
13776SOL     OW46174   2.506   6.766   2.027 -0.5289 -0.5873  0.2810
13776SOL    HW146175   2.531   6.702   2.093  1.5020 -0.9234 -0.7360
13776SOL    HW246176   2.570   6.837   2.036 -1.0300 -0.0276 -0.4410
13777SOL     OW46177   4.080   6.021   1.668  0.4148  0.8454  0.3793
13777SOL    HW146178   4.104   6.046   1.757 -2.4859 -0.3876  1.6345
13777SOL    HW246179   4.042   5.933   1.677 -0.4631  0.9125 -1.9628
13778SOL     OW46180   3.297   3.436   1.029  0.1449  0.3723 -0.3986
13778SOL    HW146181   3.208   3.447   0.997 -0.0081  2.7480  0.6948
13778SOL    HW246182   3.288   3.409   1.120  0.5806 -0.4239 -0.5731
13779SOL     OW46183   1.971   4.890   0.405 -0.5258  0.3169  0.1148
13779SOL    HW146184   2.018   4.964   0.370  0.9838 -1.2218 -1.2761
13779SOL    HW246185   2.017   4.813   0.371 -2.2892 -1.2728  1.0934
13780SOL     OW46186   1.744   1.474   2.436 -0.1427 -0.3566  0.0786
13780SOL    HW146187   1.828   1.441   2.403  0.4311  1.2454 -0.1725
13780SOL    HW246188   1.761   1.494   2.528 -0.2758 -0.1703  0.0633
13781SOL     OW46189   3.290   4.273   4.533  0.4216  0.1538  0.4876
13781SOL    HW146190   3.298   4.207   4.602  0.9054 -1.3263 -0.9340
13781SOL    HW246191   3.238   4.231   4.465 -0.1252  1.6169 -0.0506
13782SOL     OW46192   5.079   6.449   0.799 -0.3057  0.2690  0.1887
13782SOL    HW146193   5.036   6.477   0.718 -2.0384 -2.8340 -0.0770
13782SOL    HW246194   5.145   6.385   0.771 -0.9462 -0.8684  1.1948
13783SOL     OW46195   4.661   4.223   1.206 -0.1133  0.2797  0.2545
13783SOL    HW146196   4.656   4.306   1.253  0.7750  0.5144 -0.0319
13783SOL    HW246197   4.662   4.157   1.276  1.2473  0.6252  0.6079
13784SOL     OW46198   4.820   6.479   3.193 -0.2417 -0.2656  0.3876
13784SOL    HW146199   4.751   6.437   3.141 -1.5805  1.3307  0.7759
13784SOL    HW246200   4.795   6.462   3.284 -0.4471  0.7497  0.5383
13785SOL     OW46201   3.154   3.591   1.891 -0.8728 -0.0264  0.0730
13785SOL    HW146202   3.229   3.535   1.871 -0.2157  0.6779  0.5098
13785SOL    HW246203   3.083   3.530   1.912  0.1606 -0.7042  1.7683
13786SOL     OW46204   3.697   5.261   2.990 -0.0739  0.1257  0.0929
13786SOL    HW146205   3.674   5.235   2.900 -1.4950  3.0372 -0.4892
13786SOL    HW246206   3.656   5.346   3.002  0.8623  0.2611  3.2401
13787SOL     OW46207   6.024   4.513   3.096 -0.1053 -0.3993  0.4110
13787SOL    HW146208   5.984   4.554   3.019  0.4089 -0.1615  0.2654
13787SOL    HW246209   5.956   4.454   3.129  0.1195 -1.5288 -1.0277
13788SOL     OW46210   4.493   4.863   3.386 -0.2211  0.1388 -0.0508
13788SOL    HW146211   4.407   4.830   3.361  0.2602 -0.8941 -0.3698
13788SOL    HW246212   4.501   4.842   3.479 -1.0295  1.8521  0.4524
13789SOL     OW46213   2.910   4.694   2.567 -0.3829  0.3823 -0.6613
13789SOL    HW146214   2.950   4.632   2.506 -0.2791  0.1979 -0.4013
13789SOL    HW246215   2.849   4.642   2.619  2.5758 -0.3936  2.3539
13790SOL     OW46216   7.146   5.672   5.398  0.6209 -0.8502 -0.4949
13790SOL    HW146217   7.091   5.614   5.346 -0.3250  0.2131 -0.7253
13790SOL    HW246218   7.111   5.666   5.487  0.6637 -0.8033 -0.4746
13791SOL     OW46219   4.628   4.599   0.160 -0.3657  0.1650  0.3034
13791SOL    HW146220   4.551   4.650   0.137 -0.1267  0.8188  0.9334
13791SOL    HW246221   4.669   4.647   0.232  2.3513  1.5582 -1.9911
13792SOL     OW46222   3.941   5.574   2.556  0.3194  0.3119  0.1789
13792SOL    HW146223   4.008   5.590   2.622  0.3171 -0.7881  0.4780
13792SOL    HW246224   3.861   5.559   2.607  0.0953  0.4763 -0.1221
13793SOL     OW46225   2.625   6.046   3.557 -0.0234 -0.1656 -0.2545
13793SOL    HW146226   2.606   5.976   3.620 -1.0960 -0.0294 -0.4041
13793SOL    HW246227   2.682   6.005   3.492  1.4316 -0.1994  1.0041
13794SOL     OW46228   1.917   6.206   3.301 -0.9023  0.0446 -0.4809
13794SOL    HW146229   1.992   6.177   3.249 -0.4663  0.3540 -0.0348
13794SOL    HW246230   1.841   6.172   3.254 -0.5132  0.2376 -1.2643
13795SOL     OW46231   6.945   5.925   4.790 -0.0392 -0.3023  0.1477
13795SOL    HW146232   6.948   5.830   4.776  1.3402 -0.1080 -1.1842
13795SOL    HW246233   6.956   5.961   4.702  0.7714  1.0911  0.8009
13796SOL     OW46234   5.277   0.583   1.682 -0.3330  0.2901 -0.3256
13796SOL    HW146235   5.253   0.493   1.702  0.7024  0.1560  0.3886
13796SOL    HW246236   5.296   0.583   1.589  1.1471 -0.5969 -0.0485
13797SOL     OW46237   4.588   4.709   2.462 -0.6103 -0.7425  0.2009
13797SOL    HW146238   4.507   4.658   2.456  0.3753 -2.4401  0.8312
13797SOL    HW246239   4.619   4.715   2.371 -0.2250 -2.1572  0.2219
13798SOL     OW46240   2.584   2.539   3.211  0.2246  0.3845  0.0211
13798SOL    HW146241   2.490   2.524   3.202 -0.0641  0.1882  2.6021
13798SOL    HW246242   2.601   2.618   3.159 -1.5747  1.0170  0.3307
13799SOL     OW46243   4.836   4.888   2.594  0.2641 -0.0496  0.0816
13799SOL    HW146244   4.910   4.921   2.544 -0.1867  1.0116  0.0948
13799SOL    HW246245   4.826   4.950   2.666 -2.2556  1.3489 -1.3604
13800SOL     OW46246   3.797   4.605   2.930 -0.2964  0.7812  0.2553
13800SOL    HW146247   3.879   4.587   2.975 -0.6743 -0.5185  0.4683
13800SOL    HW246248   3.748   4.660   2.991  0.4569  1.6719  0.0712
13801SOL     OW46249   5.089   4.701   3.396  0.4795  0.7975 -0.2335
13801SOL    HW146250   5.029   4.646   3.447 -0.9568 -0.2096 -2.8104
13801SOL    HW246251   5.175   4.660   3.408 -0.0961 -0.3583  0.1371
13802SOL     OW46252   2.527   4.044   2.728 -0.3434 -0.2711  0.1451
13802SOL    HW146253   2.600   4.082   2.778  0.4016 -2.8544  1.1745
13802SOL    HW246254   2.449   4.088   2.762  0.5609  1.4939  0.0703
13803SOL     OW46255   4.747   2.123   1.598  0.4826  0.1207  1.0847
13803SOL    HW146256   4.702   2.102   1.681 -1.7527  0.4416  0.0361
13803SOL    HW246257   4.783   2.039   1.569 -1.1845 -0.6075  1.0182
13804SOL     OW46258   5.086   2.135   1.269  0.1853 -0.1346 -0.4561
13804SOL    HW146259   5.040   2.208   1.229  0.0419 -0.4285 -0.8424
13804SOL    HW246260   5.069   2.061   1.210 -2.5380 -1.3517  1.6486
13805SOL     OW46261   4.858   7.522   1.156 -0.4019  0.3156 -0.0513
13805SOL    HW146262   4.948   7.507   1.125 -0.5122  2.6879 -1.7715
13805SOL    HW246263   4.868   7.539   1.250  0.8097 -0.3341 -0.0401
13806SOL     OW46264   5.570   5.708   3.467 -0.3965  0.1554  0.0876
13806SOL    HW146265   5.558   5.763   3.390  1.6033 -0.3709 -0.6601
13806SOL    HW246266   5.664   5.714   3.487 -1.0247  1.4809  3.4353
13807SOL     OW46267   5.315   3.476   1.684  0.0531  0.4699 -0.0830
13807SOL    HW146268   5.375   3.491   1.611  0.0134  1.4701  0.0782
13807SOL    HW246269   5.371   3.452   1.757  0.0548 -1.1112 -0.5577
13808SOL     OW46270   6.581   5.474   0.838 -0.0689  0.1242  0.7304
13808SOL    HW146271   6.617   5.499   0.753 -2.9783  2.2959 -0.0051
13808SOL    HW246272   6.622   5.535   0.899 -0.1417  0.5210  0.3924
13809SOL     OW46273   5.441   4.126   2.579  0.3899  0.0216  0.2431
13809SOL    HW146274   5.488   4.178   2.644  1.3066 -1.6703  1.0118
13809SOL    HW246275   5.491   4.137   2.498  0.2326  0.7722  0.2381
13810SOL     OW46276   5.021   5.949   2.790  0.7161 -0.2504 -0.2093
13810SOL    HW146277   4.957   5.922   2.724  0.3349 -0.9420  0.4206
13810SOL    HW246278   5.078   5.873   2.800  0.3264 -0.4358  0.7725
13811SOL     OW46279   3.852   5.858   1.194 -0.3034  0.5675 -0.1684
13811SOL    HW146280   3.822   5.839   1.106  0.5563  2.3051 -0.8804
13811SOL    HW246281   3.790   5.813   1.251  0.4888 -2.6852 -1.5964
13812SOL     OW46282   4.366   3.945   0.649 -0.0940  0.4413  0.0541
13812SOL    HW146283   4.366   3.905   0.562  2.4276 -1.7812  0.9327
13812SOL    HW246284   4.434   4.011   0.645 -1.0648  1.4670 -0.0554
13813SOL     OW46285   5.210   3.890   3.422  0.0075 -0.5123 -0.7156
13813SOL    HW146286   5.121   3.880   3.454 -0.3042 -0.5858 -1.5777
13813SOL    HW246287   5.204   3.877   3.327  0.7051  0.8168 -0.9792
13814SOL     OW46288   3.077   5.865   0.951 -0.3268  0.5415 -0.2474
13814SOL    HW146289   3.149   5.891   1.010 -0.9499  2.5996 -0.3097
13814SOL    HW246290   3.112   5.791   0.902  1.6084  1.2122  0.0215
13815SOL     OW46291   7.075   6.275   2.746  0.9417 -0.5110 -0.2253
13815SOL    HW146292   7.107   6.194   2.785 -0.6205 -1.3683 -0.6279
13815SOL    HW246293   7.124   6.344   2.790  0.2570 -1.5049  2.2814
13816SOL     OW46294   5.092   2.574   3.389  0.5222 -0.3060  0.8057
13816SOL    HW146295   4.997   2.566   3.382  0.7375 -3.2195  0.1987
13816SOL    HW246296   5.106   2.660   3.430 -2.1182  2.7489 -3.8736
13817SOL     OW46297   1.078   3.623   1.126 -0.7695 -0.3604  0.1164
13817SOL    HW146298   1.105   3.559   1.059 -2.2762 -0.9051  0.0041
13817SOL    HW246299   1.107   3.585   1.209 -0.3651 -0.4705 -0.0695
13818SOL     OW46300   4.375   3.792   9.295 -0.1039  0.0941  0.0550
13818SOL    HW146301   4.451   3.737   9.311 -1.5246 -1.9763  0.0073
13818SOL    HW246302   4.385   3.865   9.357  1.7386 -0.2848  0.2548
13819SOL     OW46303   2.382   4.226   2.113  0.0731  0.1981  0.6431
13819SOL    HW146304   2.446   4.172   2.159 -0.9363  0.1172  2.0424
13819SOL    HW246305   2.324   4.162   2.071  0.6825  0.2606 -0.2896
13820SOL     OW46306   6.989   5.038   2.005 -0.0955  0.3126  0.2405
13820SOL    HW146307   7.043   5.110   1.973  0.0001  0.2978  0.3667
13820SOL    HW246308   6.903   5.077   2.020 -0.2092  0.2612 -0.2750
13821SOL     OW46309   5.177   3.822   3.156 -0.0377 -0.5773 -0.3213
13821SOL    HW146310   5.174   3.846   3.063 -0.4250 -0.6077 -0.3182
13821SOL    HW246311   5.113   3.751   3.165 -0.9518  0.2933  0.2142
13822SOL     OW46312   5.896   6.889   3.389  0.1866  0.3262  0.0379
13822SOL    HW146313   5.858   6.918   3.473 -0.8391 -0.5199 -0.1188
13822SOL    HW246314   5.989   6.913   3.396  0.1458  0.1890  1.4559
13823SOL     OW46315   5.509   4.368   1.152  0.0811  0.3694 -0.1805
13823SOL    HW146316   5.544   4.450   1.117  1.4911  0.5227  1.4921
13823SOL    HW246317   5.568   4.300   1.119  0.7500  0.3911  0.9479
13824SOL     OW46318   5.744   6.440   2.467  0.2042 -0.1658  0.2659
13824SOL    HW146319   5.709   6.445   2.556 -0.4254  0.3489  0.0027
13824SOL    HW246320   5.677   6.482   2.413  1.3106  1.0425 -0.2363
13825SOL     OW46321   3.320   7.688   2.381  0.7252  0.4831 -0.3305
13825SOL    HW146322   3.390   7.656   2.324  1.7478 -0.3836  1.3436
13825SOL    HW246323   3.240   7.663   2.336  1.5052 -1.0850 -0.9425
13826SOL     OW46324   3.885   4.916   9.747  0.4005  0.1235  0.7819
13826SOL    HW146325   3.975   4.890   9.731  0.4076  0.0431  0.9467
13826SOL    HW246326   3.873   4.904   9.841 -0.1460 -1.0418  0.5888
13827SOL     OW46327   3.402   3.658   0.783 -0.0725 -0.3204 -0.3726
13827SOL    HW146328   3.382   3.656   0.876 -0.5370  0.2619 -0.4552
13827SOL    HW246329   3.318   3.643   0.740 -0.3046  1.6739 -0.7149
13828SOL     OW46330   4.653   2.217   1.854  0.1178  0.6827 -0.0830
13828SOL    HW146331   4.735   2.255   1.823 -0.0162  1.1097  0.0890
13828SOL    HW246332   4.679   2.133   1.893  0.3468  0.3600 -0.9152
13829SOL     OW46333   4.857   3.918   3.579  0.4808  0.8484  0.0737
13829SOL    HW146334   4.868   4.007   3.613 -0.6364  0.9618  0.1824
13829SOL    HW246335   4.786   3.882   3.632  0.9889 -0.1459  0.0908
13830SOL     OW46336   4.937   3.968   1.752  0.5156  0.2634  0.2537
13830SOL    HW146337   4.936   3.970   1.847 -0.5314 -0.7843  0.2764
13830SOL    HW246338   4.854   3.928   1.727  1.4339 -0.9503 -1.0432
13831SOL     OW46339   3.901   2.405   1.246  0.3191 -0.5812  0.1315
13831SOL    HW146340   3.973   2.358   1.288  0.9748 -1.2948 -1.6907
13831SOL    HW246341   3.851   2.337   1.200 -0.3843  0.1510 -0.2183
13832SOL     OW46342   1.675   4.629   2.277  0.0252  0.2664 -0.0517
13832SOL    HW146343   1.609   4.694   2.252 -0.6196 -0.1146  0.6269
13832SOL    HW246344   1.657   4.611   2.370  1.9119  1.1329  0.5280
13833SOL     OW46345   5.994   3.901   2.078 -0.0423  0.0232  0.4802
13833SOL    HW146346   6.088   3.911   2.087  0.0995  0.5761 -1.1766
13833SOL    HW246347   5.957   3.985   2.105  0.0898  0.3815 -0.4069
13834SOL     OW46348   3.939   5.416   9.767  0.1103  0.8009 -0.1598
13834SOL    HW146349   3.867   5.457   9.718  0.7160  0.8209 -1.0612
13834SOL    HW246350   4.016   5.466   9.741  0.8086 -0.6304 -0.9770
13835SOL     OW46351   8.626   5.208   0.556 -0.8026  0.0324 -0.0585
13835SOL    HW146352   8.571   5.249   0.489  0.7934 -1.7005 -2.5750
13835SOL    HW246353   8.691   5.274   0.577 -0.7016  0.2511 -1.0166
13836SOL     OW46354   5.819   5.138   3.993  0.4112  0.0805 -0.1033
13836SOL    HW146355   5.728   5.149   3.968  0.2883  0.1107  0.3508
13836SOL    HW246356   5.830   5.193   4.071  1.0898  0.9186 -0.7667
13837SOL     OW46357   4.299   5.939   1.197 -0.3181  0.0208  0.2990
13837SOL    HW146358   4.309   5.955   1.291  0.3814 -0.1779  0.2685
13837SOL    HW246359   4.361   5.998   1.156 -1.3989  0.8927 -0.1135
13838SOL     OW46360   5.024   4.121   0.546  0.5359  0.1346 -0.0724
13838SOL    HW146361   5.102   4.177   0.549 -0.1611  1.3026 -2.0587
13838SOL    HW246362   5.003   4.114   0.453  0.0538 -2.7433  0.1552
13839SOL     OW46363   6.756   4.242   3.084  0.4855  0.0645  0.2560
13839SOL    HW146364   6.784   4.224   3.174 -0.8244  0.5646  0.7921
13839SOL    HW246365   6.678   4.188   3.072 -1.2761  2.3566  0.5929
13840SOL     OW46366   3.387   4.780   1.052 -0.1727 -0.3928  0.4553
13840SOL    HW146367   3.343   4.810   0.972 -0.9035  0.3136  1.1022
13840SOL    HW246368   3.316   4.770   1.116  0.6120  0.9382  1.5796
13841SOL     OW46369   4.853   7.528   1.808  0.2219 -0.4881 -0.3645
13841SOL    HW146370   4.767   7.486   1.812  0.2823 -0.7663 -1.4933
13841SOL    HW246371   4.909   7.476   1.866  0.3494 -2.1610 -1.9043
13842SOL     OW46372   5.278   3.781   4.409  0.2409  0.3365  0.1576
13842SOL    HW146373   5.186   3.805   4.423 -0.4060 -1.3461 -0.9633
13842SOL    HW246374   5.275   3.695   4.367  2.2561  1.1541 -1.8727
13843SOL     OW46375   3.224   2.407   2.473 -0.1551 -0.5616 -0.1299
13843SOL    HW146376   3.219   2.501   2.455  1.2922 -0.3926  0.2205
13843SOL    HW246377   3.312   2.394   2.510 -0.5324 -1.9645  0.3470
13844SOL     OW46378   4.465   3.763   4.205 -0.0836  0.3363 -0.2573
13844SOL    HW146379   4.487   3.670   4.210  0.2144  0.3905 -0.5380
13844SOL    HW246380   4.547   3.809   4.224 -0.7964  0.5931  2.6914
13845SOL     OW46381   4.117   3.650   4.518 -0.1664 -0.4099  0.4929
13845SOL    HW146382   4.121   3.730   4.571 -0.0989  1.5381 -2.1866
13845SOL    HW246383   4.024   3.637   4.501 -0.2994 -1.7932  2.0394
13846SOL     OW46384   4.375   5.976   0.699  0.3335 -0.4154  0.4164
13846SOL    HW146385   4.448   6.019   0.655 -1.7135  0.1077 -2.7893
13846SOL    HW246386   4.344   6.040   0.763 -0.7816  1.8950 -2.2076
13847SOL     OW46387   2.171   4.427   2.999 -0.2136 -0.4066 -0.0876
13847SOL    HW146388   2.258   4.398   2.972 -0.1051 -0.2040  0.0431
13847SOL    HW246389   2.112   4.383   2.938 -0.0063 -0.3710 -0.3193
13848SOL     OW46390   3.876   1.069   2.037 -0.1640  0.5027  0.1923
13848SOL    HW146391   3.847   0.988   2.079  1.7162 -0.6009 -0.5195
13848SOL    HW246392   3.824   1.073   1.956 -1.4792  0.9525  1.0178
13849SOL     OW46393   5.340   3.273   1.332 -0.1343  0.4885 -0.2706
13849SOL    HW146394   5.260   3.247   1.378  0.8223 -0.8444  0.7016
13849SOL    HW246395   5.389   3.323   1.397  0.0247  0.9306 -0.7282
13850SOL     OW46396   5.275   5.397   3.280 -0.7259  0.5259  0.0763
13850SOL    HW146397   5.239   5.423   3.365  0.5493  1.0512  0.4798
13850SOL    HW246398   5.199   5.400   3.221 -1.6429  0.1152  1.1833
13851SOL     OW46399   4.399   2.222   1.943  0.3302 -0.4607  0.3582
13851SOL    HW146400   4.485   2.223   1.901  0.6395 -0.4850  0.9828
13851SOL    HW246401   4.401   2.296   2.004 -0.1712 -0.3353  0.2316
13852SOL     OW46402   4.102   3.515   2.052 -0.3389  0.2386  0.0381
13852SOL    HW146403   4.128   3.431   2.089 -0.2286  0.0676 -0.4186
13852SOL    HW246404   4.100   3.575   2.126  2.5280  0.5798 -0.0496
13853SOL     OW46405   1.813   7.209   2.941 -0.0043 -0.1072 -0.3058
13853SOL    HW146406   1.741   7.254   2.986 -1.1291 -1.8593 -0.2781
13853SOL    HW246407   1.812   7.244   2.852 -0.6493  0.1418 -0.2003
13854SOL     OW46408   3.874   6.059   0.974  0.0978 -0.0391  0.9238
13854SOL    HW146409   3.886   6.105   0.891 -0.4790  1.0254  1.4030
13854SOL    HW246410   3.932   5.983   0.968 -0.5503 -0.4361 -0.7652
13855SOL     OW46411   4.026   2.913   4.911 -0.0436 -0.3822  0.5134
13855SOL    HW146412   4.003   2.821   4.904  0.7442 -0.6163  0.9092
13855SOL    HW246413   3.942   2.958   4.922 -0.5135 -0.9469 -0.6388
13856SOL     OW46414   6.349   3.669   3.373  0.0236  0.1514  0.1654
13856SOL    HW146415   6.276   3.697   3.428  0.1981  1.4727 -0.2509
13856SOL    HW246416   6.389   3.597   3.422  0.7032  1.8087  2.2118
13857SOL     OW46417   2.928   3.004   1.162  0.4053 -0.3358  0.1171
13857SOL    HW146418   2.988   2.968   1.097 -1.3075 -1.5100 -0.8939
13857SOL    HW246419   2.850   2.950   1.155 -1.7664  2.5815 -0.3947
13858SOL     OW46420   6.895   5.314   2.290  0.4951  0.5753 -0.0341
13858SOL    HW146421   6.902   5.409   2.299 -0.6930  0.8608 -1.7665
13858SOL    HW246422   6.810   5.299   2.251  0.5145 -1.2585  0.5204
13859SOL     OW46423   2.800   2.354   7.202  0.2439  0.0063 -0.5698
13859SOL    HW146424   2.806   2.366   7.297 -0.3489 -0.5399 -0.4600
13859SOL    HW246425   2.885   2.317   7.178  0.6662  0.8097 -0.3634
13860SOL     OW46426   6.683   6.342   2.244  0.2209  0.0826 -0.2754
13860SOL    HW146427   6.753   6.288   2.207 -0.1394 -1.2160  0.8312
13860SOL    HW246428   6.607   6.284   2.247 -0.7657  1.2905 -0.9304
13861SOL     OW46429   5.829   2.985   3.688  0.1612 -0.1587  0.1655
13861SOL    HW146430   5.748   2.973   3.738  0.4472 -0.8043  0.4873
13861SOL    HW246431   5.883   3.043   3.741 -0.0902  0.2826 -0.0549
13862SOL     OW46432   4.174   4.796   2.842 -0.2207 -0.4525  0.5699
13862SOL    HW146433   4.198   4.884   2.869  1.6744 -1.3330  1.9721
13862SOL    HW246434   4.095   4.776   2.893 -0.7364  0.4412  0.1491
13863SOL     OW46435   2.564   2.930   4.009 -0.1804 -0.0666 -0.1779
13863SOL    HW146436   2.645   2.879   4.001 -0.1939  0.1641 -2.6991
13863SOL    HW246437   2.502   2.869   4.049  1.2340 -0.1682  2.0725
13864SOL     OW46438   6.729   4.703   7.560  0.1046 -0.3570  0.1692
13864SOL    HW146439   6.684   4.680   7.641 -0.5676  0.9702  0.1984
13864SOL    HW246440   6.708   4.631   7.500  0.8610 -1.5065  1.2406
13865SOL     OW46441   3.584   2.240   3.249 -0.3499 -0.3599  0.2746
13865SOL    HW146442   3.530   2.187   3.307 -0.1507 -1.5385 -0.5799
13865SOL    HW246443   3.540   2.236   3.164  1.6269 -2.3781 -0.7817
13866SOL     OW46444   4.860   4.063   4.508 -0.2783 -0.2319  0.1281
13866SOL    HW146445   4.935   4.089   4.454  0.3008  0.9683  1.4531
13866SOL    HW246446   4.858   3.967   4.501  1.1690 -0.2672 -0.2035
13867SOL     OW46447   4.960   3.754   0.019  0.2054  0.2555 -0.1259
13867SOL    HW146448   5.035   3.790   0.066  1.1452 -2.7079  0.8959
13867SOL    HW246449   4.999   3.701  -0.050 -1.0462  0.3084 -0.9126
13868SOL     OW46450   3.187   7.231   1.772  0.3782 -0.8815 -0.0436
13868SOL    HW146451   3.211   7.286   1.697  0.6880 -2.2962 -1.0330
13868SOL    HW246452   3.264   7.175   1.785  0.8118  0.1348  2.1399
13869SOL     OW46453   3.779   2.080   4.939  0.3445 -0.0015  0.0366
13869SOL    HW146454   3.750   2.032   5.016 -0.8805  1.0600  0.2617
13869SOL    HW246455   3.788   2.170   4.968 -0.5475  0.4999 -1.1430
13870SOL     OW46456   5.949   2.177   1.088 -0.1281 -0.3248 -0.1930
13870SOL    HW146457   5.930   2.270   1.073 -3.6604 -0.5572  1.8034
13870SOL    HW246458   6.008   2.177   1.163 -1.5507  0.3480  0.9763
13871SOL     OW46459   4.958   4.538   3.552  0.4147 -0.3624  0.0060
13871SOL    HW146460   4.898   4.487   3.498  0.9102 -1.7665  0.7303
13871SOL    HW246461   4.934   4.516   3.642  2.0756 -1.0847  0.3153
13872SOL     OW46462   5.847   2.143   5.317  0.3885  0.2744  0.6260
13872SOL    HW146463   5.865   2.203   5.244  0.0630  2.3529  2.1483
13872SOL    HW246464   5.756   2.162   5.341 -0.0188 -1.4918  0.6323
13873SOL     OW46465   4.787   4.251   1.928  0.1685  0.3841 -0.1369
13873SOL    HW146466   4.699   4.228   1.898  0.4388 -0.4894 -0.3093
13873SOL    HW246467   4.827   4.167   1.949  0.6018  0.8495  0.9723
13874SOL     OW46468   7.452   6.853   0.392 -0.0191 -0.0515 -0.9033
13874SOL    HW146469   7.360   6.826   0.395  0.1926 -0.6999  0.2441
13874SOL    HW246470   7.496   6.781   0.347 -0.1091  0.4111 -1.7536
13875SOL     OW46471   1.032   4.203   3.861  0.2909  0.4451  0.1115
13875SOL    HW146472   1.055   4.117   3.896  0.6686 -0.1719 -1.5564
13875SOL    HW246473   0.944   4.220   3.895  1.1623  0.5446  2.4662
13876SOL     OW46474   6.003   6.771   5.309  0.0325  0.3134  0.3276
13876SOL    HW146475   5.988   6.711   5.237 -1.5762  0.7523  0.2700
13876SOL    HW246476   6.017   6.714   5.385  0.9831 -0.1328 -0.1553
13877SOL     OW46477   3.734   5.101   3.574 -0.1114 -0.2043  0.3937
13877SOL    HW146478   3.644   5.132   3.577 -0.6058 -1.0432 -2.6190
13877SOL    HW246479   3.752   5.087   3.481  2.9275 -0.7094  0.9312
13878SOL     OW46480   4.005   3.276   1.353 -0.0855 -0.1424  0.1898
13878SOL    HW146481   4.084   3.266   1.406 -1.2524 -1.4018  1.8092
13878SOL    HW246482   3.938   3.304   1.416 -0.7375  1.9782 -1.3282
13879SOL     OW46483   5.125   2.547   2.335  0.0194  0.3182  0.7077
13879SOL    HW146484   5.107   2.464   2.379 -2.9324 -0.1206 -1.0481
13879SOL    HW246485   5.144   2.523   2.244 -3.1272  1.5275 -0.4113
13880SOL     OW46486   5.496   4.873   3.369  0.5651 -0.4822 -0.1766
13880SOL    HW146487   5.590   4.881   3.360  0.5547  1.0594  0.8311
13880SOL    HW246488   5.483   4.827   3.452  0.4232  0.8060  0.5308
13881SOL     OW46489   3.429   2.566   4.084 -0.0120 -0.5061 -0.2516
13881SOL    HW146490   3.364   2.532   4.023  0.3379 -1.3799 -0.1545
13881SOL    HW246491   3.512   2.527   4.054  0.2871 -0.3004  0.2912
13882SOL     OW46492   6.681   5.652   6.273  0.4210  0.1933  0.1039
13882SOL    HW146493   6.686   5.708   6.196 -0.8094 -0.4845 -0.4909
13882SOL    HW246494   6.666   5.564   6.238 -2.0025  0.1233  1.1248
13883SOL     OW46495   5.875   2.561   4.794 -0.0337 -0.7167 -0.1124
13883SOL    HW146496   5.949   2.539   4.851 -0.3518 -0.5803  0.3531
13883SOL    HW246497   5.903   2.641   4.749 -0.5599  0.3033  1.3131
13884SOL     OW46498   1.572   5.784   4.476  0.2498  0.0646  0.1373
13884SOL    HW146499   1.564   5.820   4.388 -1.3236  1.4726  0.7946
13884SOL    HW246500   1.538   5.853   4.534  2.9008 -0.0772  2.0451
13885SOL     OW46501   6.410   5.886   2.434 -0.3307  0.7672 -0.2723
13885SOL    HW146502   6.497   5.924   2.451 -0.8809  1.8796  0.1222
13885SOL    HW246503   6.349   5.957   2.450 -1.4410 -0.4055  0.9404
13886SOL     OW46504   7.335   4.886   4.836 -0.6758  0.4144 -0.0188
13886SOL    HW146505   7.305   4.956   4.894 -2.8450  0.8910 -1.5496
13886SOL    HW246506   7.390   4.830   4.890  0.4855  2.8580  1.4688
13887SOL     OW46507   2.829   3.859   5.140 -0.2970 -0.4780  0.2632
13887SOL    HW146508   2.812   3.948   5.170  0.0371 -0.5946  0.8109
13887SOL    HW246509   2.747   3.831   5.100 -0.4168  0.0606  0.1294
13888SOL     OW46510   6.250   0.667   5.530 -0.3770 -0.0488 -0.9924
13888SOL    HW146511   6.313   0.739   5.530 -0.1023 -0.2596  0.5447
13888SOL    HW246512   6.164   0.711   5.531 -0.3104  0.2371 -3.1769
13889SOL     OW46513   7.472   5.702   3.393 -0.2212 -0.2822 -0.2835
13889SOL    HW146514   7.526   5.709   3.314  1.1764  2.3249  0.7906
13889SOL    HW246515   7.523   5.646   3.451  0.9549  1.3909  0.3646
13890SOL     OW46516   3.798   2.511   5.201 -0.0766  0.1047 -0.6036
13890SOL    HW146517   3.873   2.566   5.179 -0.7656  0.7502 -1.3934
13890SOL    HW246518   3.758   2.554   5.277  0.0186  0.0772 -0.5378
13891SOL     OW46519   5.307   1.769   3.967 -0.1883 -0.5101 -0.4087
13891SOL    HW146520   5.316   1.841   4.029 -0.7837 -0.0625 -0.8180
13891SOL    HW246521   5.376   1.707   3.991  0.6551  0.4191 -0.3493
13892SOL     OW46522   4.378   3.602   4.435  0.2056 -0.3373  0.1099
13892SOL    HW146523   4.283   3.610   4.446 -0.0191 -1.1563 -1.0265
13892SOL    HW246524   4.412   3.685   4.467 -0.8789 -0.0992  0.7152
13893SOL     OW46525   3.313   4.771   5.026  0.2473 -0.2716  0.0886
13893SOL    HW146526   3.223   4.787   4.999 -0.3251  0.0602  2.0354
13893SOL    HW246527   3.342   4.855   5.064  1.3961 -0.3598 -0.5429
13894SOL     OW46528   7.251   4.614   3.167  0.2596 -0.1027  0.1396
13894SOL    HW146529   7.295   4.563   3.235  0.8521  0.6997  0.3642
13894SOL    HW246530   7.316   4.676   3.136 -0.4173  0.4485 -0.2205
13895SOL     OW46531   3.413   2.918   4.156 -0.3461 -0.7075 -0.3220
13895SOL    HW146532   3.320   2.936   4.163 -0.5810 -2.0997  0.2868
13895SOL    HW246533   3.421   2.857   4.083 -0.1236 -1.9546  0.7179
13896SOL     OW46534   3.211   4.524   3.453  0.3559 -0.4555 -0.1143
13896SOL    HW146535   3.286   4.575   3.425 -0.0358  0.4364  0.4339
13896SOL    HW246536   3.190   4.468   3.378  0.7231  0.2620 -0.7571
13897SOL     OW46537   4.890   6.008   3.963  0.0623 -0.0734  0.1496
13897SOL    HW146538   4.962   6.062   3.995  0.8823 -1.0203 -0.0487
13897SOL    HW246539   4.920   5.976   3.878 -1.3919  1.0398 -0.8239
13898SOL     OW46540   7.787   7.429   7.189  0.5924  0.1201  0.1798
13898SOL    HW146541   7.821   7.500   7.244  0.8878 -1.1626  1.7303
13898SOL    HW246542   7.810   7.455   7.100  2.6138  0.9493  0.8831
13899SOL     OW46543   2.434   6.102   9.176  0.1970 -0.5460 -0.3290
13899SOL    HW146544   2.374   6.030   9.159  0.5667 -0.8153 -0.5251
13899SOL    HW246545   2.411   6.133   9.263 -0.1886 -0.6812 -0.3830
13900SOL     OW46546   4.815   2.379   3.106  0.4898 -0.2321 -0.2917
13900SOL    HW146547   4.901   2.387   3.147  1.1409  0.0430 -1.6376
13900SOL    HW246548   4.832   2.334   3.023 -0.2899  1.6540 -1.5612
13901SOL     OW46549   3.874   5.843   1.504 -0.0137 -0.6183  0.4831
13901SOL    HW146550   3.781   5.866   1.500  0.8706  4.1877  0.9759
13901SOL    HW246551   3.887   5.807   1.592 -1.1695  0.3978  1.0980
13902SOL     OW46552   4.570   3.503   2.926  0.2162 -0.1334 -0.3521
13902SOL    HW146553   4.595   3.457   3.006 -0.6723 -0.8954 -0.4876
13902SOL    HW246554   4.632   3.575   2.919  1.8200 -1.4297 -0.2445
13903SOL     OW46555   6.950   5.975   6.041 -0.2759 -0.3032  0.2008
13903SOL    HW146556   6.956   6.068   6.019 -0.5978 -0.3699 -0.1975
13903SOL    HW246557   7.038   5.951   6.070 -0.1117  0.0523  0.0006
13904SOL     OW46558   4.344   4.011   3.891 -0.1562  0.0481  0.2523
13904SOL    HW146559   4.347   3.917   3.875 -0.3877  0.4194 -2.4178
13904SOL    HW246560   4.434   4.040   3.880 -0.3990  0.3846 -1.0142
13905SOL     OW46561   5.180   6.825   1.701 -0.0263  0.0996  0.2148
13905SOL    HW146562   5.173   6.766   1.777 -0.0069  1.0784  0.9914
13905SOL    HW246563   5.132   6.904   1.727  0.7485  0.8027 -0.4465
13906SOL     OW46564   7.239   3.058   4.305  0.1081  0.3475 -0.3289
13906SOL    HW146565   7.267   2.966   4.313  1.1510  0.8081  3.5402
13906SOL    HW246566   7.179   3.071   4.378  0.3466  2.8618 -0.5091
13907SOL     OW46567   3.122   5.950   3.447 -0.1481  0.1628  0.9673
13907SOL    HW146568   3.085   5.964   3.534 -0.5327  1.6307  0.5958
13907SOL    HW246569   3.066   6.002   3.389  0.0748 -0.8203 -0.1724
13908SOL     OW46570   6.516   4.934   5.189 -0.0391  0.1571 -0.5319
13908SOL    HW146571   6.481   4.953   5.102  1.5802  0.7572 -1.0890
13908SOL    HW246572   6.608   4.912   5.174 -0.0576 -1.0880  0.8941
13909SOL     OW46573   3.603   2.480   6.667 -0.3221 -0.1907 -0.1639
13909SOL    HW146574   3.618   2.474   6.573 -1.2078 -1.2561 -0.2536
13909SOL    HW246575   3.508   2.485   6.676 -0.2678 -0.6198  0.7012
13910SOL     OW46576   3.756   5.008   1.242  0.1309 -0.0750 -0.2320
13910SOL    HW146577   3.840   5.022   1.199 -1.1924 -1.1871 -3.5268
13910SOL    HW246578   3.714   5.094   1.242  1.4931  0.6893  2.2741
13911SOL     OW46579   2.871   4.059   2.490  0.1739 -0.6573 -0.1440
13911SOL    HW146580   2.885   4.023   2.402 -0.2996  0.1522 -0.5706
13911SOL    HW246581   2.875   3.984   2.548  1.8588 -1.0486 -0.6978
13912SOL     OW46582   8.020   5.227   0.918 -0.0996 -0.3590 -0.2129
13912SOL    HW146583   8.032   5.313   0.878 -0.4400 -1.0103 -1.7783
13912SOL    HW246584   8.109   5.194   0.932  0.0319 -0.6961 -1.7494
13913SOL     OW46585   3.426   6.325   2.202  0.3013 -0.1711 -0.2825
13913SOL    HW146586   3.388   6.247   2.241  0.2717 -0.4037 -0.7716
13913SOL    HW246587   3.380   6.398   2.244  0.6847 -0.3946  0.5474
13914SOL     OW46588   6.720   6.277   4.224 -0.2176  0.2604 -0.2891
13914SOL    HW146589   6.700   6.183   4.227 -0.2988  0.3127  0.9975
13914SOL    HW246590   6.636   6.319   4.209 -0.1784  0.1345 -0.8914
13915SOL     OW46591   4.613   3.049   5.122  0.6766  0.1783 -0.1212
13915SOL    HW146592   4.648   3.063   5.034  1.2668  0.0368  0.0929
13915SOL    HW246593   4.689   3.052   5.180  0.3717 -0.3666  0.3189
13916SOL     OW46594   6.544   2.237   3.324  0.1343 -0.5887 -0.1335
13916SOL    HW146595   6.638   2.223   3.313 -0.0505 -0.5695 -1.9629
13916SOL    HW246596   6.505   2.154   3.298 -0.3908 -0.5319  0.4435
13917SOL     OW46597   5.897   4.485   3.835  0.4262 -0.0406  0.4576
13917SOL    HW146598   5.945   4.559   3.872 -1.5912  0.9252  1.2601
13917SOL    HW246599   5.829   4.465   3.899  1.1229 -2.8869  0.4500
13918SOL     OW46600   4.483   4.050   7.170  0.5080 -0.4050 -0.9426
13918SOL    HW146601   4.388   4.062   7.169  0.7678  2.4747 -0.8492
13918SOL    HW246602   4.499   3.975   7.113 -1.6935  0.4280 -2.8093
13919SOL     OW46603   5.871   5.337   3.541  0.0818  0.4855 -0.4293
13919SOL    HW146604   5.804   5.329   3.472  0.5455  0.0787 -0.8399
13919SOL    HW246605   5.873   5.251   3.582  1.5025 -0.0495 -1.5133
13920SOL     OW46606   4.438   4.800   3.058 -0.0473  0.3008 -0.1908
13920SOL    HW146607   4.438   4.761   2.971 -1.2261 -0.0615 -0.0315
13920SOL    HW246608   4.401   4.734   3.116 -0.1066  0.8686  0.4448
13921SOL     OW46609   5.723   3.864   2.667 -0.1475  0.0903 -0.0167
13921SOL    HW146610   5.699   3.840   2.577  0.1494 -0.8566  0.1478
13921SOL    HW246611   5.766   3.786   2.702 -0.6037  0.3073  1.0803
13922SOL     OW46612   3.691   4.449   3.995 -0.0976 -0.2045 -0.3448
13922SOL    HW146613   3.752   4.380   3.970 -0.3948 -0.9221  0.8415
13922SOL    HW246614   3.720   4.477   4.082  0.6620  1.9275 -1.2030
13923SOL     OW46615   4.035   3.270   2.718  0.3487 -0.3421 -0.1287
13923SOL    HW146616   4.085   3.242   2.641  1.8789  1.0833  0.2840
13923SOL    HW246617   4.035   3.366   2.712  0.1047 -0.2278  1.4038
13924SOL     OW46618   4.649   5.527   1.825 -0.1788  0.2914  0.1144
13924SOL    HW146619   4.641   5.445   1.777  0.0566 -0.7652  1.8009
13924SOL    HW246620   4.665   5.501   1.916  4.1018  2.0761  0.1549
13925SOL     OW46621   4.436   2.449   2.344 -1.0403  0.3440 -0.0829
13925SOL    HW146622   4.413   2.361   2.314  0.4914  0.1948 -0.9166
13925SOL    HW246623   4.460   2.437   2.436  1.3206 -0.5710 -0.7481
13926SOL     OW46624   6.756   3.517   1.657 -0.0110 -0.1909  0.1494
13926SOL    HW146625   6.670   3.503   1.617  1.3518 -1.6494 -2.6144
13926SOL    HW246626   6.775   3.609   1.642 -1.1030  0.1746  0.8881
13927SOL     OW46627   6.570   3.061   1.037 -0.5926  0.6911  0.0259
13927SOL    HW146628   6.621   3.011   0.973 -0.6182  0.1675  0.4075
13927SOL    HW246629   6.560   3.147   0.997 -3.2621 -0.4399 -2.1524
13928SOL     OW46630   6.165   4.488   4.268 -0.1028 -0.1266  0.1682
13928SOL    HW146631   6.251   4.522   4.244  0.1747 -1.8431 -1.4809
13928SOL    HW246632   6.104   4.558   4.247  0.8428  1.0867  1.2875
13929SOL     OW46633   2.512   3.990   5.723  0.4012 -0.0231  0.0893
13929SOL    HW146634   2.552   4.074   5.746  1.1274 -0.1883 -0.5370
13929SOL    HW246635   2.418   4.004   5.736  0.5123  0.8980 -0.0460
13930SOL     OW46636   5.380   2.808   1.676 -0.1979 -0.2572  0.8606
13930SOL    HW146637   5.403   2.890   1.633  1.6006 -0.3315  1.5915
13930SOL    HW246638   5.330   2.834   1.753 -0.7997  0.0506  0.3743
13931SOL     OW46639   5.886   5.881   2.226 -0.6596 -0.1738 -0.0573
13931SOL    HW146640   5.858   5.971   2.244 -0.6043 -0.5138  1.9636
13931SOL    HW246641   5.816   5.826   2.263 -0.7811 -0.9709 -1.4317
13932SOL     OW46642   0.896   1.247   3.293 -0.0549 -0.5185  0.0027
13932SOL    HW146643   0.837   1.242   3.218  0.9195 -0.3865 -0.7868
13932SOL    HW246644   0.892   1.339   3.321 -1.7905 -0.9249  1.2754
13933SOL     OW46645   1.759   3.339   3.751 -0.1479  0.0382  0.0541
13933SOL    HW146646   1.723   3.271   3.808  0.9813 -0.0428  0.6860
13933SOL    HW246647   1.737   3.309   3.662 -0.9069 -0.4173  0.3795
13934SOL     OW46648   3.935   2.166   4.724  0.7985 -0.1050  0.0862
13934SOL    HW146649   3.884   2.108   4.781  1.4698  1.2887  2.2309
13934SOL    HW246650   3.889   2.165   4.641 -0.7359 -1.5743  0.9000
13935SOL     OW46651   5.244   4.934   2.981  0.4179  0.3238  0.3138
13935SOL    HW146652   5.285   4.851   2.954  0.5483  0.3488  0.4325
13935SOL    HW246653   5.296   4.962   3.056 -0.1403  0.0954  0.7870
13936SOL     OW46654   6.833   5.078   5.928 -0.1210  0.1272 -0.1581
13936SOL    HW146655   6.787   5.102   5.848 -0.8875 -0.8141 -0.0201
13936SOL    HW246656   6.778   5.011   5.969  0.7103 -0.0692  0.6960
13937SOL     OW46657   5.912   6.156   3.342 -0.1476  0.1704 -0.0054
13937SOL    HW146658   5.865   6.205   3.274 -1.1392 -0.5494  0.1410
13937SOL    HW246659   5.843   6.116   3.395  0.6288 -0.8713  0.2596
13938SOL     OW46660   7.705   5.342   0.190  0.7994  0.4267 -0.7137
13938SOL    HW146661   7.726   5.308   0.103  0.3754 -0.2964 -0.5451
13938SOL    HW246662   7.789   5.348   0.235  0.7793 -1.7749 -0.2768
13939SOL     OW46663   3.268   3.023   2.575 -0.2591 -0.2574 -0.3575
13939SOL    HW146664   3.263   3.109   2.618  1.0818 -0.4677  0.2780
13939SOL    HW246665   3.267   3.044   2.481 -0.4231  0.4169 -0.2149
13940SOL     OW46666   8.640   5.120   3.799  0.5838 -0.2264  0.2507
13940SOL    HW146667   8.566   5.162   3.754  1.2949 -0.5896 -1.3362
13940SOL    HW246668   8.714   5.177   3.780  0.7202  0.2166  1.9588
13941SOL     OW46669   3.917   4.398   9.563  0.2255 -0.0830  0.0902
13941SOL    HW146670   3.902   4.416   9.470  1.0047  1.3392  0.1969
13941SOL    HW246671   3.851   4.451   9.608  0.6572  0.2238  0.3678
13942SOL     OW46672   6.420   6.960   1.900 -0.8132  0.2007  0.6055
13942SOL    HW146673   6.386   7.048   1.880 -0.0062  0.6313  1.0626
13942SOL    HW246674   6.484   6.944   1.831 -2.2311 -0.8002 -0.5204
13943SOL     OW46675   6.734   8.380   7.886 -0.3234  0.6077 -0.3769
13943SOL    HW146676   6.715   8.398   7.794 -1.0738 -1.1935 -0.6152
13943SOL    HW246677   6.655   8.408   7.932  0.6783  3.1022  0.0001
13944SOL     OW46678   4.612   4.839   2.219  0.3506 -0.1628  0.5928
13944SOL    HW146679   4.696   4.877   2.246  1.2646 -1.4975 -0.3070
13944SOL    HW246680   4.572   4.907   2.164  1.4870 -0.0643 -0.1400
13945SOL     OW46681   7.497   6.577   4.570  0.2022  0.2140 -0.2838
13945SOL    HW146682   7.576   6.571   4.624 -1.7292 -0.4426  2.7186
13945SOL    HW246683   7.453   6.656   4.602 -2.0627 -1.3834  0.7317
13946SOL     OW46684   2.682   4.512   1.841 -0.1565  0.6225  0.3690
13946SOL    HW146685   2.689   4.429   1.793 -0.4848 -0.2037  1.7100
13946SOL    HW246686   2.592   4.541   1.825 -0.4688  0.0201  0.9941
13947SOL     OW46687   7.550   3.673   5.657  0.0336 -0.1594 -0.2704
13947SOL    HW146688   7.510   3.661   5.743  2.7936  0.6110  1.2387
13947SOL    HW246689   7.640   3.644   5.668  0.2681 -0.8891 -3.1978
13948SOL     OW46690   3.014   4.230   6.533 -0.1111 -0.5144 -0.1589
13948SOL    HW146691   2.959   4.156   6.556  0.4288  0.0190  3.3308
13948SOL    HW246692   3.102   4.193   6.522 -0.3372 -0.7412 -1.3690
13949SOL     OW46693   6.099   3.265   5.883  0.7039 -0.3642 -0.1916
13949SOL    HW146694   6.193   3.247   5.892  0.8796  1.0404  1.1397
13949SOL    HW246695   6.074   3.302   5.967 -1.2132 -1.3293 -0.3015
13950SOL     OW46696   5.527   4.601   1.912 -0.3368  0.1846 -0.2607
13950SOL    HW146697   5.554   4.531   1.971  1.2373  0.5843 -0.4747
13950SOL    HW246698   5.558   4.681   1.953 -0.6698  0.6222 -0.8380
13951SOL     OW46699   0.999   3.909   5.155  0.2120 -0.3091 -0.1062
13951SOL    HW146700   1.003   3.967   5.232 -1.5554  0.2772 -0.4307
13951SOL    HW246701   0.999   3.821   5.192  2.0151 -0.1320  0.4279
13952SOL     OW46702   4.053   2.780   2.040 -0.2956  0.1843 -0.1634
13952SOL    HW146703   3.982   2.747   2.096 -1.5309 -0.7813 -2.1800
13952SOL    HW246704   4.015   2.856   1.996 -0.1968 -0.4665 -1.4214
13953SOL     OW46705   5.146   3.728   0.847 -0.3518  0.0235  0.0026
13953SOL    HW146706   5.137   3.731   0.942  4.1559  2.2045  0.6173
13953SOL    HW246707   5.217   3.667   0.830 -0.7439  0.0154 -1.9512
13954SOL     OW46708   6.110   6.628   2.353  0.0885 -0.5406  0.4325
13954SOL    HW146709   6.096   6.721   2.337  0.2354 -0.8616 -2.0579
13954SOL    HW246710   6.158   6.625   2.435 -0.3510  1.5396  0.8254
13955SOL     OW46711   6.957   5.310   5.080 -0.3210 -0.2509  0.3308
13955SOL    HW146712   7.040   5.299   5.033 -0.0249  0.2932  0.7225
13955SOL    HW246713   6.891   5.318   5.011  0.1705  1.0118 -0.0167
13956SOL     OW46714   8.353   2.488   3.152 -0.0728 -0.4445  1.0978
13956SOL    HW146715   8.420   2.485   3.220  0.3655  2.3851  0.9101
13956SOL    HW246716   8.298   2.562   3.176 -0.6079 -0.1040 -0.9914
13957SOL     OW46717   7.714   5.859   8.370  0.1737  0.4721 -0.3654
13957SOL    HW146718   7.679   5.944   8.345  0.1110  0.7737  0.6714
13957SOL    HW246719   7.809   5.872   8.375  0.4161 -0.1414 -2.4180
13958SOL     OW46720   8.357   4.824   3.231  0.0847 -0.4862 -0.6777
13958SOL    HW146721   8.289   4.847   3.296  0.6518  4.0499 -1.3382
13958SOL    HW246722   8.431   4.795   3.284 -0.0970  1.3262  0.6991
13959SOL     OW46723   2.055   3.276   5.273 -0.5200 -0.2624  0.0258
13959SOL    HW146724   1.988   3.327   5.319 -0.4673 -0.7831  0.6852
13959SOL    HW246725   2.138   3.316   5.301 -0.5186 -0.0643 -0.2523
13960SOL     OW46726   1.234   1.679   6.009 -0.7078  0.3549 -0.3084
13960SOL    HW146727   1.212   1.587   6.019 -0.6280  0.5090  1.7472
13960SOL    HW246728   1.153   1.726   6.030 -0.0719  0.7793  1.3753
13961SOL     OW46729   7.732   4.511   5.621  0.1070 -0.3828 -0.3360
13961SOL    HW146730   7.767   4.456   5.551 -0.7126  0.7858 -1.7379
13961SOL    HW246731   7.766   4.598   5.602 -2.1594  0.4802 -0.8285
13962SOL     OW46732   4.344   3.806   4.802 -0.1624  0.4851 -0.4964
13962SOL    HW146733   4.289   3.728   4.810  0.5051  0.1158  0.8910
13962SOL    HW246734   4.365   3.811   4.709  2.3458 -2.8550 -0.2926
13963SOL     OW46735   5.207   2.986   2.417  0.0171 -0.3855 -0.3907
13963SOL    HW146736   5.240   2.907   2.460  0.9373  0.1688 -0.0468
13963SOL    HW246737   5.184   3.045   2.489  0.9598  0.3006 -0.6305
13964SOL     OW46738   2.470   1.347   5.537 -0.4024  0.4274  0.4294
13964SOL    HW146739   2.398   1.336   5.599 -2.3085  1.0302 -1.5777
13964SOL    HW246740   2.536   1.395   5.587 -2.6026  2.5313  1.5500
13965SOL     OW46741   4.160   5.093   2.568 -0.2521 -0.2227 -0.5086
13965SOL    HW146742   4.076   5.127   2.539 -0.0590  0.7188 -0.0207
13965SOL    HW246743   4.149   5.080   2.663  1.1746  3.3695  0.3251
13966SOL     OW46744   5.133   1.335   4.855  0.2708 -0.0903 -0.2398
13966SOL    HW146745   5.168   1.423   4.844  0.8357 -0.5308 -2.2497
13966SOL    HW246746   5.202   1.287   4.902  0.4402  0.2318 -0.1585
13967SOL     OW46747   0.328   3.486   4.865  0.3789 -0.5523 -0.8429
13967SOL    HW146748   0.332   3.545   4.941  1.0216  0.8195 -1.8905
13967SOL    HW246749   0.394   3.419   4.883  0.1284 -0.5730  0.0590
13968SOL     OW46750   4.834   2.559   3.733  0.1083 -0.1160 -0.3515
13968SOL    HW146751   4.825   2.499   3.659  0.9742 -2.8597  1.6479
13968SOL    HW246752   4.746   2.565   3.770 -0.0905  0.3619 -0.8732
13969SOL     OW46753   6.695   7.011   6.656  0.0236  0.2551  0.4524
13969SOL    HW146754   6.707   7.104   6.675 -1.1051  0.3323  0.8685
13969SOL    HW246755   6.758   6.967   6.714 -0.5659  0.6876  1.4497
13970SOL     OW46756   2.666   4.579   3.558 -0.0753 -0.0078 -0.2779
13970SOL    HW146757   2.658   4.535   3.473  2.4884 -0.7451 -0.2164
13970SOL    HW246758   2.578   4.613   3.576 -1.2097 -1.7259 -2.1833
13971SOL     OW46759   3.554   4.645   0.766  0.0535  0.1382  0.5917
13971SOL    HW146760   3.588   4.708   0.703 -0.4771  0.5716  0.7345
13971SOL    HW246761   3.467   4.678   0.790 -0.0468 -0.4008  1.0105
13972SOL     OW46762   5.513   4.242   4.957  0.3936  0.4851 -0.2727
13972SOL    HW146763   5.598   4.200   4.945  0.1380 -0.0920 -0.0965
13972SOL    HW246764   5.458   4.175   4.997 -0.1390  0.8631 -0.3527
13973SOL     OW46765   3.299   3.284   4.937  0.3782 -0.1611 -0.1938
13973SOL    HW146766   3.340   3.205   4.902 -1.3153 -0.7235 -1.0099
13973SOL    HW246767   3.372   3.345   4.950  1.4795 -1.1660 -1.4043
13974SOL     OW46768   7.895   6.840   4.979 -0.0238 -0.6177 -0.6657
13974SOL    HW146769   7.966   6.831   5.042 -0.6011 -0.3647  0.0281
13974SOL    HW246770   7.887   6.934   4.965 -0.7067 -0.5956 -0.1725
13975SOL     OW46771   3.626   3.718   3.990 -0.5233  0.5967 -0.4559
13975SOL    HW146772   3.562   3.672   3.936 -0.3262 -0.5436  0.2520
13975SOL    HW246773   3.707   3.718   3.938  0.6487 -3.4308  1.0009
13976SOL     OW46774   7.133   2.318   3.617 -0.1393 -0.7197  0.5492
13976SOL    HW146775   7.146   2.296   3.709  0.5499  2.4977  1.3472
13976SOL    HW246776   7.170   2.406   3.608  0.4679 -1.1910 -2.9890
13977SOL     OW46777   7.307   5.084   5.017  0.3675  0.1204  0.0231
13977SOL    HW146778   7.268   5.072   5.104  0.9381 -1.0981  0.1286
13977SOL    HW246779   7.340   5.174   5.017 -0.2371  0.3511  0.8188
13978SOL     OW46780   6.764   7.203   1.890 -0.5352 -0.0941 -0.0032
13978SOL    HW146781   6.737   7.175   1.802  0.8547 -0.4109 -0.3575
13978SOL    HW246782   6.754   7.125   1.944 -2.6615  0.4377  0.4670
13979SOL     OW46783   5.035   4.117   2.293  0.4713  0.0144  0.8126
13979SOL    HW146784   5.062   4.034   2.331  0.8118 -2.0555 -3.4319
13979SOL    HW246785   5.107   4.177   2.314  3.1049 -2.3523 -0.6709
13980SOL     OW46786   1.952   3.888   2.650  0.1531 -0.2727 -0.4993
13980SOL    HW146787   1.961   3.800   2.688 -0.1613 -0.6350 -1.2360
13980SOL    HW246788   1.857   3.898   2.636  0.0636  0.6435  0.6251
13981SOL     OW46789   5.318   5.033   7.100  0.3406  0.1032  0.3476
13981SOL    HW146790   5.311   4.949   7.054  0.1130  0.5748 -0.4979
13981SOL    HW246791   5.233   5.075   7.085  0.0508  0.0283  1.6892
13982SOL     OW46792   3.769   3.634   4.219 -0.4312  0.3348 -0.0438
13982SOL    HW146793   3.715   3.606   4.294 -1.0290 -1.1565 -0.9731
13982SOL    HW246794   3.706   3.667   4.155 -0.0046  0.8647 -0.1945
13983SOL     OW46795   4.310   5.252   1.345 -0.8320 -0.6164 -0.2949
13983SOL    HW146796   4.296   5.340   1.310  0.5605 -0.1222  0.3184
13983SOL    HW246797   4.317   5.196   1.268 -1.0379 -0.0671 -0.7122
13984SOL     OW46798   1.721   4.131   5.532 -0.1600  0.5147 -0.3941
13984SOL    HW146799   1.729   4.058   5.593 -2.3048 -0.1370 -0.8145
13984SOL    HW246800   1.627   4.142   5.520  0.0971  3.3005 -0.4361
13985SOL     OW46801   4.679   2.350   0.919  0.5675  0.3493  0.2990
13985SOL    HW146802   4.758   2.312   0.959  0.6317 -0.7795 -0.8594
13985SOL    HW246803   4.654   2.288   0.851 -1.2746  0.7499  0.5608
13986SOL     OW46804   3.984   2.510   4.627  0.1357 -0.6608  0.2102
13986SOL    HW146805   3.893   2.497   4.600  0.4782 -0.2783 -1.2466
13986SOL    HW246806   4.035   2.477   4.553  1.1508  0.8925  0.1829
13987SOL     OW46807   2.723   0.978   6.431  0.0107 -0.0079 -0.5084
13987SOL    HW146808   2.809   0.956   6.468 -0.0129 -0.5633 -0.7684
13987SOL    HW246809   2.710   1.070   6.453  1.4830  0.6102 -1.9808
13988SOL     OW46810   3.595   4.040   5.227 -0.3507 -0.3364 -0.3015
13988SOL    HW146811   3.583   4.134   5.243  1.1858 -0.0034 -0.9420
13988SOL    HW246812   3.631   4.006   5.309 -2.2337 -0.6685  0.4235
13989SOL     OW46813   6.465   5.002   7.734  0.4798 -0.2961 -0.0008
13989SOL    HW146814   6.493   4.917   7.769 -0.0216 -0.8756 -0.9785
13989SOL    HW246815   6.537   5.030   7.678 -0.0134 -0.8388 -0.9285
13990SOL     OW46816   5.006   4.698   3.141 -0.4757  0.2905 -0.2477
13990SOL    HW146817   5.064   4.626   3.161  0.1751  0.7127 -0.5702
13990SOL    HW246818   4.992   4.743   3.224  0.8776  1.0652 -0.4113
13991SOL     OW46819   8.405   5.220   5.223 -0.2206 -0.8913  0.0843
13991SOL    HW146820   8.434   5.284   5.158 -2.1090 -0.1349 -0.0670
13991SOL    HW246821   8.347   5.161   5.175 -1.5031 -0.4276  1.0191
13992SOL     OW46822   1.568   5.463   3.506 -0.3254 -1.4017 -0.3761
13992SOL    HW146823   1.497   5.488   3.564  0.9591  1.4445  0.1653
13992SOL    HW246824   1.645   5.458   3.563  0.5211 -0.9204 -1.4418
13993SOL     OW46825   2.549   4.233   4.837  0.1554  0.5569 -0.0124
13993SOL    HW146826   2.611   4.260   4.769 -0.6347  0.9134 -0.6167
13993SOL    HW246827   2.517   4.148   4.808  0.1375  0.5138  0.1344
13994SOL     OW46828   4.563   2.547   4.411  0.3954  0.3274  0.2844
13994SOL    HW146829   4.533   2.471   4.360  1.7548 -0.1795  0.2046
13994SOL    HW246830   4.642   2.576   4.366 -0.8267  2.6947 -0.5117
13995SOL     OW46831   4.687   2.497   8.116  0.4430  0.1106 -0.5038
13995SOL    HW146832   4.696   2.547   8.035 -2.3243  1.3187 -0.1811
13995SOL    HW246833   4.615   2.436   8.098  0.0255  0.1594  0.9154
13996SOL     OW46834   6.033   6.802   4.832  0.3230  0.0246 -0.1498
13996SOL    HW146835   6.065   6.874   4.779  0.7447  0.0623  0.1465
13996SOL    HW246836   6.098   6.793   4.902 -0.6422  0.5098  0.8272
13997SOL     OW46837   3.812   6.110   2.460 -0.6718  0.4014  0.1826
13997SOL    HW146838   3.868   6.185   2.437 -1.7168  0.6804 -1.6696
13997SOL    HW246839   3.858   6.067   2.532  0.6708  2.0199  0.3595
13998SOL     OW46840   7.564   6.822   6.961  0.0429 -0.0383 -0.2196
13998SOL    HW146841   7.635   6.773   7.003 -0.0664  0.4261  0.5114
13998SOL    HW246842   7.554   6.901   7.013 -0.7107  0.1201 -0.5809
13999SOL     OW46843   6.700   4.840   4.630  0.1190  0.1977  0.0913
13999SOL    HW146844   6.668   4.913   4.577  0.9597  0.5617  0.0646
13999SOL    HW246845   6.664   4.762   4.588  0.2562  0.5236 -0.6350
14000SOL     OW46846   5.032   2.086   4.643  0.2180  0.5301  0.3318
14000SOL    HW146847   4.992   2.044   4.567 -0.7131  1.3887  0.3249
14000SOL    HW246848   5.093   2.150   4.606  1.3496 -0.5087  0.3408
14001SOL     OW46849   4.108   0.891   4.231  0.2153  0.4687 -0.0732
14001SOL    HW146850   4.106   0.981   4.265 -0.2488 -0.0077  1.2211
14001SOL    HW246851   4.042   0.890   4.162  0.9009  1.3593 -0.7758
14002SOL     OW46852   6.660   3.074   5.580  0.9677 -0.3178  0.5555
14002SOL    HW146853   6.722   3.128   5.628  0.3433  0.6992  0.2580
14002SOL    HW246854   6.696   3.069   5.491 -0.3129  2.0037 -0.2023
14003SOL     OW46855   4.404   3.796   3.421 -0.1330 -0.0791  0.2752
14003SOL    HW146856   4.351   3.725   3.385 -0.3235  0.5784 -0.7851
14003SOL    HW246857   4.445   3.758   3.499 -0.5275 -1.2287 -0.0560
14004SOL     OW46858   4.327   1.537   5.656  0.3147 -0.1997 -0.4352
14004SOL    HW146859   4.418   1.510   5.669  0.6596  0.5160 -1.2333
14004SOL    HW246860   4.331   1.597   5.581 -0.9802 -1.0893 -1.2553
14005SOL     OW46861   5.840   3.619   2.730  0.0973 -0.5009  0.5296
14005SOL    HW146862   5.856   3.602   2.637 -0.4671 -0.9029  0.5009
14005SOL    HW246863   5.926   3.610   2.771  0.6486  1.1717 -0.1610
14006SOL     OW46864   8.294   3.262   3.947 -0.5636  0.2554 -0.1866
14006SOL    HW146865   8.318   3.169   3.949 -1.0583  0.1223 -0.3200
14006SOL    HW246866   8.341   3.301   4.021  0.1154  0.0165 -0.4821
14007SOL     OW46867   5.869   5.080   3.716  0.2571  0.2469  0.2757
14007SOL    HW146868   5.882   5.107   3.807 -0.0471 -0.2832  0.4822
14007SOL    HW246869   5.802   5.012   3.721  1.0364 -0.5765 -0.2261
14008SOL     OW46870   6.082   3.067   8.974  0.1015  0.3454  0.5689
14008SOL    HW146871   6.137   3.061   8.896 -0.0112 -1.8973  0.6139
14008SOL    HW246872   6.028   3.145   8.960  0.8303  0.5786 -1.0865
14009SOL     OW46873   6.944   3.986   5.144 -0.5378 -0.3550  0.1079
14009SOL    HW146874   6.894   4.052   5.192  0.0939  0.1805  0.0490
14009SOL    HW246875   7.034   3.998   5.175  0.1610  0.9569 -2.2082
14010SOL     OW46876   6.027   3.763   0.065 -0.0825 -0.4159  0.2485
14010SOL    HW146877   6.099   3.773   0.129  0.1054 -0.9488  0.1198
14010SOL    HW246878   5.954   3.811   0.104 -0.2109 -1.3813  1.2434
14011SOL     OW46879   5.730   5.654   2.346 -0.2926  0.2618  0.0892
14011SOL    HW146880   5.654   5.706   2.375  0.9573  1.0456  2.1999
14011SOL    HW246881   5.768   5.620   2.427  3.4137  2.4948 -0.4622
14012SOL     OW46882   1.728   1.731   6.229  0.0205  0.1865 -0.2844
14012SOL    HW146883   1.652   1.787   6.220 -0.3423  0.0620  1.7249
14012SOL    HW246884   1.802   1.791   6.235 -0.1820  0.3989  0.1301
14013SOL     OW46885   2.174   4.473   8.397 -0.0629 -0.1298  0.0954
14013SOL    HW146886   2.122   4.506   8.324 -0.0069 -1.6707 -0.6935
14013SOL    HW246887   2.111   4.429   8.454  0.1378 -0.5536 -0.0040
14014SOL     OW46888   3.698   5.278   1.202  0.0373 -0.7633 -0.1363
14014SOL    HW146889   3.612   5.285   1.162  0.2835 -1.2235 -0.7531
14014SOL    HW246890   3.713   5.363   1.243 -1.1606 -1.0311  0.9113
14015SOL     OW46891   4.100   1.702   5.815 -0.7329 -0.0268 -0.6324
14015SOL    HW146892   4.015   1.696   5.772 -0.3318 -0.8116 -1.3453
14015SOL    HW246893   4.161   1.659   5.755  0.0257 -0.1990  0.2301
14016SOL     OW46894   6.251   5.431   3.609  0.0300  0.1414 -0.2259
14016SOL    HW146895   6.306   5.482   3.669 -0.6528 -0.9079  1.3603
14016SOL    HW246896   6.313   5.392   3.548  0.9153  0.2158  0.5961
14017SOL     OW46897   7.080   5.285   2.866 -0.3596 -0.6979 -0.0384
14017SOL    HW146898   7.009   5.261   2.806  0.2930 -1.4006 -0.5380
14017SOL    HW246899   7.160   5.259   2.821  0.1705 -0.8365  0.9510
14018SOL     OW46900   5.913   6.103   1.155  0.1874  0.1058 -0.5600
14018SOL    HW146901   5.904   6.060   1.241 -2.7724 -2.1088 -1.7983
14018SOL    HW246902   5.961   6.040   1.101  2.4203  1.6707 -0.5448
14019SOL     OW46903   3.811   3.503   5.795 -0.5964 -0.4360  0.4137
14019SOL    HW146904   3.854   3.582   5.829  1.6182 -1.7709  0.8598
14019SOL    HW246905   3.849   3.489   5.709 -1.8134 -0.4346 -0.1572
14020SOL     OW46906   3.950   6.368   2.382 -0.0503  0.1010  0.5613
14020SOL    HW146907   3.988   6.425   2.449  0.9403 -0.1334  0.2089
14020SOL    HW246908   3.888   6.425   2.335  1.1495  1.0043  0.0201
14021SOL     OW46909   4.384   2.807   3.032  0.1891  0.1246 -0.0499
14021SOL    HW146910   4.404   2.734   3.090  1.1691  1.3527  1.2244
14021SOL    HW246911   4.404   2.775   2.944 -1.2033 -1.7276  0.2657
14022SOL     OW46912   3.228   3.802   3.848 -0.1191 -0.0725 -0.1443
14022SOL    HW146913   3.226   3.883   3.797  1.4389 -0.1764 -0.4125
14022SOL    HW246914   3.137   3.787   3.873 -0.9008  0.1659 -2.6189
14023SOL     OW46915   4.623   2.014   6.863 -0.9275 -0.2383  0.2100
14023SOL    HW146916   4.529   2.018   6.880 -0.6638 -0.8211  2.0214
14023SOL    HW246917   4.662   2.062   6.936  0.1815  0.2744 -0.6926
14024SOL     OW46918   2.862   1.049   3.481 -0.4293  0.1483 -0.0258
14024SOL    HW146919   2.897   0.961   3.498 -1.8027 -0.7287 -1.4896
14024SOL    HW246920   2.846   1.085   3.568  0.4479 -0.9336  0.6069
14025SOL     OW46921   5.553   2.289   1.473 -0.3764 -0.7398 -0.8060
14025SOL    HW146922   5.602   2.273   1.554  0.0421 -0.4087 -0.9935
14025SOL    HW246923   5.502   2.209   1.460 -2.8451  0.3295  1.4353
14026SOL     OW46924   3.837   4.088   3.696 -0.2252  0.6599 -0.2189
14026SOL    HW146925   3.929   4.063   3.697  0.3945  2.5976 -1.9985
14026SOL    HW246926   3.829   4.156   3.762 -1.0893 -1.4051  1.9533
14027SOL     OW46927   6.237   3.650   1.621 -0.2460 -0.2829 -0.1774
14027SOL    HW146928   6.153   3.635   1.664 -0.9891  0.5892 -1.2473
14027SOL    HW246929   6.244   3.745   1.613  0.8244 -0.3416 -0.1520
14028SOL     OW46930   4.722   3.526   4.726 -0.5721 -0.1790 -0.0564
14028SOL    HW146931   4.690   3.539   4.637 -1.2407  0.3995  0.2579
14028SOL    HW246932   4.751   3.613   4.754  0.8753 -0.5875 -0.1583
14029SOL     OW46933   7.183   5.834   6.216 -0.3265  0.4914  0.5452
14029SOL    HW146934   7.168   5.802   6.305  0.1567 -0.7497  0.1932
14029SOL    HW246935   7.272   5.868   6.217  0.6173 -1.7699 -0.0499
14030SOL     OW46936   2.252   3.085   5.463  0.2548  0.1772 -0.5896
14030SOL    HW146937   2.262   3.070   5.369 -0.3746  0.3353 -0.6866
14030SOL    HW246938   2.197   3.163   5.469  0.0422 -0.0070 -0.0932
14031SOL     OW46939   6.239   6.161   2.431 -0.1678  0.6530  0.0866
14031SOL    HW146940   6.314   6.197   2.479  1.1064 -0.6211 -0.8532
14031SOL    HW246941   6.187   6.237   2.407  1.9352  1.8336 -1.0208
14032SOL     OW46942   2.273   4.867   5.295  0.2987  0.2628  0.1994
14032SOL    HW146943   2.354   4.883   5.342  0.7789 -1.5854  0.0702
14032SOL    HW246944   2.213   4.934   5.327  0.8401 -0.4071  2.8543
14033SOL     OW46945   6.833   7.477   4.369  0.0376  0.0586 -0.2565
14033SOL    HW146946   6.901   7.483   4.436  0.2850 -1.6667 -0.3053
14033SOL    HW246947   6.754   7.452   4.417  0.0779 -0.5958 -0.5203
14034SOL     OW46948   4.793   3.859   1.132 -0.2693 -0.0418 -0.5519
14034SOL    HW146949   4.852   3.805   1.185 -0.5249  0.4860  0.2984
14034SOL    HW246950   4.841   3.941   1.119  0.1898 -0.5187 -1.9868
14035SOL     OW46951   3.733   4.367   1.329 -0.2787  0.2626  0.0430
14035SOL    HW146952   3.742   4.456   1.295 -0.1451  0.3776  0.3736
14035SOL    HW246953   3.746   4.376   1.424  0.6273 -0.2281 -0.0185
14036SOL     OW46954   6.700   0.835   4.773 -0.1022 -0.3351  0.0999
14036SOL    HW146955   6.771   0.815   4.711  0.5027  0.4927  0.4963
14036SOL    HW246956   6.625   0.786   4.740  0.3546 -0.3506 -0.9738
14037SOL     OW46957   6.818   2.613   3.110  0.5566  0.4931  0.6536
14037SOL    HW146958   6.787   2.537   3.159 -1.0039  0.9388  0.4104
14037SOL    HW246959   6.808   2.687   3.170  0.0654  0.8185  0.1829
14038SOL     OW46960   5.177   6.163   2.477 -0.2589  0.3233 -0.1033
14038SOL    HW146961   5.121   6.229   2.519 -1.4534 -0.7511  0.0640
14038SOL    HW246962   5.247   6.213   2.437 -0.3433  1.5827  1.2256
14039SOL     OW46963   6.191   5.066   3.455  0.1276  0.1138 -0.1272
14039SOL    HW146964   6.161   5.068   3.364  0.3062  0.7861 -0.1779
14039SOL    HW246965   6.111   5.077   3.507  0.0582 -0.0012 -0.2097
14040SOL     OW46966   3.773   1.082   4.177  0.3655  0.1813  1.0294
14040SOL    HW146967   3.850   1.066   4.124 -0.2167 -4.0573  1.1690
14040SOL    HW246968   3.803   1.074   4.268 -0.0642 -0.6444  1.1058
14041SOL     OW46969   5.682   4.942   2.277 -0.0414  0.4375 -0.3845
14041SOL    HW146970   5.739   4.871   2.306 -1.4611  0.2480  2.3562
14041SOL    HW246971   5.739   5.018   2.272  0.9597 -0.2936 -0.5007
14042SOL     OW46972   6.358   3.886   5.225  0.1506 -0.4853  0.2021
14042SOL    HW146973   6.300   3.829   5.174 -0.4116 -2.5895  2.9901
14042SOL    HW246974   6.301   3.958   5.253  0.0255 -0.2448 -0.6327
14043SOL     OW46975   1.981   5.454   5.448  0.2723  0.0325 -0.5120
14043SOL    HW146976   2.023   5.505   5.379 -2.0114  1.9184 -0.6437
14043SOL    HW246977   1.974   5.514   5.522 -2.8613  0.1728 -0.8037
14044SOL     OW46978   5.354   3.704   4.840 -0.1338  0.0987 -0.1718
14044SOL    HW146979   5.329   3.648   4.767 -1.3089  1.4313 -0.8532
14044SOL    HW246980   5.420   3.654   4.887 -0.7157 -1.5921 -1.0594
14045SOL     OW46981   4.163   3.775   3.123 -0.1309 -0.3474  0.2842
14045SOL    HW146982   4.171   3.700   3.064  0.0078 -0.2289  0.1518
14045SOL    HW246983   4.082   3.759   3.173 -1.3228  0.5016 -1.2874
14046SOL     OW46984   7.068   2.410   4.667 -0.1530 -0.2377  0.2263
14046SOL    HW146985   7.029   2.363   4.741 -1.2641 -1.7952 -1.2684
14046SOL    HW246986   7.132   2.349   4.630 -1.2996 -0.4942 -1.4783
14047SOL     OW46987   4.192   4.608   1.897  0.0751  0.6176 -0.5096
14047SOL    HW146988   4.236   4.614   1.982 -2.0617  1.4058  0.6229
14047SOL    HW246989   4.250   4.556   1.843  1.2501 -0.3905  1.6261
14048SOL     OW46990   7.014   6.330   4.597  0.1446 -0.2209 -0.1501
14048SOL    HW146991   7.002   6.346   4.503 -0.4811 -1.9933 -0.4121
14048SOL    HW246992   7.069   6.403   4.627 -0.3084  0.8195 -1.7122
14049SOL     OW46993   4.779   1.821   3.348  0.2469 -0.0562  0.2971
14049SOL    HW146994   4.752   1.730   3.359 -0.1619 -0.7966 -4.7338
14049SOL    HW246995   4.723   1.869   3.409 -1.4128 -2.9213  1.2499
14050SOL     OW46996   4.617   4.589   3.891 -0.4820  0.6512 -0.4774
14050SOL    HW146997   4.556   4.585   3.964  0.9072  2.9497  0.9402
14050SOL    HW246998   4.599   4.673   3.849  1.0735  0.9649 -0.5721
14051SOL     OW46999   3.721   3.212   5.083 -0.4819 -0.1110  0.6429
14051SOL    HW147000   3.659   3.142   5.101 -1.3920  0.6960  0.7098
14051SOL    HW247001   3.674   3.272   5.024  0.5997 -0.0135 -0.1610
14052SOL     OW47002   3.437   3.247   6.069  0.2705  0.4575  0.3943
14052SOL    HW147003   3.490   3.304   6.013 -1.1104 -0.4092 -1.9206
14052SOL    HW247004   3.458   3.158   6.039 -0.4286 -0.0511  1.3633
14053SOL     OW47005   1.752   5.804   3.592 -0.0864 -0.2944  0.0636
14053SOL    HW147006   1.828   5.749   3.607 -0.2395 -0.6143 -0.3138
14053SOL    HW247007   1.707   5.764   3.518 -1.5997 -1.1405  1.3724
14054SOL     OW47008   4.188   6.482   3.051  0.4389 -0.2662  0.0786
14054SOL    HW147009   4.144   6.546   2.995  1.0681 -0.6668 -0.8974
14054SOL    HW247010   4.281   6.501   3.042  0.5649 -0.5110  0.7846
14055SOL     OW47011   5.282   3.013   5.309  0.0915  0.0101 -0.1398
14055SOL    HW147012   5.196   2.973   5.324  0.4605 -1.1211 -0.9158
14055SOL    HW247013   5.339   2.971   5.373  0.5030 -0.8087 -1.0254
14056SOL     OW47014   6.347   5.056   3.716 -0.0864 -0.3870  0.0280
14056SOL    HW147015   6.430   5.010   3.702  1.9240  2.7347  0.6790
14056SOL    HW247016   6.307   5.060   3.629  2.6374  1.7117 -1.2839
14057SOL     OW47017   6.740   2.757   3.999  1.0953  0.3690  0.2361
14057SOL    HW147018   6.731   2.693   3.928  0.2325 -0.9835  1.4893
14057SOL    HW247019   6.828   2.742   4.034  1.0428  0.1329  0.2692
14058SOL     OW47020   4.618   6.100   1.965 -0.1361  0.0194  0.2160
14058SOL    HW147021   4.565   6.027   1.934  0.3578 -0.3859  0.3091
14058SOL    HW247022   4.698   6.059   2.000  2.1166  0.7408 -3.5178
14059SOL     OW47023   5.892   4.403   4.653  0.2594  0.0439 -0.8386
14059SOL    HW147024   5.942   4.333   4.693  1.0205  1.6860  1.2631
14059SOL    HW247025   5.800   4.382   4.673  0.4124 -0.7890 -1.0089
14060SOL     OW47026   3.197   4.789   4.721 -0.9222  0.1002 -0.4692
14060SOL    HW147027   3.215   4.733   4.646 -0.8648  1.5152 -1.5619
14060SOL    HW247028   3.151   4.733   4.783  1.8080 -1.9884 -0.1468
14061SOL     OW47029   4.225   1.495   6.626  0.0847 -0.3111 -0.2012
14061SOL    HW147030   4.233   1.530   6.537  0.2402 -0.7121 -0.3470
14061SOL    HW247031   4.309   1.452   6.642  0.6777  1.1335  0.7484
14062SOL     OW47032   1.804   3.489   5.354 -0.3842  0.1539  0.1032
14062SOL    HW147033   1.781   3.406   5.313  0.8166  0.0294 -0.3813
14062SOL    HW247034   1.751   3.554   5.308  0.4087 -0.0759 -1.1768
14063SOL     OW47035   5.225   7.941   7.867 -0.3634 -0.5479 -0.1282
14063SOL    HW147036   5.192   7.990   7.942 -1.7668  1.3506 -1.8640
14063SOL    HW247037   5.261   8.009   7.809  2.0716 -2.0983 -0.5540
14064SOL     OW47038   6.697   5.394   6.133  0.3080  0.3042 -0.0935
14064SOL    HW147039   6.664   5.335   6.064 -0.4028 -0.6828  1.0498
14064SOL    HW247040   6.755   5.339   6.186 -2.0559 -0.0692  2.3054
14065SOL     OW47041   5.132   3.669   8.470 -0.2664  0.0551  0.1522
14065SOL    HW147042   5.093   3.653   8.556  0.7746  1.3078  0.9018
14065SOL    HW247043   5.224   3.685   8.489 -0.0053  0.2654 -1.2270
14066SOL     OW47044   5.681   5.358   7.158  0.3825 -0.3001 -0.6838
14066SOL    HW147045   5.683   5.267   7.129  3.4373 -0.5388 -0.0480
14066SOL    HW247046   5.738   5.360   7.235  0.0779  2.0838 -0.4341
14067SOL     OW47047   4.442   5.256   7.796 -0.5176 -0.7271  0.2393
14067SOL    HW147048   4.399   5.209   7.725  0.3897 -0.6507 -0.3802
14067SOL    HW247049   4.446   5.347   7.766 -1.6398 -0.3561  1.1310
14068SOL     OW47050   3.934   3.434   7.893 -0.0834 -0.0688 -0.0637
14068SOL    HW147051   4.024   3.402   7.887  0.3896  1.4093 -1.5725
14068SOL    HW247052   3.884   3.379   7.833  0.1630  0.2053 -0.5219
14069SOL     OW47053   7.248   5.569   6.130  0.4911  0.0701  0.3699
14069SOL    HW147054   7.330   5.570   6.081  0.9857  0.1546  1.1825
14069SOL    HW247055   7.226   5.661   6.142 -1.5367  0.1543 -2.7429
14070SOL     OW47056   2.948   8.068   8.427 -0.5098  0.4257  0.4282
14070SOL    HW147057   3.021   8.130   8.431 -0.0297 -0.1165  0.1939
14070SOL    HW247058   2.927   8.061   8.334  0.8251 -1.3437  0.2197
14071SOL     OW47059   6.456   6.882   7.757  0.0037 -0.3932 -0.6578
14071SOL    HW147060   6.511   6.854   7.830  0.0002 -1.3892 -1.0286
14071SOL    HW247061   6.482   6.972   7.741  0.4867 -0.3837  0.1233
14072SOL     OW47062   4.303   3.227   7.560 -0.0608  0.2807  0.0998
14072SOL    HW147063   4.347   3.289   7.501 -0.3347  0.4826  0.1063
14072SOL    HW247064   4.251   3.282   7.618  1.4170  0.2106  1.5835
14073SOL     OW47065   6.530   2.281   4.915 -0.2567 -0.3511  0.8675
14073SOL    HW147066   6.508   2.193   4.946  2.4894 -0.8532  1.6108
14073SOL    HW247067   6.517   2.337   4.991 -3.1873  0.2188  0.0855
14074SOL     OW47068   7.747   8.435   6.627 -0.1096 -0.0794  0.3225
14074SOL    HW147069   7.837   8.465   6.617 -0.2294 -0.2532 -1.7169
14074SOL    HW247070   7.753   8.360   6.686  0.9696  0.4015  0.8345
14075SOL     OW47071   6.267   3.565   9.209  0.0406  0.7175 -0.6519
14075SOL    HW147072   6.300   3.478   9.188  0.5918  1.1892 -1.7931
14075SOL    HW247073   6.206   3.586   9.138 -0.2560  1.1808 -0.2668
14076SOL     OW47074   2.370   3.616   7.622 -0.2120 -0.4391  0.3627
14076SOL    HW147075   2.404   3.702   7.595 -1.5580  1.0305  2.9795
14076SOL    HW247076   2.443   3.556   7.606 -0.3866  0.3171 -5.0302
14077SOL     OW47077   2.344   2.089   6.146 -0.2150  0.1385 -0.1236
14077SOL    HW147078   2.307   2.049   6.225 -0.5919 -0.5695 -0.6511
14077SOL    HW247079   2.272   2.090   6.083  1.0229 -2.9484 -1.7938
14078SOL     OW47080   2.891   4.985   7.508  0.6024  0.5284 -0.2136
14078SOL    HW147081   2.815   4.928   7.514 -0.1634  1.4590 -0.7927
14078SOL    HW247082   2.876   5.052   7.574  1.1429  0.4618 -0.0220
14079SOL     OW47083   4.814   2.461   5.094 -0.1579  0.4347 -0.1978
14079SOL    HW147084   4.909   2.466   5.081 -0.1109  1.3796  0.4450
14079SOL    HW247085   4.789   2.377   5.054  1.2984 -0.9997  1.7158
14080SOL     OW47086   8.738   3.480   7.262 -0.2749 -0.1047 -0.3105
14080SOL    HW147087   8.769   3.564   7.228 -1.6639  0.7006  0.3511
14080SOL    HW247088   8.796   3.462   7.336  0.4771 -0.0992 -0.8795
14081SOL     OW47089   2.213   4.079   6.830  0.0754  0.5775 -0.0154
14081SOL    HW147090   2.165   4.024   6.768  0.8718 -1.6894  1.2497
14081SOL    HW247091   2.277   4.126   6.777 -0.4817  0.1254 -1.1204
14082SOL     OW47092   7.116   5.524   6.672  0.7796 -0.1029  0.3525
14082SOL    HW147093   7.193   5.581   6.665 -0.2033  1.1443 -1.0838
14082SOL    HW247094   7.083   5.518   6.582 -1.7733  0.8236  1.1269
14083SOL     OW47095   3.019   3.477   5.961 -0.1716  0.0987  0.1345
14083SOL    HW147096   3.114   3.487   5.962  0.1279 -2.0623  1.6969
14083SOL    HW247097   2.985   3.566   5.973  1.6157  0.9184 -0.4813
14084SOL     OW47098   7.509   2.492   4.114  0.0686  0.2770 -0.4662
14084SOL    HW147099   7.553   2.548   4.049  0.1975 -0.5176 -1.0794
14084SOL    HW247100   7.417   2.516   4.107 -0.2206 -1.0811 -2.3236
14085SOL     OW47101   5.444   2.376   5.752  0.5370 -0.2428 -0.0204
14085SOL    HW147102   5.432   2.351   5.660  0.2902 -1.3569  0.2985
14085SOL    HW247103   5.497   2.456   5.748 -0.6432  0.5330 -1.1784
14086SOL     OW47104   3.083   3.102   7.673  0.0263  0.8783 -0.0100
14086SOL    HW147105   3.015   3.037   7.653  1.7208 -1.2959  0.7958
14086SOL    HW247106   3.073   3.118   7.767  0.1007  1.1935 -0.0549
14087SOL     OW47107   3.808   3.898   4.268  0.3641  0.1690 -0.1611
14087SOL    HW147108   3.832   3.915   4.177  1.7726 -0.0983  0.1395
14087SOL    HW247109   3.803   3.802   4.274 -1.0988  0.2050 -0.2611
14088SOL     OW47110   7.685   6.142   8.335  0.2297 -0.1491 -0.1296
14088SOL    HW147111   7.755   6.168   8.276  2.1749 -1.5423  1.4203
14088SOL    HW247112   7.668   6.220   8.388  0.3897  0.2859 -0.7085
14089SOL     OW47113   5.286   3.490   3.415 -0.3078  0.3071  0.0229
14089SOL    HW147114   5.274   3.581   3.386  2.7019  0.8261  0.1362
14089SOL    HW247115   5.320   3.445   3.338 -0.7687 -0.4887  0.2741
14090SOL     OW47116   3.310   3.155   4.438  0.1995 -0.5964  0.5632
14090SOL    HW147117   3.369   3.186   4.368  0.1979 -0.6599  0.5334
14090SOL    HW247118   3.361   3.088   4.484 -0.6483 -2.3136 -0.8831
14091SOL     OW47119   6.875   6.458   6.981  0.1406 -0.3470  0.3255
14091SOL    HW147120   6.833   6.525   6.927  0.3552 -0.1349  0.4217
14091SOL    HW247121   6.875   6.495   7.069 -0.6947 -0.9184  0.5726
14092SOL     OW47122   4.970   6.910   0.116  0.3324  0.2986  0.0660
14092SOL    HW147123   5.019   6.991   0.101 -0.5266  1.0187  0.9887
14092SOL    HW247124   4.926   6.924   0.200  0.5381 -1.3258  0.4658
14093SOL     OW47125   3.428   6.535   0.984  0.0083  0.2448  0.7741
14093SOL    HW147126   3.405   6.511   0.894  1.8916  1.3711 -0.0518
14093SOL    HW247127   3.381   6.472   1.038  1.4221 -2.6111 -1.1122
14094SOL     OW47128   6.347   5.444   7.347 -0.2693  0.1033 -0.2569
14094SOL    HW147129   6.318   5.450   7.256 -2.5714 -0.2209  0.3893
14094SOL    HW247130   6.275   5.479   7.398  0.5495 -0.6436  1.5157
14095SOL     OW47131   5.304   6.978   5.293 -0.2228  0.1730 -0.5382
14095SOL    HW147132   5.373   7.044   5.281  0.4473 -0.5669 -0.8105
14095SOL    HW247133   5.255   7.008   5.370  0.0476  1.0043 -0.6789
14096SOL     OW47134   2.567   2.728   9.026 -0.3191 -0.4525  0.4719
14096SOL    HW147135   2.514   2.730   9.106 -0.0624 -1.5826  0.6970
14096SOL    HW247136   2.509   2.691   8.960 -0.7614  1.1364 -0.0801
14097SOL     OW47137   3.315   4.870   5.681 -0.1662 -0.6472 -0.1244
14097SOL    HW147138   3.394   4.821   5.659 -0.1364 -0.6120 -0.0947
14097SOL    HW247139   3.330   4.957   5.644 -1.0369 -1.1981 -1.9201
14098SOL     OW47140   7.787   4.011   7.895 -0.2372 -0.0170  0.4954
14098SOL    HW147141   7.773   4.105   7.902 -3.1636 -0.4356  1.8025
14098SOL    HW247142   7.701   3.976   7.872  0.2501 -2.5289  2.1323
14099SOL     OW47143   5.301   2.594   7.250 -0.2382  0.3336  0.0792
14099SOL    HW147144   5.290   2.681   7.288 -1.1906 -0.7812  2.5471
14099SOL    HW247145   5.307   2.535   7.325  0.1098 -1.7873 -1.5070
14100SOL     OW47146   5.866   5.610   7.157 -0.1671  0.3632  0.4718
14100SOL    HW147147   5.833   5.521   7.144  0.1285  0.2661  0.3675
14100SOL    HW247148   5.903   5.609   7.245  0.9896  0.0090 -0.0008
14101SOL     OW47149   4.347   1.999   6.763  1.0280  0.2659  0.4791
14101SOL    HW147150   4.253   2.015   6.760  1.1800  1.0515 -0.3821
14101SOL    HW247151   4.382   2.044   6.686  1.9733 -0.9973  0.1415
14102SOL     OW47152   7.438   5.386   7.131  0.3592 -0.6410 -0.0968
14102SOL    HW147153   7.395   5.446   7.192 -1.2648  0.1389 -1.8981
14102SOL    HW247154   7.505   5.440   7.088  0.2148 -0.6457 -0.3318
14103SOL     OW47155   6.307   3.622   9.765  0.1348 -0.2171 -0.1843
14103SOL    HW147156   6.229   3.574   9.736  0.3901 -0.2998 -0.7627
14103SOL    HW247157   6.377   3.557   9.760  0.1169 -0.3376  1.0283
14104SOL     OW47158   3.118   3.790   7.806 -0.3578  0.6684 -0.6411
14104SOL    HW147159   3.049   3.808   7.871  0.1380  0.5573 -0.0687
14104SOL    HW247160   3.125   3.695   7.804 -0.5211  0.6644 -1.0222
14105SOL     OW47161   3.053   5.856   8.500 -0.2218 -0.0122 -0.4093
14105SOL    HW147162   2.967   5.824   8.526  1.7650 -3.0870  3.2983
14105SOL    HW247163   3.049   5.950   8.514 -2.3143 -0.3687  2.1694
14106SOL     OW47164   3.229   3.973   5.017 -0.1373  0.1955  0.4868
14106SOL    HW147165   3.175   3.897   5.039 -1.7006  0.8382 -0.9115
14106SOL    HW247166   3.232   4.025   5.097 -0.8250 -0.3129  0.8527
14107SOL     OW47167   5.121   4.503   7.464 -0.3020  0.6191 -0.4348
14107SOL    HW147168   5.212   4.476   7.462 -0.4944 -0.1684  0.4743
14107SOL    HW247169   5.100   4.509   7.557 -1.5068 -0.4621 -0.6013
14108SOL     OW47170   7.437   6.571   5.373  0.3111  0.0870  0.0416
14108SOL    HW147171   7.448   6.639   5.440  1.1280  0.0977 -0.0863
14108SOL    HW247172   7.503   6.505   5.396 -0.6410 -0.7912  0.3147
14109SOL     OW47173   4.249   3.088   5.889 -0.0514 -0.0906 -0.1852
14109SOL    HW147174   4.215   3.147   5.956  0.3826 -0.1071  0.0574
14109SOL    HW247175   4.172   3.038   5.860  0.0473 -1.4451  1.6923
14110SOL     OW47176   9.009   6.829   8.885 -0.2533 -0.4070  0.0189
14110SOL    HW147177   9.049   6.882   8.816  0.2394  0.2756  0.8101
14110SOL    HW247178   8.915   6.837   8.870 -0.1476 -1.2712 -1.3003
14111SOL     OW47179   6.579   0.862   4.432  0.2198 -0.0378  0.2139
14111SOL    HW147180   6.552   0.807   4.505 -1.3664 -0.3906 -0.5824
14111SOL    HW247181   6.528   0.943   4.443 -0.1254 -0.1421 -0.5382
14112SOL     OW47182   1.500   3.843   8.940 -0.0111 -0.2105 -0.2090
14112SOL    HW147183   1.468   3.810   9.023  2.8495  0.6267  1.3797
14112SOL    HW247184   1.425   3.837   8.880 -2.5191  0.1944  2.6787
14113SOL     OW47185   0.483   5.887   4.572  0.2033  0.2848  0.1752
14113SOL    HW147186   0.561   5.859   4.619  0.4536  0.3984 -0.1675
14113SOL    HW247187   0.450   5.962   4.621  1.0760  1.0918 -0.4168
14114SOL     OW47188   5.699   4.024   8.802  0.0877  0.0336 -0.5104
14114SOL    HW147189   5.737   4.105   8.768  0.2304  0.3486  0.3606
14114SOL    HW247190   5.677   4.045   8.893  0.5316 -1.0303 -0.1398
14115SOL     OW47191   5.007   4.985   9.519  0.4336  0.4419  0.3849
14115SOL    HW147192   4.917   4.990   9.553  0.2134  0.5611 -0.2051
14115SOL    HW247193   5.000   4.927   9.443  1.5005 -2.5847  2.4092
14116SOL     OW47194   7.167   6.025   4.598  0.3971  0.1163 -0.0469
14116SOL    HW147195   7.086   6.055   4.558  0.2924 -0.0313  0.0520
14116SOL    HW247196   7.207   5.969   4.531 -0.1604 -0.7634  0.3371
14117SOL     OW47197   4.387   3.648   7.488  0.3810  0.6867  0.1703
14117SOL    HW147198   4.381   3.720   7.425 -1.6454  1.4039  1.0677
14117SOL    HW247199   4.340   3.680   7.565  1.0914 -0.8950  1.3154
14118SOL     OW47200   3.370   0.662   4.337 -0.2040 -0.1549 -0.3902
14118SOL    HW147201   3.388   0.578   4.380  0.0535 -1.2031 -2.3881
14118SOL    HW247202   3.363   0.640   4.244 -2.3623  1.7137 -0.7681
14119SOL     OW47203   4.284   1.940   7.064  0.0465 -0.2574  0.3372
14119SOL    HW147204   4.251   2.029   7.052  1.4146  0.1146 -0.9431
14119SOL    HW247205   4.330   1.920   6.982 -0.4628 -2.2564  0.4942
14120SOL     OW47206   5.947   0.527   5.250  0.0846 -0.0652  0.2440
14120SOL    HW147207   5.927   0.457   5.312 -0.5867  1.0962  1.3734
14120SOL    HW247208   6.034   0.505   5.216  0.5357 -0.6392  1.7148
14121SOL     OW47209   4.523   6.987   6.390  0.1987  0.2207 -0.2382
14121SOL    HW147210   4.462   7.055   6.362  0.5745  1.9362  2.7532
14121SOL    HW247211   4.610   7.026   6.380  0.4629 -0.0649  0.8089
14122SOL     OW47212   1.845   6.594   6.793  0.3208  0.0604  0.2155
14122SOL    HW147213   1.930   6.555   6.776 -0.7212 -2.3771  0.1991
14122SOL    HW247214   1.826   6.646   6.715  0.5315 -1.8291 -1.1625
14123SOL     OW47215   2.209   4.271   4.128 -0.5601  0.2990  0.4306
14123SOL    HW147216   2.285   4.227   4.166  1.4463  1.8735 -1.4891
14123SOL    HW247217   2.183   4.215   4.055 -1.5565 -0.4568  1.3461
14124SOL     OW47218   2.075   2.967   7.385  0.0540 -0.3839  1.0952
14124SOL    HW147219   2.029   2.975   7.301  0.6326  0.0100  0.8067
14124SOL    HW247220   2.162   3.003   7.368  0.9896 -2.4420  1.2083
14125SOL     OW47221   6.131   3.419   7.875  0.0159  0.0111  0.1103
14125SOL    HW147222   6.191   3.412   7.949 -0.3766 -2.3601  0.3122
14125SOL    HW247223   6.057   3.470   7.908 -0.4201 -1.4923  1.6242
14126SOL     OW47224   3.605   6.813   7.071  0.4843  0.7550 -0.1713
14126SOL    HW147225   3.690   6.851   7.049  1.1353  0.2863  1.4450
14126SOL    HW247226   3.588   6.840   7.161 -0.1872 -0.7321  0.1820
14127SOL     OW47227   7.013   2.720   6.336  0.1349  0.6147 -0.3124
14127SOL    HW147228   7.098   2.752   6.366  0.7404 -0.2785 -1.0087
14127SOL    HW247229   6.974   2.795   6.291  0.7541  0.9153 -0.3627
14128SOL     OW47230   6.384   5.735   7.891 -0.0433 -0.2487  0.2222
14128SOL    HW147231   6.359   5.796   7.821  2.9544  0.8165 -0.0655
14128SOL    HW247232   6.477   5.752   7.905 -0.2072 -1.4413  3.5121
14129SOL     OW47233   4.426   2.810   6.722  0.8315  0.4212  0.4014
14129SOL    HW147234   4.349   2.764   6.688  0.3105  0.8513  0.9940
14129SOL    HW247235   4.410   2.902   6.702  1.1848  0.5126  0.5394
14130SOL     OW47236   3.306   2.813   5.715  0.1795  0.2636 -0.2828
14130SOL    HW147237   3.287   2.809   5.809  2.1981  1.8767  0.2621
14130SOL    HW247238   3.361   2.736   5.698 -1.9842 -1.2855 -0.6926
14131SOL     OW47239   7.017   2.233   6.421  0.1254 -0.0935  0.5007
14131SOL    HW147240   7.038   2.305   6.361 -0.6913  0.3840  0.7641
14131SOL    HW247241   7.098   2.183   6.428  0.3902  0.1532 -0.5743
14132SOL     OW47242   2.852   6.384   4.962 -0.5979  0.1567  0.1293
14132SOL    HW147243   2.921   6.377   5.028  0.5193 -0.8832 -1.0773
14132SOL    HW247244   2.772   6.357   5.008  0.2401 -1.0790  0.9377
14133SOL     OW47245   5.557   2.604   0.514 -0.3514  0.4063  0.5288
14133SOL    HW147246   5.585   2.543   0.584 -1.6639  0.3254  1.0110
14133SOL    HW247247   5.463   2.617   0.530 -0.0924  2.6371  0.4796
14134SOL     OW47248   6.484   3.791   6.475 -0.8715 -0.4212 -0.0135
14134SOL    HW147249   6.504   3.836   6.557  0.1793  1.0337 -1.0208
14134SOL    HW247250   6.489   3.698   6.498 -2.3762 -0.0788  1.9530
14135SOL     OW47251   6.695   6.052   8.496 -0.8242  0.1506 -0.2240
14135SOL    HW147252   6.735   6.039   8.582 -0.0367  2.3611 -0.1873
14135SOL    HW247253   6.636   6.127   8.507 -0.9499  0.2779 -1.5251
14136SOL     OW47254   7.315   5.957   8.027 -0.3518 -0.4604  0.0324
14136SOL    HW147255   7.290   6.035   7.978  0.9791 -0.0893 -0.0916
14136SOL    HW247256   7.402   5.977   8.062  0.9615 -2.6249 -1.7256
14137SOL     OW47257   4.001   6.404   7.551 -0.2978 -0.3745  0.2682
14137SOL    HW147258   3.930   6.344   7.574 -2.4019  1.1868 -1.6760
14137SOL    HW247259   4.073   6.380   7.610 -3.0076 -0.8254  3.6735
14138SOL     OW47260   5.782   2.346   6.551  0.0131  0.1506 -0.6242
14138SOL    HW147261   5.800   2.259   6.513  3.1401  0.3919  0.0840
14138SOL    HW247262   5.859   2.398   6.529 -0.6373  1.9973  1.1903
14139SOL     OW47263   4.039   3.927   4.999 -0.2542 -0.6125  0.1824
14139SOL    HW147264   4.124   3.972   4.997 -1.2489  1.3950  0.4467
14139SOL    HW247265   4.047   3.859   4.933  1.3642 -0.0770 -0.2324
14140SOL     OW47266   4.928   2.972   7.359 -0.3542  0.0931 -0.0871
14140SOL    HW147267   4.896   2.916   7.288  1.0181 -0.7935 -0.0471
14140SOL    HW247268   5.017   2.996   7.332 -0.5752  1.4792  0.3584
14141SOL     OW47269   4.785   3.940   7.321 -0.1865 -0.1933  0.3795
14141SOL    HW147270   4.847   3.905   7.385  2.9443  1.7320 -1.3382
14141SOL    HW247271   4.769   4.030   7.349  1.0073  0.5846 -1.2437
14142SOL     OW47272   4.901   3.179   2.921  0.3367  0.4207 -0.7910
14142SOL    HW147273   4.817   3.213   2.951  1.6212  2.4614  0.7819
14142SOL    HW247274   4.906   3.091   2.957  0.3919  1.6084  2.4437
14143SOL     OW47275   6.311   6.543   5.193 -0.2366  0.6489 -0.3053
14143SOL    HW147276   6.351   6.462   5.163 -1.8293  0.2219 -1.3742
14143SOL    HW247277   6.384   6.605   5.201  0.8162 -0.5177 -0.6927
14144SOL     OW47278   6.730   3.712   5.936 -0.0294  0.3541  0.4515
14144SOL    HW147279   6.783   3.791   5.928  2.0996 -0.9177  1.1669
14144SOL    HW247280   6.714   3.684   5.846 -0.4295  1.3323  0.2074
14145SOL     OW47281   4.939   7.103   8.728 -0.6778  1.1785 -0.2878
14145SOL    HW147282   4.870   7.168   8.715 -0.5589  1.3405 -0.1205
14145SOL    HW247283   4.950   7.063   8.642 -1.4771  0.6433 -0.1485
14146SOL     OW47284   6.221   4.045   3.800 -0.0858 -0.1176 -0.2645
14146SOL    HW147285   6.200   4.138   3.798  1.0887  0.1805  0.4387
14146SOL    HW247286   6.295   4.038   3.861 -1.2027 -1.7125  0.9913
14147SOL     OW47287   6.368   4.306   6.195 -0.3938 -0.4239  0.2057
14147SOL    HW147288   6.293   4.247   6.203 -2.2032  1.9115  1.4689
14147SOL    HW247289   6.382   4.314   6.100 -0.3048 -2.5407 -0.0112
14148SOL     OW47290   8.067   3.376   6.091  0.1908  0.1562 -0.0963
14148SOL    HW147291   8.163   3.370   6.096  0.1354 -2.4790 -0.7102
14148SOL    HW247292   8.041   3.298   6.042 -2.2883  0.8760 -0.0384
14149SOL     OW47293   2.579   3.746   6.483  0.0697  0.1244 -0.1718
14149SOL    HW147294   2.583   3.699   6.400  0.7222  1.6873 -1.0725
14149SOL    HW247295   2.614   3.833   6.463  0.5009  0.4617  1.7990
14150SOL     OW47296   5.450   2.681   6.169  0.3596 -0.2443 -0.2379
14150SOL    HW147297   5.444   2.727   6.085 -0.1818 -0.4392 -0.3101
14150SOL    HW247298   5.425   2.591   6.149  1.4460 -0.5865 -0.1021
14151SOL     OW47299   6.209   4.380   9.065 -0.3138  0.6040  0.2205
14151SOL    HW147300   6.129   4.336   9.037  1.4017 -2.0461 -0.9086
14151SOL    HW247301   6.191   4.405   9.156 -2.3898  0.0968  0.0084
14152SOL     OW47302   8.744   4.517   0.059  0.3563  0.5349  0.3166
14152SOL    HW147303   8.740   4.445   0.122 -1.7796  0.2335 -0.0814
14152SOL    HW247304   8.827   4.504   0.014  0.8787 -0.5750  1.5156
14153SOL     OW47305   5.139   5.990   9.217 -0.0166  0.0822  0.2007
14153SOL    HW147306   5.061   6.044   9.231 -0.4817 -0.7276  0.8386
14153SOL    HW247307   5.140   5.930   9.291  0.0017 -1.3515 -0.9198
14154SOL     OW47308   6.474   4.574   6.143  1.2208 -0.2264 -0.7767
14154SOL    HW147309   6.456   4.486   6.176  2.6295 -0.8075 -1.4980
14154SOL    HW247310   6.476   4.564   6.048 -1.1684  1.1166 -1.0551
14155SOL     OW47311   7.294   1.695   9.815 -0.3955 -0.1332 -0.4146
14155SOL    HW147312   7.279   1.758   9.744  0.6865  1.3721  0.6340
14155SOL    HW247313   7.207   1.683   9.855 -0.3449  2.3558  0.6444
14156SOL     OW47314   3.811   5.251   7.027  0.3558  0.1202  0.2471
14156SOL    HW147315   3.723   5.275   7.001  0.5048  0.1759 -0.2263
14156SOL    HW247316   3.830   5.303   7.105  0.2191  0.6047 -0.0430
14157SOL     OW47317   5.779   7.412   5.559  0.5820  0.3208  0.1830
14157SOL    HW147318   5.747   7.333   5.603  0.9471 -0.3316 -0.6820
14157SOL    HW247319   5.711   7.435   5.496  1.3343 -0.5174 -0.9934
14158SOL     OW47320   3.663   4.320   6.939 -0.4373 -0.2596  0.0331
14158SOL    HW147321   3.668   4.277   7.025 -0.5764  0.8904  0.6425
14158SOL    HW247322   3.707   4.260   6.879 -0.9981 -1.4338  0.7643
14159SOL     OW47323   6.607   4.025   5.176 -0.5742  0.1413  0.5557
14159SOL    HW147324   6.558   3.947   5.203 -0.2782  0.2214  1.3609
14159SOL    HW247325   6.596   4.028   5.081 -0.3884 -1.0244  0.4713
14160SOL     OW47326   3.960   6.355   7.867 -0.2119  0.8001  0.3900
14160SOL    HW147327   3.892   6.406   7.910 -0.0617  1.0430  0.3393
14160SOL    HW247328   4.042   6.389   7.903  0.0754  2.6678 -1.8000
14161SOL     OW47329   1.234   7.343   6.520  0.0558  0.9673  0.0314
14161SOL    HW147330   1.305   7.380   6.572  0.9337 -2.1736  1.3090
14161SOL    HW247331   1.278   7.307   6.442 -0.8661  3.0220 -1.5450
14162SOL     OW47332   5.137   4.247   3.675  0.0561  1.0852 -0.0223
14162SOL    HW147333   5.156   4.322   3.732  1.5597  1.0887 -0.4781
14162SOL    HW247334   5.197   4.257   3.601  0.3855 -0.6086 -0.0388
14163SOL     OW47335   3.592   4.030   3.188  0.5882 -0.2790  0.2058
14163SOL    HW147336   3.607   3.955   3.246 -1.1777 -1.3178 -0.6126
14163SOL    HW247337   3.583   4.104   3.247 -0.7003 -1.2296  1.2689
14164SOL     OW47338   5.614   6.961   0.526  0.0219 -0.1507  0.4031
14164SOL    HW147339   5.577   6.978   0.613 -1.7647  0.3176 -0.3907
14164SOL    HW247340   5.621   7.048   0.486 -2.4083 -0.5232 -1.0897
14165SOL     OW47341   6.166   2.111   4.821 -0.5706  0.4203  0.0338
14165SOL    HW147342   6.100   2.043   4.836 -1.0266  1.0310  0.8948
14165SOL    HW247343   6.240   2.065   4.782 -1.4149 -0.3170 -0.7515
14166SOL     OW47344   6.742   5.937   0.340 -0.1826 -0.7742  0.9496
14166SOL    HW147345   6.786   5.860   0.303 -1.0357 -2.8036  3.7733
14166SOL    HW247346   6.790   5.954   0.421 -1.4989  0.1956  1.5439
14167SOL     OW47347   3.426   5.244   8.147  0.0358 -0.4041 -0.2490
14167SOL    HW147348   3.362   5.193   8.098 -1.7812 -0.4130  1.9296
14167SOL    HW247349   3.451   5.188   8.220  1.9792 -0.0778 -0.6207
14168SOL     OW47350   7.183   3.430   7.618  0.0856 -0.5992  0.0681
14168SOL    HW147351   7.240   3.472   7.554 -1.6042  0.7735 -0.5833
14168SOL    HW247352   7.152   3.502   7.674 -1.6756 -1.1653 -0.1248
14169SOL     OW47353   4.262   4.603   9.067 -0.2876  0.0311 -0.1422
14169SOL    HW147354   4.229   4.583   8.979 -0.9220  0.9659 -0.1325
14169SOL    HW247355   4.307   4.687   9.058 -0.5443  0.2411  0.4720
14170SOL     OW47356   3.293   4.356   7.628  0.0553 -0.2767 -0.4055
14170SOL    HW147357   3.240   4.375   7.706 -1.0956 -1.8125 -0.7712
14170SOL    HW247358   3.257   4.275   7.594  0.1850  0.6204 -2.8632
14171SOL     OW47359   5.437   6.545   9.226  0.4874  0.1304  0.1833
14171SOL    HW147360   5.532   6.548   9.239  0.6641 -0.3191 -0.9104
14171SOL    HW247361   5.423   6.465   9.175 -0.3993  0.5899 -0.3040
14172SOL     OW47362   3.694   2.444   4.609  0.0030 -0.1358  0.0288
14172SOL    HW147363   3.688   2.416   4.518 -0.3060  1.5984 -0.5290
14172SOL    HW247364   3.611   2.418   4.649 -0.3724  0.1807 -0.5326
14173SOL     OW47365   3.793   4.116   3.429  0.4843  0.0101  0.3730
14173SOL    HW147366   3.830   4.107   3.517 -1.5572 -0.8884  1.2169
14173SOL    HW247367   3.840   4.051   3.377  0.2772 -0.9429  1.3391
14174SOL     OW47368   4.552   5.512   7.082 -0.2298 -0.1650 -0.2829
14174SOL    HW147369   4.575   5.466   7.162  0.8485  2.1390  0.8018
14174SOL    HW247370   4.469   5.472   7.055 -0.3720 -1.3344  1.6905
14175SOL     OW47371   7.939   4.710   8.365 -0.1291 -0.3921  0.3388
14175SOL    HW147372   7.938   4.797   8.327  1.6465 -1.5012 -2.6082
14175SOL    HW247373   7.862   4.666   8.329  0.1043 -0.6445  0.1403
14176SOL     OW47374   7.388   7.986   7.205 -0.0774 -0.0283  0.1062
14176SOL    HW147375   7.345   7.945   7.130 -1.0278 -1.7076  1.4818
14176SOL    HW247376   7.410   7.912   7.263 -0.7919  1.3008  2.1737
14177SOL     OW47377   7.607   4.104   5.625 -0.1728  0.0502  0.7561
14177SOL    HW147378   7.583   4.189   5.661 -1.4464 -0.4537  1.1701
14177SOL    HW247379   7.561   4.100   5.541  0.0237 -0.1478  0.6579
14178SOL     OW47380   2.874   2.434   9.645 -0.1606 -0.2416 -0.5309
14178SOL    HW147381   2.791   2.481   9.648 -0.0467 -0.0755  1.0875
14178SOL    HW247382   2.853   2.350   9.605 -1.0140 -0.0306 -0.5382
14179SOL     OW47383   5.275   6.806   8.776  0.4145 -0.0380 -0.6352
14179SOL    HW147384   5.248   6.750   8.849 -2.4440  0.0395 -1.4881
14179SOL    HW247385   5.350   6.856   8.809  0.7574 -1.7662  1.3564
14180SOL     OW47386   4.834   3.048   6.887  0.3366  0.2480 -0.1380
14180SOL    HW147387   4.843   3.033   6.793  1.0051  1.4417 -0.2841
14180SOL    HW247388   4.821   2.960   6.924 -0.2158 -0.2098 -1.3626
14181SOL     OW47389   3.602   6.554   7.301  0.3436  0.0353  0.4944
14181SOL    HW147390   3.647   6.508   7.230 -0.0582 -1.4009  1.1276
14181SOL    HW247391   3.668   6.616   7.334  1.0502 -0.3657 -0.1103
14182SOL     OW47392   6.852   3.678   7.833  0.2661  0.3791  0.5531
14182SOL    HW147393   6.764   3.714   7.820 -0.3932 -1.1530  0.5129
14182SOL    HW247394   6.843   3.585   7.813  1.5834 -0.0835  1.9214
14183SOL     OW47395   1.541   2.911   7.153  0.2156 -0.5850 -0.2382
14183SOL    HW147396   1.453   2.932   7.185  0.0403  0.0098 -1.0679
14183SOL    HW247397   1.600   2.938   7.224 -0.1413  0.9534 -0.5003
14184SOL     OW47398   7.196   3.781   5.728  0.6420 -0.1676 -0.0619
14184SOL    HW147399   7.141   3.780   5.650  0.1856  0.1739  0.2452
14184SOL    HW247400   7.219   3.874   5.739  2.2862 -0.4429 -0.8717
14185SOL     OW47401   7.489   4.328   5.706 -0.3648  0.3931 -0.2256
14185SOL    HW147402   7.516   4.419   5.703  1.0642  0.0016 -0.0685
14185SOL    HW247403   7.430   4.322   5.781  0.5894  0.9298  0.5866
14186SOL     OW47404   4.364   7.027   7.910 -0.5854  0.1100  0.5484
14186SOL    HW147405   4.423   6.991   7.843 -0.1944  0.2121  0.8335
14186SOL    HW247406   4.377   7.122   7.903  1.4540  0.0632  2.5173
14187SOL     OW47407   3.442   2.106   5.473 -0.1372 -0.2914 -0.3098
14187SOL    HW147408   3.424   2.095   5.566  0.7906  0.0642 -0.0774
14187SOL    HW247409   3.474   2.021   5.444 -0.8781 -0.5394 -0.4212
14188SOL     OW47410   2.581   3.831   7.824 -0.5865 -0.7209 -0.0900
14188SOL    HW147411   2.652   3.780   7.785  0.1095 -0.1841  0.4465
14188SOL    HW247412   2.578   3.911   7.772  0.4046  0.0377  0.9697
14189SOL     OW47413   7.356   7.570   6.788  0.1452  0.0566  0.0827
14189SOL    HW147414   7.450   7.590   6.786 -0.0078  0.7285 -0.5457
14189SOL    HW247415   7.349   7.498   6.851  0.9777  0.5308  0.7459
14190SOL     OW47416   4.871   5.183   7.784 -0.4322  0.4680 -0.0534
14190SOL    HW147417   4.844   5.187   7.876  0.8761 -0.6183  0.4165
14190SOL    HW247418   4.822   5.109   7.748 -0.0471  0.1282  0.1087
14191SOL     OW47419   3.637   3.144   4.559 -0.2089 -0.4441 -0.5880
14191SOL    HW147420   3.731   3.128   4.570 -0.1469 -0.0041 -0.4506
14191SOL    HW247421   3.598   3.057   4.558 -0.1859 -0.6264  2.7570
14192SOL     OW47422   0.678   7.670   7.750 -0.6380 -0.0040  0.0222
14192SOL    HW147423   0.589   7.702   7.733 -0.6564  0.7544  1.4218
14192SOL    HW247424   0.682   7.587   7.702 -2.3411 -0.3944  0.4683
14193SOL     OW47425   6.182   2.809   4.837  0.4095  0.6169 -0.4091
14193SOL    HW147426   6.259   2.754   4.847  0.0941  0.2434  0.0432
14193SOL    HW247427   6.174   2.824   4.742  0.7891  0.3078 -0.4880
14194SOL     OW47428   8.023   5.829   6.798  0.1582  0.1208  0.2263
14194SOL    HW147429   7.963   5.841   6.724 -2.1842  0.8658  2.1012
14194SOL    HW247430   8.050   5.917   6.822 -0.9217  0.1147  1.5923
14195SOL     OW47431   3.114   5.022   6.526 -0.1093  0.0265  0.0131
14195SOL    HW147432   3.204   4.990   6.523 -0.1880 -0.2251  0.3921
14195SOL    HW247433   3.061   4.952   6.488 -0.3680 -0.6124  1.4861
14196SOL     OW47434   2.214   4.839   7.107 -0.3197  0.1673  0.1437
14196SOL    HW147435   2.281   4.826   7.040 -1.1852 -0.6848 -0.5946
14196SOL    HW247436   2.135   4.863   7.059 -0.6548  0.7597  0.9598
14197SOL     OW47437   6.725   4.440   2.647  0.2907 -0.3329  0.1523
14197SOL    HW147438   6.679   4.368   2.690  0.5727  0.1158  1.2296
14197SOL    HW247439   6.769   4.487   2.718  0.8786  0.3542 -0.6387
14198SOL     OW47440   5.805   3.717   3.514 -0.2913 -0.1066 -0.0059
14198SOL    HW147441   5.857   3.761   3.446  0.8817 -1.6585 -0.1784
14198SOL    HW247442   5.715   3.723   3.482  0.2326 -0.8699 -1.7871
14199SOL     OW47443   6.160   3.614   7.000  0.1988 -0.0148 -0.0188
14199SOL    HW147444   6.193   3.602   6.911  0.7469 -2.3618  0.4427
14199SOL    HW247445   6.233   3.588   7.056 -0.4460  0.5678  1.1227
14200SOL     OW47446   2.811   4.502   7.979  0.7135 -0.3180  0.1375
14200SOL    HW147447   2.774   4.519   8.066  1.8653 -0.3410  0.6484
14200SOL    HW247448   2.808   4.407   7.970  2.0415 -0.4488  0.8362
14201SOL     OW47449   5.039   1.794   5.426  0.0573 -0.8513  0.0730
14201SOL    HW147450   4.974   1.847   5.380  0.4120 -1.7004 -1.4803
14201SOL    HW247451   4.989   1.721   5.462 -0.0132 -0.9390 -0.1989
14202SOL     OW47452   4.003   7.562   7.501  0.4890 -0.5074 -0.1520
14202SOL    HW147453   4.080   7.528   7.454  0.7385  0.1929 -0.2735
14202SOL    HW247454   3.931   7.553   7.439  0.8010  0.3306 -0.6591
14203SOL     OW47455   4.930   2.218   7.581 -0.1691 -0.3478 -0.1207
14203SOL    HW147456   4.851   2.259   7.616 -0.7648 -1.1439 -0.5295
14203SOL    HW247457   4.912   2.124   7.583  0.9947 -0.5778  0.3422
14204SOL     OW47458   3.470   4.051   7.806 -0.2926 -0.1084  0.0698
14204SOL    HW147459   3.460   3.959   7.830 -0.6327 -0.2834 -0.7077
14204SOL    HW247460   3.381   4.081   7.789 -0.0939  0.0963 -0.6201
14205SOL     OW47461   3.727   2.992   8.747  0.0977  0.0367 -0.2653
14205SOL    HW147462   3.640   2.952   8.744 -0.6772  1.5560  0.7531
14205SOL    HW247463   3.765   2.961   8.829  0.8868 -1.2519 -1.0708
14206SOL     OW47464   6.237   6.496   8.202  0.8159 -0.3202 -0.2113
14206SOL    HW147465   6.318   6.545   8.213  1.4208 -1.7925  2.9818
14206SOL    HW247466   6.262   6.420   8.148  0.7577  0.7760 -1.8576
14207SOL     OW47467   5.513   4.605   7.300  0.8944 -0.3390 -0.5679
14207SOL    HW147468   5.534   4.648   7.383  2.1223  0.0743 -1.0825
14207SOL    HW247469   5.517   4.675   7.235  0.7882 -0.8302 -1.1117
14208SOL     OW47470   5.459   0.186   5.442 -0.3833  0.0425  0.0076
14208SOL    HW147471   5.534   0.245   5.452 -1.1882  0.9632  0.9573
14208SOL    HW247472   5.418   0.214   5.360 -2.2124  2.6608  1.6360
14209SOL     OW47473   5.531   6.299   8.117 -0.2949  0.1765 -0.1884
14209SOL    HW147474   5.597   6.329   8.180  1.0784 -1.5976 -0.6841
14209SOL    HW247475   5.467   6.252   8.170  0.3192 -0.4410  0.0270
14210SOL     OW47476   5.071   1.683   6.596 -0.1243  0.5810  0.0451
14210SOL    HW147477   4.989   1.635   6.599 -1.7570  3.2122  0.0875
14210SOL    HW247478   5.080   1.722   6.683  1.6603 -0.3341  0.3343
14211SOL     OW47479   5.329   6.088   9.049  0.4308  0.5427 -0.8344
14211SOL    HW147480   5.263   6.040   9.100  0.0900 -0.1608 -1.8874
14211SOL    HW247481   5.408   6.034   9.056  1.2319  1.8677  1.2183
14212SOL     OW47482   0.623   3.843   8.085  0.0792 -0.5547 -0.1768
14212SOL    HW147483   0.575   3.815   8.007 -0.3403  1.3959 -0.6631
14212SOL    HW247484   0.698   3.891   8.051  0.7210 -0.9705  0.6243
14213SOL     OW47485   6.596   5.331   7.902 -0.9853 -0.0873 -0.1395
14213SOL    HW147486   6.625   5.311   7.991  0.2734 -0.2165 -0.5571
14213SOL    HW247487   6.512   5.376   7.913  0.1103  1.7690  1.2251
14214SOL     OW47488   3.369   7.153   5.017  0.4797  0.2286 -0.8282
14214SOL    HW147489   3.435   7.186   4.956  0.3780 -0.5522 -1.3811
14214SOL    HW247490   3.371   7.058   5.005 -0.5123  0.1699 -0.6063
14215SOL     OW47491   1.401   4.337   4.554 -0.4240  0.2020 -0.2998
14215SOL    HW147492   1.306   4.339   4.553 -0.4352  1.4154  0.2640
14215SOL    HW247493   1.425   4.410   4.612  0.8080 -1.2747  1.1334
14216SOL     OW47494   6.660   5.644   7.018  0.5236 -0.2812 -0.1024
14216SOL    HW147495   6.752   5.637   7.044  0.0487  0.0783  1.8305
14216SOL    HW247496   6.649   5.578   6.950  1.7419 -1.7678  1.0662
14217SOL     OW47497   4.785   2.635   6.882 -0.5071  0.2979 -0.1053
14217SOL    HW147498   4.837   2.574   6.829 -1.9057 -1.3002  0.2707
14217SOL    HW247499   4.758   2.703   6.820 -0.6795 -0.6132 -1.0734
14218SOL     OW47500   5.555   4.411   7.136 -0.2329 -0.0730  0.1979
14218SOL    HW147501   5.639   4.445   7.106 -0.2087 -0.5461 -0.2896
14218SOL    HW247502   5.524   4.475   7.200  0.1147  0.5159 -0.2164
14219SOL     OW47503   2.884   4.676   9.594  0.0214 -0.8766 -0.1239
14219SOL    HW147504   2.975   4.648   9.595 -0.2624 -1.9435 -1.2833
14219SOL    HW247505   2.839   4.615   9.653  0.0169 -0.4631  0.3092
14220SOL     OW47506   1.912   1.080   4.361  0.6254  0.2637  0.5089
14220SOL    HW147507   1.867   1.155   4.323 -1.2180  0.4480  2.8263
14220SOL    HW247508   1.867   1.004   4.325  0.8949  0.3253  0.0315
14221SOL     OW47509   3.100   4.385   5.508  0.5772  0.0611 -0.6274
14221SOL    HW147510   3.066   4.345   5.429  0.5512  1.1993 -1.2119
14221SOL    HW247511   3.065   4.474   5.507  1.9944  0.6534 -0.2589
14222SOL     OW47512   3.754   6.449   8.039 -0.8322  0.5513  0.3891
14222SOL    HW147513   3.729   6.533   8.002 -0.0650  1.7726  2.4469
14222SOL    HW247514   3.776   6.469   8.131  0.9690 -1.5833  0.5098
14223SOL     OW47515   6.105   4.437   7.242  0.3863 -0.1557 -0.0889
14223SOL    HW147516   6.159   4.399   7.312  1.9864  1.8460 -0.1337
14223SOL    HW247517   6.023   4.461   7.286  1.0445  0.2966  0.9369
14224SOL     OW47518   7.862   5.125   7.914  0.3625 -0.1864  0.1521
14224SOL    HW147519   7.785   5.177   7.937  0.1392 -0.2026 -0.5326
14224SOL    HW247520   7.934   5.188   7.913  0.1357  0.0687 -0.4340
14225SOL     OW47521   6.332   4.912   8.253 -0.0992 -0.4009 -0.2811
14225SOL    HW147522   6.354   5.005   8.262  2.2710 -0.7271 -1.8217
14225SOL    HW247523   6.327   4.898   8.159 -1.8974 -1.5922 -0.0631
14226SOL     OW47524   8.278   6.603   6.827  0.4092  0.2919  0.1896
14226SOL    HW147525   8.311   6.668   6.889  1.0811  2.5148 -2.2773
14226SOL    HW247526   8.266   6.523   6.878  0.9401  1.9556  3.0932
14227SOL     OW47527   4.704   4.146   8.172  0.4072 -0.1286 -0.1201
14227SOL    HW147528   4.664   4.158   8.086  0.7137 -0.8294 -0.3676
14227SOL    HW247529   4.793   4.181   8.162  0.2113  0.4643  0.1313
14228SOL     OW47530   3.307   4.535   8.796  0.5241  0.7405  0.1394
14228SOL    HW147531   3.267   4.469   8.853  2.5817 -0.2132  0.5915
14228SOL    HW247532   3.253   4.535   8.717 -0.5492 -0.2156  0.8394
14229SOL     OW47533   4.259   2.430   8.709  0.4145  0.5136 -0.2145
14229SOL    HW147534   4.258   2.412   8.615 -1.1308  1.6351 -0.4586
14229SOL    HW247535   4.255   2.344   8.750 -1.4302  0.0572 -1.2335
14230SOL     OW47536   5.046   6.014   9.525  0.6871 -0.9548 -0.7425
14230SOL    HW147537   5.103   5.946   9.560  0.6944 -0.2649  0.6453
14230SOL    HW247538   4.969   6.014   9.582 -0.1522 -1.0317 -1.8398
14231SOL     OW47539   1.011   3.391   3.976  0.3323 -0.0746 -0.1564
14231SOL    HW147540   0.928   3.426   3.941 -0.4435 -0.8773  0.8240
14231SOL    HW247541   0.992   3.299   3.993  1.2674 -0.1254  0.6198
14232SOL     OW47542   6.039   5.103   6.836 -0.3415  0.5610 -0.2832
14232SOL    HW147543   6.119   5.089   6.887 -1.1186  1.0741  1.1481
14232SOL    HW247544   6.001   5.016   6.827 -0.0341  0.4214 -0.2512
14233SOL     OW47545   2.489   4.556   5.778 -0.0281  0.0497 -0.0574
14233SOL    HW147546   2.477   4.646   5.747  1.7144  0.0833 -0.7421
14233SOL    HW247547   2.524   4.565   5.867  0.4093  0.0670 -0.2278
14234SOL     OW47548   6.282   8.332   6.637  0.2514 -0.5300 -0.0510
14234SOL    HW147549   6.212   8.397   6.630 -0.5642 -1.2256  1.2685
14234SOL    HW247550   6.326   8.352   6.719 -1.0473 -2.5592  1.2318
14235SOL     OW47551   3.987   4.068   8.060 -0.8448  0.0571 -0.3077
14235SOL    HW147552   3.905   4.024   8.080 -0.1853 -0.5573  1.2115
14235SOL    HW247553   4.054   4.000   8.072 -0.0558  0.7088 -0.8863
14236SOL     OW47554   5.194   8.683   6.173  0.0334  0.4546 -0.0660
14236SOL    HW147555   5.100   8.668   6.167  0.2683 -1.3596  0.1160
14236SOL    HW247556   5.225   8.682   6.083 -0.0777  0.7428 -0.1077
14237SOL     OW47557   3.507   4.642   9.354 -0.2210 -1.0188 -0.1052
14237SOL    HW147558   3.574   4.638   9.285  0.4538  1.3848  0.3272
14237SOL    HW247559   3.553   4.617   9.434 -0.3290 -1.2027 -0.0996
14238SOL     OW47560   3.792   6.926   7.688  0.2369 -0.1139 -0.2793
14238SOL    HW147561   3.796   6.951   7.780 -1.0268  0.8333 -0.4464
14238SOL    HW247562   3.845   6.847   7.682 -0.8467 -1.0467  1.5669
14239SOL     OW47563   1.450   5.968   8.683  0.1641 -0.2258 -0.2622
14239SOL    HW147564   1.502   5.999   8.609  0.4011 -0.8632 -0.3679
14239SOL    HW247565   1.412   6.047   8.721 -1.6090 -0.0125 -2.2701
14240SOL     OW47566   3.249   7.925   4.624 -0.0855  0.1625 -0.1298
14240SOL    HW147567   3.227   8.018   4.638  0.3555  0.2386  0.0552
14240SOL    HW247568   3.166   7.886   4.596 -0.2376  0.6475 -0.3788
14241SOL     OW47569   7.031   4.873   6.723  0.0882  0.0878 -0.2022
14241SOL    HW147570   6.996   4.864   6.811 -0.0713  0.9591 -0.1686
14241SOL    HW247571   6.984   4.807   6.671 -1.3303  0.9722 -0.0823
14242SOL     OW47572   6.614   4.664   3.687 -0.0894  0.0975  0.4040
14242SOL    HW147573   6.539   4.663   3.747  0.1576  2.5106  0.8723
14242SOL    HW247574   6.684   4.620   3.736 -0.5602 -0.0820  0.9243
14243SOL     OW47575   6.720   2.357   5.890 -0.1370  0.7429 -0.1781
14243SOL    HW147576   6.637   2.342   5.845 -0.8415  1.4183  0.8615
14243SOL    HW247577   6.703   2.335   5.981  0.9327  0.5446 -0.0118
14244SOL     OW47578   5.976   5.091   7.610 -0.1165 -0.1007  0.2261
14244SOL    HW147579   6.042   5.113   7.676  0.2172 -1.2415  0.3070
14244SOL    HW247580   5.897   5.135   7.640  0.3944  0.5937  0.5905
14245SOL     OW47581   6.661   7.534   4.900 -0.1810 -0.6793 -0.4204
14245SOL    HW147582   6.622   7.608   4.854  1.5129  0.9911  0.6592
14245SOL    HW247583   6.746   7.522   4.859  0.8678  0.0724  1.4056
14246SOL     OW47584   1.673   3.923   6.358 -0.1316  0.2498 -0.5157
14246SOL    HW147585   1.675   4.019   6.356 -0.2361  0.2632  0.1034
14246SOL    HW247586   1.718   3.897   6.277 -0.1884  0.8183 -0.7331
14247SOL     OW47587   5.920   3.012   8.202  0.0017  0.1472 -0.0917
14247SOL    HW147588   5.918   3.042   8.293 -2.5525  2.4514 -0.7931
14247SOL    HW247589   5.945   3.089   8.151  0.9308 -0.9812 -1.4323
14248SOL     OW47590   3.870   5.332   3.629  0.1535  0.0399  0.3131
14248SOL    HW147591   3.821   5.258   3.594  2.0747 -1.4141  0.5814
14248SOL    HW247592   3.804   5.384   3.676 -1.1501 -1.7711  0.5831
14249SOL     OW47593   6.051   7.170   7.635  0.0836 -0.2174  0.0849
14249SOL    HW147594   5.985   7.157   7.567  0.8738 -0.4435 -0.6747
14249SOL    HW247595   6.070   7.264   7.632  1.9462 -0.5817 -1.8399
14250SOL     OW47596   3.509   3.827   9.238 -0.0844  0.0769  0.2709
14250SOL    HW147597   3.486   3.760   9.174  1.0333 -0.0802 -0.0019
14250SOL    HW247598   3.443   3.819   9.306 -0.3536 -0.8536 -0.0772
14251SOL     OW47599   3.900   5.754   7.691 -0.0279  0.5301 -0.0525
14251SOL    HW147600   3.834   5.733   7.757 -0.8402  1.2250 -0.6084
14251SOL    HW247601   3.855   5.740   7.607  1.1972 -1.0360 -0.4919
14252SOL     OW47602   7.390   2.490   6.211  0.2540 -0.7095  0.5518
14252SOL    HW147603   7.485   2.484   6.209  0.2612 -0.3593 -0.8375
14252SOL    HW247604   7.367   2.549   6.139 -1.0157 -0.8138  0.8363
14253SOL     OW47605   7.536   4.224   7.318  0.0104  0.2476 -0.3363
14253SOL    HW147606   7.515   4.314   7.342  0.7961  0.2249  0.4820
14253SOL    HW247607   7.525   4.174   7.398 -2.2248 -0.7442 -1.2042
14254SOL     OW47608   4.162   3.133   6.628 -0.0877 -0.0030 -0.3394
14254SOL    HW147609   4.249   3.140   6.588 -0.9268 -0.0278 -2.2804
14254SOL    HW247610   4.176   3.085   6.709  1.4161 -1.8662 -1.6346
14255SOL     OW47611   6.704   3.081   6.140  0.2137 -0.1010 -0.6946
14255SOL    HW147612   6.675   3.035   6.218  1.9909 -0.3908 -0.1583
14255SOL    HW247613   6.660   3.166   6.144  1.1436  0.3557  1.2871
14256SOL     OW47614   4.163   3.930   6.748  0.2196 -0.6548  0.3671
14256SOL    HW147615   4.092   3.941   6.684  0.9290 -1.0986 -0.4973
14256SOL    HW247616   4.152   4.005   6.807  0.6100  0.7637 -1.2882
14257SOL     OW47617   6.973   5.509   8.946  0.0203  0.1826 -0.2957
14257SOL    HW147618   6.882   5.511   8.972  0.6313 -2.2804  2.5829
14257SOL    HW247619   7.011   5.590   8.980 -0.5162 -0.1310  1.0818
14258SOL     OW47620   5.362   3.967   3.685  0.4084  0.5084 -0.5017
14258SOL    HW147621   5.370   3.896   3.621  1.6892  1.1572 -1.0898
14258SOL    HW247622   5.286   4.017   3.655  0.5374  0.3663 -1.0824
14259SOL     OW47623   7.173   3.310   8.367  0.6433 -0.5915 -0.3196
14259SOL    HW147624   7.087   3.309   8.409  0.4635  0.5994 -0.6121
14259SOL    HW247625   7.158   3.269   8.282  0.2764 -0.0671 -0.5145
14260SOL     OW47626   6.088   7.185   5.767 -0.5221 -0.1058  0.2877
14260SOL    HW147627   6.046   7.099   5.767  1.1268 -1.0041 -1.6098
14260SOL    HW247628   6.181   7.166   5.772 -0.1744  1.6513  1.0625
14261SOL     OW47629   9.771   4.246   7.767  0.3757  0.2890  0.1765
14261SOL    HW147630   9.719   4.246   7.848  1.2999 -1.5778  0.8259
14261SOL    HW247631   9.790   4.153   7.751  2.2984  0.8073 -0.8179
14262SOL     OW47632   6.779   4.154   5.329  0.1316  0.1747  0.0756
14262SOL    HW147633   6.759   4.123   5.417  0.0060  0.0279 -0.0045
14262SOL    HW247634   6.699   4.140   5.279  0.8623 -1.8330 -0.6400
14263SOL     OW47635   7.480   3.444   6.087 -0.0475  0.3382  0.0314
14263SOL    HW147636   7.390   3.409   6.092 -0.1954  0.8198  1.3314
14263SOL    HW247637   7.522   3.411   6.167  0.3723  1.6081  0.3531
14264SOL     OW47638   4.783   3.281   8.013  0.8631 -0.4953 -0.4969
14264SOL    HW147639   4.717   3.338   8.053  1.0876  0.0320 -0.8638
14264SOL    HW247640   4.830   3.338   7.953 -1.0183 -1.7974 -3.4054
14265SOL     OW47641   6.430   7.542   7.182 -0.3178  0.1289 -0.4386
14265SOL    HW147642   6.398   7.545   7.092  0.8038  1.4987 -0.8251
14265SOL    HW247643   6.368   7.595   7.232  1.0898  2.6162 -1.1475
14266SOL     OW47644   2.287   5.717   7.569  0.0163 -0.2429 -0.0222
14266SOL    HW147645   2.373   5.741   7.536  0.1150  0.3320  0.6428
14266SOL    HW247646   2.229   5.787   7.537 -0.1767 -0.5310 -0.3128
14267SOL     OW47647   4.268   4.646   7.665 -0.5621 -0.4159 -0.2302
14267SOL    HW147648   4.220   4.590   7.726 -1.2615  0.7812  0.3617
14267SOL    HW247649   4.247   4.735   7.693  0.9809  0.1583 -0.7710
14268SOL     OW47650   5.053   1.843   8.588  0.2027  0.1090  0.0591
14268SOL    HW147651   4.974   1.893   8.609  0.2773  0.9582 -1.5105
14268SOL    HW247652   5.035   1.806   8.501  1.5373  0.3937 -0.3677
14269SOL     OW47653   1.963   5.734   9.047 -0.5821 -0.0008 -0.0785
14269SOL    HW147654   1.954   5.805   9.111 -0.2500  1.2939 -1.4184
14269SOL    HW247655   2.055   5.707   9.054 -0.3574  0.6278 -0.4735
14270SOL     OW47656   5.629   5.506   8.039 -0.2236  0.0141  0.3903
14270SOL    HW147657   5.681   5.558   8.100 -0.1021  0.9603 -0.4934
14270SOL    HW247658   5.645   5.546   7.953  0.4137 -1.8868 -0.4451
14271SOL     OW47659   7.803   4.363   0.454 -0.5141 -0.2235 -0.1036
14271SOL    HW147660   7.786   4.318   0.372  2.0635  2.2260 -2.1531
14271SOL    HW247661   7.782   4.455   0.436 -0.1113  0.3622  2.0717
14272SOL     OW47662   3.238   5.011   7.062 -0.0644  0.3098  0.0450
14272SOL    HW147663   3.296   4.941   7.092 -0.2657 -0.3289 -1.0169
14272SOL    HW247664   3.160   5.002   7.116  0.9556  1.4752  1.8182
14273SOL     OW47665   4.543   6.331   9.725 -0.5596  0.8643  0.0221
14273SOL    HW147666   4.538   6.262   9.659 -0.1856  2.0225 -1.2335
14273SOL    HW247667   4.632   6.364   9.720 -0.7024  1.3872  0.6792
14274SOL     OW47668   6.753   4.449   6.368  0.2134  0.4694  0.3653
14274SOL    HW147669   6.750   4.544   6.384 -0.8963  0.4035  0.6250
14274SOL    HW247670   6.668   4.417   6.398  0.7925 -0.7009  0.8221
14275SOL     OW47671   3.302   4.123   7.157  0.5149  0.1662 -0.3099
14275SOL    HW147672   3.389   4.084   7.151  1.2580  1.6993 -0.0849
14275SOL    HW247673   3.259   4.077   7.229  2.5610  1.8814  2.1923
14276SOL     OW47674   3.935   8.031   0.441 -0.4639 -0.3557  0.6526
14276SOL    HW147675   3.870   8.018   0.510 -0.9578  1.0348  0.4861
14276SOL    HW247676   3.960   8.123   0.449 -2.1336  0.5035 -2.3582
14277SOL     OW47677   2.711   5.261   1.220  0.7097  0.3368 -0.5355
14277SOL    HW147678   2.694   5.167   1.220  0.5232  0.3634 -1.2319
14277SOL    HW247679   2.796   5.269   1.176  0.4081  0.5419 -1.0867
14278SOL     OW47680   4.658   6.752   7.031  0.3027  0.2423  0.3753
14278SOL    HW147681   4.710   6.672   7.024 -0.3531 -0.3850  2.1010
14278SOL    HW247682   4.688   6.806   6.959  1.7941 -0.9719  0.0259
14279SOL     OW47683   3.013   3.428   0.844  0.2008 -0.5614 -0.7363
14279SOL    HW147684   2.933   3.425   0.791  0.0110 -1.4622 -0.4167
14279SOL    HW247685   2.987   3.394   0.929  1.2892 -2.4975 -1.1257
14280SOL     OW47686   7.211   3.825   6.158 -0.2365 -0.7167 -0.0182
14280SOL    HW147687   7.205   3.761   6.229 -1.2529  0.1165  0.6876
14280SOL    HW247688   7.193   3.909   6.201  1.3164  0.1000 -0.8623
14281SOL     OW47689   2.505   5.963   5.898 -0.2195 -0.3190  0.2220
14281SOL    HW147690   2.421   5.966   5.943 -0.4384  1.9254 -0.2310
14281SOL    HW247691   2.565   6.010   5.955 -0.0445  0.8620 -0.8999
14282SOL     OW47692   3.566   4.900   8.880  0.0882  0.1370  0.4768
14282SOL    HW147693   3.498   4.923   8.944 -0.5432  0.4936 -0.3155
14282SOL    HW247694   3.549   4.809   8.859  1.2518 -0.4717  1.9629
14283SOL     OW47695   4.605   4.450   8.398 -0.3582  0.5283 -0.0131
14283SOL    HW147696   4.569   4.400   8.471  0.9848 -0.0729  0.2576
14283SOL    HW247697   4.697   4.460   8.419  0.2383 -0.3691 -2.0314
14284SOL     OW47698   4.352   4.898   9.141  0.2042 -0.2574 -0.1082
14284SOL    HW147699   4.258   4.884   9.157  0.2020 -0.0400  0.0814
14284SOL    HW247700   4.356   4.939   9.055  0.2131 -1.4395 -0.6954
14285SOL     OW47701   2.721   7.470   0.327 -0.3360 -0.0193  0.0646
14285SOL    HW147702   2.646   7.412   0.342 -1.4753  1.0638 -1.1768
14285SOL    HW247703   2.782   7.418   0.275 -0.9956 -0.3815 -0.3667
14286SOL     OW47704   3.026   5.328   7.943 -0.0205  0.0888 -0.4387
14286SOL    HW147705   3.022   5.233   7.957 -0.9938  0.0128 -1.0929
14286SOL    HW247706   3.081   5.338   7.865  0.5029  0.1013 -0.0704
14287SOL     OW47707   4.642   2.612   0.559 -0.2618 -0.5723  0.2445
14287SOL    HW147708   4.670   2.551   0.491  1.4337  0.3384  0.0620
14287SOL    HW247709   4.719   2.621   0.616  0.1104  2.4591 -0.5524
14288SOL     OW47710   2.846   4.094   9.262  0.4417  0.0563  0.3346
14288SOL    HW147711   2.855   4.100   9.357 -0.2948 -0.5365  0.4550
14288SOL    HW247712   2.846   4.185   9.231 -2.3189  0.4487  1.2188
14289SOL     OW47713   7.100   5.010   0.080  0.1682 -0.1282 -0.0154
14289SOL    HW147714   7.143   4.931   0.048  2.2542  1.1417 -0.5284
14289SOL    HW247715   7.051   5.044   0.005  0.3058 -0.2504 -0.1592
14290SOL     OW47716   5.068   5.650   8.269  0.6157 -0.8704 -0.6381
14290SOL    HW147717   5.097   5.594   8.197  0.7605 -0.5103 -0.8631
14290SOL    HW247718   4.973   5.658   8.257  0.1862 -3.0158  0.7788
14291SOL     OW47719   4.213   1.895   7.646 -0.0545 -0.6873 -0.1952
14291SOL    HW147720   4.262   1.943   7.579 -0.1351 -0.0681  0.1832
14291SOL    HW247721   4.258   1.914   7.728 -1.1018  0.1580  0.2110
14292SOL     OW47722   8.385   2.728   7.568  0.4126 -0.9371  0.0730
14292SOL    HW147723   8.451   2.663   7.545  2.0040  0.9368 -0.9605
14292SOL    HW247724   8.338   2.745   7.486  0.2542 -0.5026  0.2513
14293SOL     OW47725   4.544   4.127   9.163 -0.3755  0.2393  0.1608
14293SOL    HW147726   4.596   4.144   9.241  0.2496  1.5629 -0.5019
14293SOL    HW247727   4.519   4.214   9.132  0.1574 -0.1949 -1.6104
14294SOL     OW47728   5.391   6.317   7.161  0.3430  0.4205  0.6024
14294SOL    HW147729   5.437   6.288   7.239 -1.0483  1.9431  2.0735
14294SOL    HW247730   5.437   6.397   7.134 -1.6788  2.3871  2.5268
14295SOL     OW47731   7.263   4.928   7.719 -0.0822  0.3394  0.1695
14295SOL    HW147732   7.212   4.934   7.638  0.7924 -1.3675 -0.5824
14295SOL    HW247733   7.199   4.907   7.787 -0.6342  0.2340 -0.3769
14296SOL     OW47734   6.483   1.636   7.292 -0.3692  0.0411  0.1133
14296SOL    HW147735   6.434   1.605   7.368 -3.8661 -2.0641 -2.6826
14296SOL    HW247736   6.455   1.726   7.280 -0.3793  0.1375  0.8338
14297SOL     OW47737   4.001   2.550   9.073  0.5404 -0.0950 -0.7683
14297SOL    HW147738   3.993   2.611   8.999 -1.0201 -0.7359 -1.1550
14297SOL    HW247739   3.996   2.606   9.151  0.3351  0.3923 -1.1257
14298SOL     OW47740   6.009   3.629   8.556 -0.0547 -0.3315  0.0924
14298SOL    HW147741   5.975   3.663   8.639 -0.0670  0.4640 -0.2313
14298SOL    HW247742   5.978   3.538   8.553 -1.8742  0.2439 -0.0300
14299SOL     OW47743   5.330   4.689   2.260  0.1100 -0.0704 -0.7716
14299SOL    HW147744   5.276   4.768   2.259 -0.0893 -0.1580  0.5919
14299SOL    HW247745   5.298   4.637   2.186 -1.6734 -0.0962 -0.0359
14300SOL     OW47746   4.510   3.531   9.472  0.3468  0.3213  0.3263
14300SOL    HW147747   4.532   3.532   9.565 -2.0416  1.6604  0.9684
14300SOL    HW247748   4.567   3.596   9.433 -0.9357  2.2811  1.5483
14301SOL     OW47749   8.416   5.207   6.683  0.4131  0.1452  0.0814
14301SOL    HW147750   8.389   5.227   6.594 -0.8908 -3.0084 -0.3491
14301SOL    HW247751   8.354   5.255   6.738  0.7830  1.5373 -0.6715
14302SOL     OW47752   3.687   6.769   8.273 -0.3095  0.3199  0.0622
14302SOL    HW147753   3.727   6.847   8.233 -1.6635  1.5992  1.1010
14302SOL    HW247754   3.593   6.786   8.268 -0.7229 -1.9511 -1.0176
14303SOL     OW47755   4.007   3.988   7.777 -0.1449  0.2312  0.0325
14303SOL    HW147756   3.935   3.925   7.776 -0.1133  0.1846  0.4923
14303SOL    HW247757   4.015   4.015   7.869  0.3937  0.2633 -0.0172
14304SOL     OW47758   5.051   3.079   8.878  0.0559  1.0757 -0.2080
14304SOL    HW147759   5.090   3.039   8.800  0.2261  0.7173  0.0563
14304SOL    HW247760   5.118   3.139   8.911  1.3721 -1.1887  1.5454
14305SOL     OW47761   4.623   3.864   8.542 -0.3668  0.0126 -0.0188
14305SOL    HW147762   4.657   3.951   8.520 -0.5538 -0.0639 -0.6281
14305SOL    HW247763   4.659   3.845   8.628 -0.6933  0.8920  0.3249
14306SOL     OW47764   5.168   6.323   6.926 -0.1535  0.1804 -0.1197
14306SOL    HW147765   5.169   6.380   6.849  1.7421 -0.7569 -0.8467
14306SOL    HW247766   5.130   6.377   6.995 -1.7781  1.0857 -1.6493
14307SOL     OW47767   5.269   4.126   6.702 -0.2043  0.7027  0.0511
14307SOL    HW147768   5.311   4.093   6.623  1.5058  3.1423 -0.1829
14307SOL    HW247769   5.212   4.055   6.731 -0.3197 -0.5354 -2.9254
14308SOL     OW47770   4.903   7.015   7.605 -0.1225 -0.5792  0.3366
14308SOL    HW147771   4.831   7.078   7.596 -0.7729 -0.9718  2.4234
14308SOL    HW247772   4.979   7.069   7.628 -0.4951 -0.4466  1.3041
14309SOL     OW47773   5.816   4.199   6.293 -0.5001  0.1139  0.2021
14309SOL    HW147774   5.874   4.126   6.315 -0.0800  0.8292  1.6026
14309SOL    HW247775   5.874   4.274   6.281 -0.9814  0.3829 -0.4884
14310SOL     OW47776   4.387   1.738   6.695  0.2613 -0.0309  0.6236
14310SOL    HW147777   4.371   1.832   6.693 -0.6247 -0.1742  0.6798
14310SOL    HW247778   4.350   1.705   6.614 -1.6794 -0.6509  1.6949
14311SOL     OW47779   3.689   7.284   7.148 -0.2593  0.4399  0.3980
14311SOL    HW147780   3.601   7.302   7.181 -0.7757  1.6049 -1.4722
14311SOL    HW247781   3.702   7.190   7.164 -1.1194  0.5842  2.2323
14312SOL     OW47782   2.969   7.026   2.011 -0.1820 -0.0756 -0.3756
14312SOL    HW147783   3.011   7.076   2.081 -1.4053  0.8524 -0.2815
14312SOL    HW247784   2.970   7.085   1.936  1.8419 -1.3487 -1.4389
14313SOL     OW47785   0.997   3.425   4.276 -0.0701 -0.2646  0.4865
14313SOL    HW147786   0.978   3.473   4.357  0.4249  0.4537  0.1854
14313SOL    HW247787   0.948   3.344   4.285 -1.1646  0.4147  0.8885
14314SOL     OW47788   7.113   5.504   6.407 -0.1311 -0.0894 -0.2587
14314SOL    HW147789   7.171   5.429   6.419  1.7654  1.5722  1.8399
14314SOL    HW247790   7.145   5.547   6.328  1.4125  0.6407  0.7117
14315SOL     OW47791   6.333   6.231   6.898 -0.1215 -0.0379 -0.3068
14315SOL    HW147792   6.416   6.185   6.914  1.5362  2.5365 -0.8731
14315SOL    HW247793   6.307   6.203   6.811 -0.3553 -1.5236  0.2054
14316SOL     OW47794   5.303   1.944   8.671  0.1517 -0.0052 -0.1352
14316SOL    HW147795   5.251   1.981   8.742  0.0479 -1.6783  0.7271
14316SOL    HW247796   5.241   1.894   8.619  0.6085 -0.7560  0.0116
14317SOL     OW47797   5.864   3.760   7.598  0.5115  0.2584 -0.3996
14317SOL    HW147798   5.810   3.716   7.532  1.1737 -0.4003 -0.5149
14317SOL    HW247799   5.924   3.693   7.629  0.3208  0.5985  0.7743
14318SOL     OW47800   5.714   6.109   7.516  0.7329 -0.2155 -1.2911
14318SOL    HW147801   5.729   6.165   7.591 -2.0424  3.1831 -2.9861
14318SOL    HW247802   5.780   6.135   7.452  0.1290  0.3579 -1.6898
14319SOL     OW47803   7.511   4.298   8.063 -0.0643 -0.6260  0.7375
14319SOL    HW147804   7.559   4.337   7.989 -0.2785 -0.3416  0.7470
14319SOL    HW247805   7.572   4.303   8.137  0.2786 -1.2187  0.5047
14320SOL     OW47806   4.744   6.490   6.876 -0.2396 -0.2614 -0.0439
14320SOL    HW147807   4.772   6.418   6.819 -1.5433  0.2983 -1.4856
14320SOL    HW247808   4.688   6.544   6.820  0.8591  2.0261  0.9296
14321SOL     OW47809   1.790   4.967   5.423 -0.4027  1.2434 -1.0332
14321SOL    HW147810   1.788   4.945   5.516  0.4592  0.9645 -1.0725
14321SOL    HW247811   1.812   5.060   5.421  0.2854  1.0860 -0.9697
14322SOL     OW47812   3.654   5.213   0.459  0.2230 -0.4296 -0.4361
14322SOL    HW147813   3.598   5.209   0.382  0.5245 -0.1148 -0.6783
14322SOL    HW247814   3.743   5.201   0.425  0.5761  1.7336 -0.4339
14323SOL     OW47815   3.258   4.842   0.788 -0.0525  0.5688  0.1184
14323SOL    HW147816   3.328   4.887   0.740  1.0934 -1.2161  0.0502
14323SOL    HW247817   3.181   4.852   0.732  0.2540  2.0627 -0.0839
14324SOL     OW47818   4.250   6.273   0.259  0.6235  0.0186  0.0394
14324SOL    HW147819   4.332   6.289   0.214  1.2235 -0.0428  1.0850
14324SOL    HW247820   4.258   6.183   0.293  0.1597  0.0394  0.2114
14325SOL     OW47821   5.679   4.149   7.723  0.2526 -0.0768  0.4773
14325SOL    HW147822   5.639   4.189   7.800  0.9751 -0.8040  1.2347
14325SOL    HW247823   5.610   4.152   7.657 -0.9609 -1.0081  1.6599
14326SOL     OW47824   4.267   5.000   7.894 -0.2984 -0.0997  0.3532
14326SOL    HW147825   4.273   4.911   7.927  2.6365  0.3144  1.2117
14326SOL    HW247826   4.298   4.995   7.804  2.1562  0.2983  1.1019
14327SOL     OW47827   6.089   5.520   9.068  0.4168 -0.4702 -0.2558
14327SOL    HW147828   6.090   5.472   9.151 -1.1694 -1.9499 -1.0330
14327SOL    HW247829   6.179   5.512   9.035  0.6017 -1.4961  0.4355
14328SOL     OW47830   6.790   3.948   7.498 -0.2659 -0.3488  0.9134
14328SOL    HW147831   6.885   3.951   7.480 -0.7049  0.4207 -1.8402
14328SOL    HW247832   6.762   3.864   7.464 -0.1169 -2.3936  5.2883
14329SOL     OW47833   1.512   5.152   8.177 -0.2847  0.1688 -0.3076
14329SOL    HW147834   1.494   5.059   8.186  2.3407 -0.3988 -0.1570
14329SOL    HW247835   1.470   5.176   8.094 -0.0682 -1.4199 -0.9144
14330SOL     OW47836   4.693   6.364   8.709  0.3041 -0.4086 -0.0569
14330SOL    HW147837   4.739   6.324   8.635 -0.1891  0.1863 -0.7004
14330SOL    HW247838   4.602   6.335   8.699  0.2696 -0.4723  0.4275
14331SOL     OW47839   2.477   3.997   8.104 -0.2468  0.7890  0.6848
14331SOL    HW147840   2.502   3.911   8.138 -0.9986  0.7826  1.2689
14331SOL    HW247841   2.559   4.038   8.077  0.0035 -0.6360 -0.9059
14332SOL     OW47842   6.412   4.032   9.780  0.9096  0.3557 -0.5203
14332SOL    HW147843   6.452   4.119   9.785  1.4436  0.1033 -0.2235
14332SOL    HW247844   6.319   4.048   9.764  0.8515  1.0005  0.3930
14333SOL     OW47845   4.188   2.344   9.597 -0.2615 -0.6537  0.0652
14333SOL    HW147846   4.235   2.276   9.549  0.8230 -1.0431  1.6020
14333SOL    HW247847   4.097   2.316   9.595  0.1667 -2.1723  0.6655
14334SOL     OW47848   5.511   5.042   9.035 -0.2485  0.3054  0.0709
14334SOL    HW147849   5.586   5.045   8.976 -0.3735 -1.6225 -0.2441
14334SOL    HW247850   5.500   5.133   9.064  1.3490  0.8616 -0.9217
14335SOL     OW47851   3.417   6.753   9.487 -0.2666 -0.1419 -0.3481
14335SOL    HW147852   3.330   6.745   9.526  0.1603  1.9139  1.2009
14335SOL    HW247853   3.477   6.747   9.561  0.6256  3.0277 -0.6722
14336SOL     OW47854   3.742   3.820   9.505  0.5425 -0.2706 -0.0395
14336SOL    HW147855   3.672   3.767   9.466 -0.3481 -0.2576  1.5037
14336SOL    HW247856   3.727   3.816   9.599  2.4138  0.0335  0.3229
14337SOL     OW47857   3.740   5.488   9.009  0.9085  0.7876 -0.0630
14337SOL    HW147858   3.830   5.516   8.993  1.2527  0.3547  1.0022
14337SOL    HW247859   3.686   5.558   8.972  1.6282  0.4340 -1.9181
14338SOL     OW47860   3.716   4.779   8.285 -0.0011  0.0504  0.2099
14338SOL    HW147861   3.640   4.791   8.342  0.3426 -0.0428  0.6994
14338SOL    HW247862   3.698   4.697   8.239  0.7153 -1.0817  1.8386
14339SOL     OW47863   7.003   2.031   4.866 -0.3169  0.3849  0.1778
14339SOL    HW147864   6.983   1.955   4.811  0.2493  0.0708  0.3901
14339SOL    HW247865   7.097   2.045   4.855 -0.5150  1.4220 -0.2990
14340SOL     OW47866   7.222   3.872   8.998 -0.2042 -0.4436  0.5689
14340SOL    HW147867   7.293   3.809   8.991 -0.1692 -0.1872 -2.0957
14340SOL    HW247868   7.146   3.827   8.961 -0.4439  0.6501 -0.3171
14341SOL     OW47869   7.749   1.828   8.501 -0.1586  0.3890 -0.1236
14341SOL    HW147870   7.688   1.865   8.437  0.6093  0.3790 -0.8768
14341SOL    HW247871   7.828   1.810   8.451  0.1121 -0.5672  0.6299
14342SOL     OW47872   5.044   1.472   8.515  0.2836  0.9769 -0.1065
14342SOL    HW147873   5.053   1.425   8.432  3.6575  2.2222 -0.6081
14342SOL    HW247874   5.016   1.560   8.490 -0.5307  0.8393  0.2917
14343SOL     OW47875   3.387   3.688   6.780 -0.3514 -0.0826  0.1583
14343SOL    HW147876   3.387   3.593   6.792 -0.7898 -0.1792 -0.5430
14343SOL    HW247877   3.294   3.712   6.779 -0.2617  0.2641 -0.2418
14344SOL     OW47878   5.611   6.901   9.433 -0.2454 -0.1894 -0.1117
14344SOL    HW147879   5.667   6.932   9.504 -1.3870  0.5560  0.4829
14344SOL    HW247880   5.561   6.977   9.406 -1.7246 -1.0501  0.0839
14345SOL     OW47881   4.212   5.403   9.597 -0.3293 -0.3044 -0.3215
14345SOL    HW147882   4.243   5.482   9.552 -0.9337  0.4363  0.5220
14345SOL    HW247883   4.209   5.428   9.689  0.4437 -1.6471  0.0953
14346SOL     OW47884   5.234   8.134   7.602 -0.0655  0.1304 -0.2247
14346SOL    HW147885   5.292   8.088   7.541  1.1506  0.4444  0.6466
14346SOL    HW247886   5.243   8.226   7.578  1.6907  0.4459  1.3773
14347SOL     OW47887   8.543   4.424   7.655 -0.3526  0.5048 -0.3782
14347SOL    HW147888   8.634   4.451   7.651 -0.3590  0.3938 -1.5235
14347SOL    HW247889   8.536   4.377   7.738  0.6821  0.3160 -0.3860
14348SOL     OW47890   1.980   3.469   8.994 -0.6638 -0.4428 -0.1672
14348SOL    HW147891   2.035   3.437   8.922 -0.6114  0.4065 -0.5140
14348SOL    HW247892   1.935   3.545   8.958  1.2490  1.5724  1.4254
14349SOL     OW47893   2.339   5.521   7.783 -0.1232 -0.5830 -0.1517
14349SOL    HW147894   2.314   5.577   7.709 -0.1498 -0.6751 -0.2126
14349SOL    HW247895   2.284   5.551   7.855  1.1732  0.7362  0.3329
14350SOL     OW47896   3.882   3.113   8.143  0.1988  0.0311 -0.6841
14350SOL    HW147897   3.831   3.097   8.064  0.2814 -2.3704 -0.3118
14350SOL    HW247898   3.848   3.196   8.177 -0.5796  0.5735 -2.6217
14351SOL     OW47899   6.830   5.284   7.251 -0.1827 -0.3713  0.4695
14351SOL    HW147900   6.742   5.310   7.277 -0.0008 -0.3643  1.1019
14351SOL    HW247901   6.858   5.223   7.320  0.3634 -0.2541  0.3569
14352SOL     OW47902   8.575   3.619   7.492 -0.3230 -0.3417 -0.4201
14352SOL    HW147903   8.594   3.710   7.470 -0.4046 -0.4676 -1.0174
14352SOL    HW247904   8.588   3.571   7.410 -0.4639 -0.8408 -0.1533
14353SOL     OW47905   5.399   3.362   7.916 -0.0937 -0.1369 -0.1328
14353SOL    HW147906   5.335   3.304   7.958 -1.8388  1.4873 -0.3742
14353SOL    HW247907   5.387   3.446   7.960  0.5115  0.6916 -1.5023
14354SOL     OW47908   5.715   5.218   8.995  0.1245 -0.2210  0.2794
14354SOL    HW147909   5.715   5.258   8.908 -0.6703 -0.3961  0.1932
14354SOL    HW247910   5.795   5.165   8.997  1.7488  2.0654  0.7424
14355SOL     OW47911   5.249   5.445   8.421  0.0505 -0.6820  0.2209
14355SOL    HW147912   5.206   5.521   8.461 -0.5250 -1.2960  0.7783
14355SOL    HW247913   5.203   5.433   8.338  1.6210  0.9448 -0.9531
14356SOL     OW47914   6.634   4.089   0.934 -0.4595  0.0431  0.3704
14356SOL    HW147915   6.655   4.141   0.857  1.0169  0.8512  1.2798
14356SOL    HW247916   6.668   4.001   0.913  0.2924  0.3549  0.2461
14357SOL     OW47917   6.699   3.636   8.119  0.3877 -0.0636  0.4796
14357SOL    HW147918   6.665   3.551   8.094  1.0920  0.5179 -2.8494
14357SOL    HW247919   6.762   3.617   8.189  0.1436 -2.1905  0.1850
14358SOL     OW47920   3.889   2.943   5.154 -0.7403 -0.6295  0.3227
14358SOL    HW147921   3.827   2.892   5.102 -0.0035 -0.2030 -1.0159
14358SOL    HW247922   3.960   2.881   5.174 -1.3831 -1.0107  1.5283
14359SOL     OW47923   4.526   6.590   8.173  0.9872  1.0281 -0.1629
14359SOL    HW147924   4.503   6.515   8.117 -2.6876  1.6858  0.2231
14359SOL    HW247925   4.501   6.562   8.261  0.8382  2.2102  0.1814
14360SOL     OW47926   4.709   7.909   0.445  0.1551 -0.4198  0.1679
14360SOL    HW147927   4.694   7.825   0.402 -0.4512 -0.8737  1.2435
14360SOL    HW247928   4.800   7.930   0.426 -0.0132 -0.7444 -1.0933
14361SOL     OW47929   6.788   3.988   8.955 -0.5024 -0.1291 -0.4728
14361SOL    HW147930   6.878   4.020   8.948 -0.8517  0.9350 -0.3788
14361SOL    HW247931   6.754   4.031   9.033 -0.9572 -0.8813 -0.2471
14362SOL     OW47932   5.963   5.714   7.856  0.9583 -0.2851 -0.3547
14362SOL    HW147933   5.966   5.793   7.802  2.2930 -0.6177 -0.8236
14362SOL    HW247934   6.021   5.734   7.930 -0.5533  0.0233  0.7922
14363SOL     OW47935   5.150   6.013   7.359 -0.7940  0.6996  0.5247
14363SOL    HW147936   5.133   6.055   7.443  2.5036  1.3055  1.0559
14363SOL    HW247937   5.218   5.948   7.378 -0.0657  0.7436 -1.6210
14364SOL     OW47938   5.443   5.493   8.862  0.5104  0.6575  0.7076
14364SOL    HW147939   5.351   5.518   8.856  0.1136 -0.7096  0.7172
14364SOL    HW247940   5.482   5.521   8.779 -0.4943 -0.9469 -0.3506
14365SOL     OW47941   6.778   4.338   7.848  0.5271 -0.0413  0.1262
14365SOL    HW147942   6.864   4.323   7.809  0.3388 -0.4991 -0.1179
14365SOL    HW247943   6.752   4.252   7.882  0.5803  0.2920  1.0421
14366SOL     OW47944   4.974   3.998   7.873 -0.4131  0.4861 -0.0866
14366SOL    HW147945   4.881   4.003   7.895 -0.7228  0.0191 -1.2292
14366SOL    HW247946   4.995   4.085   7.840 -0.9532  0.0363 -1.6837
14367SOL     OW47947   1.103   7.111   7.296  0.6359 -0.1524 -0.4350
14367SOL    HW147948   1.093   7.195   7.342  0.3314 -2.1145  3.5663
14367SOL    HW247949   1.198   7.103   7.283  0.5990  1.1700 -1.7512
14368SOL     OW47950   4.990   3.668   8.061  0.0615  0.3484 -0.0604
14368SOL    HW147951   4.958   3.755   8.084 -1.4129 -0.2898  0.4386
14368SOL    HW247952   4.974   3.615   8.139  2.0618 -0.1115  0.0845
14369SOL     OW47953   4.334   5.220   8.983  0.3125 -0.5593 -0.8131
14369SOL    HW147954   4.410   5.242   8.929  1.4307 -0.6824  0.6528
14369SOL    HW247955   4.370   5.207   9.071 -1.4401 -0.4065 -0.0307
14370SOL     OW47956   2.776   6.232   5.861 -0.2219 -0.2825  0.5208
14370SOL    HW147957   2.722   6.219   5.783  0.2624  0.7617 -0.0099
14370SOL    HW247958   2.726   6.191   5.932 -0.2631 -2.0383 -0.4660
14371SOL     OW47959   3.960   5.317   8.175 -0.2064  0.2153  0.2389
14371SOL    HW147960   3.970   5.284   8.086 -1.4009 -0.3595  0.3043
14371SOL    HW247961   3.881   5.371   8.172  1.0524  2.1790  0.4128
14372SOL     OW47962   5.306   4.428   9.479 -0.2103 -0.3559 -0.0604
14372SOL    HW147963   5.320   4.454   9.388 -0.1263  0.0901  0.0746
14372SOL    HW247964   5.316   4.510   9.528  1.2668 -0.8623  0.5110
14373SOL     OW47965   4.825   5.599   8.459 -0.0984  0.5714 -0.3549
14373SOL    HW147966   4.875   5.655   8.519 -0.8711  0.4110  0.4726
14373SOL    HW247967   4.811   5.653   8.381 -0.2756  1.3033  0.1757
14374SOL     OW47968   5.190   5.599   0.076  0.2454  0.1131  0.3566
14374SOL    HW147969   5.259   5.579   0.012  1.3411 -0.3059  1.6353
14374SOL    HW247970   5.223   5.676   0.123 -0.9178  0.9063 -0.0712
14375SOL     OW47971   3.286   5.261   6.907  0.1120 -0.3498 -0.3708
14375SOL    HW147972   3.257   5.184   6.857 -2.7472  0.8573 -0.7602
14375SOL    HW247973   3.303   5.227   6.995  0.2977 -1.6521 -0.8822
14376SOL     OW47974   4.874   2.386   5.819 -0.0351  0.2093 -0.3707
14376SOL    HW147975   4.844   2.340   5.897 -0.6398  0.7860 -0.2587
14376SOL    HW247976   4.969   2.383   5.824 -0.0698 -0.3207  0.0510
14377SOL     OW47977   5.835   5.836   6.947  0.1703  0.1543  0.4578
14377SOL    HW147978   5.875   5.750   6.962  1.2819  0.6891  0.6986
14377SOL    HW247979   5.749   5.830   6.989 -0.6633 -1.5080 -1.3387
14378SOL     OW47980   3.552   4.361   8.852 -0.0334  0.1712  0.1125
14378SOL    HW147981   3.505   4.373   8.934  0.8828  0.4439  0.6088
14378SOL    HW247982   3.592   4.274   8.860 -0.7372 -0.2208 -0.4654
14379SOL     OW47983   8.423   4.679   7.606  0.6191  0.3420  0.4633
14379SOL    HW147984   8.505   4.674   7.557 -0.3531  1.3686 -1.3423
14379SOL    HW247985   8.368   4.609   7.569  0.0753  0.7462  0.4971
14380SOL     OW47986   7.664   4.645   8.996  0.4072 -0.0974 -0.0909
14380SOL    HW147987   7.635   4.725   9.039 -0.4250  0.1343 -1.0387
14380SOL    HW247988   7.694   4.673   8.909  1.4080 -0.6394  0.0661
14381SOL     OW47989   8.256   3.107   7.884 -0.1260 -0.1613 -0.3612
14381SOL    HW147990   8.248   3.089   7.978  0.6060 -0.1244 -0.2788
14381SOL    HW247991   8.263   3.203   7.879  0.3433 -0.1939 -0.4004
14382SOL     OW47992   2.702   2.229   9.162  0.7627  0.1439  0.1087
14382SOL    HW147993   2.654   2.146   9.162  0.3638  0.2711 -2.5090
14382SOL    HW247994   2.634   2.295   9.179  0.5770  0.1005 -0.4422
14383SOL     OW47995   2.323   5.253   7.674 -0.3540  0.0349  0.6099
14383SOL    HW147996   2.232   5.228   7.659 -0.9614  2.4817 -0.3381
14383SOL    HW247997   2.317   5.340   7.715  1.5530  0.2466  0.5286
14384SOL     OW47998   1.956   4.779   7.935 -0.3688 -0.5957  0.2152
14384SOL    HW147999   1.998   4.720   7.997  1.0319  1.1631  1.0222
14384SOL    HW248000   1.864   4.753   7.937  0.2597 -3.0343  0.1539
14385SOL     OW48001   5.087   3.037   9.435 -0.2250  0.7875  0.1128
14385SOL    HW148002   5.161   2.977   9.445  0.4510  1.1905 -1.8917
14385SOL    HW248003   5.127   3.124   9.430 -0.2653  0.7994 -4.5559
14386SOL     OW48004   5.194   4.009   7.039  0.0330 -0.2954 -0.2130
14386SOL    HW148005   5.119   4.051   6.997  0.6963  0.3155 -0.7929
14386SOL    HW248006   5.258   4.079   7.051  0.7315 -0.9192 -0.2169
14387SOL     OW48007   4.943   4.664   7.931 -0.2969 -0.0482 -0.1219
14387SOL    HW148008   4.982   4.680   8.017  1.8740  4.4670 -1.6537
14387SOL    HW248009   4.867   4.722   7.928 -1.0585 -1.0438 -0.8951
14388SOL     OW48010   3.996   2.138   6.057  0.7897  0.3880 -0.4549
14388SOL    HW148011   3.924   2.143   5.995 -0.2820 -0.1637  0.7013
14388SOL    HW248012   3.977   2.060   6.110  3.5242 -1.2460 -1.6829
14389SOL     OW48013   4.042   5.014   8.171  0.3354 -0.1477 -0.3762
14389SOL    HW148014   4.118   4.976   8.215 -1.7361 -1.8000  2.0412
14389SOL    HW248015   4.022   5.093   8.220  0.7007  0.4970 -1.2503
14390SOL     OW48016   5.843   7.089   8.907 -0.0874 -0.1151  0.4509
14390SOL    HW148017   5.829   7.020   8.842 -0.3034  0.5752 -0.2489
14390SOL    HW248018   5.885   7.044   8.981 -0.5381 -1.0615  0.1544
14391SOL     OW48019   4.519   2.984   5.887 -0.3071 -0.0447  0.5324
14391SOL    HW148020   4.523   3.000   5.793 -0.8810 -2.5103  0.0249
14391SOL    HW248021   4.434   3.019   5.914 -1.3056 -1.5741 -0.4277
14392SOL     OW48022   5.431   4.734   8.569 -0.3482 -0.3097  0.3668
14392SOL    HW148023   5.360   4.730   8.505 -2.4789  0.8901  2.4884
14392SOL    HW248024   5.396   4.788   8.640  2.4446 -0.3135  1.8761
14393SOL     OW48025   6.884   4.152   8.185  0.0685 -0.0547  0.0309
14393SOL    HW148026   6.950   4.083   8.195 -1.1848 -1.5496 -1.3115
14393SOL    HW248027   6.836   4.151   8.268  0.8932  0.1660  0.5313
14394SOL     OW48028   5.336   6.821   7.705 -0.0605  0.1599 -0.8170
14394SOL    HW148029   5.337   6.729   7.678  0.2151 -0.2864  0.6234
14394SOL    HW248030   5.280   6.864   7.640 -1.1131 -1.2261 -0.8885
14395SOL     OW48031   7.064   5.214   8.990 -0.1198 -0.0199  0.2969
14395SOL    HW148032   6.977   5.181   9.013 -0.1541 -0.8348 -0.9277
14395SOL    HW248033   7.058   5.308   9.004 -1.1748 -0.0756  0.3225
14396SOL     OW48034   4.124   4.527   7.354 -0.1825  0.6476  0.0820
14396SOL    HW148035   4.168   4.598   7.401 -0.5198  0.2113  1.1003
14396SOL    HW248036   4.031   4.540   7.372 -0.5308  1.6435 -2.1739
14397SOL     OW48037   4.029   7.891   8.361  0.0172 -0.1174 -0.4521
14397SOL    HW148038   3.955   7.922   8.309 -0.6549 -2.2799 -0.8914
14397SOL    HW248039   4.104   7.941   8.328 -1.1165  1.7274 -0.3706
14398SOL     OW48040   3.242   3.663   2.462  0.0238 -0.1384 -0.4761
14398SOL    HW148041   3.268   3.571   2.455 -0.7919 -0.2617 -2.7056
14398SOL    HW248042   3.295   3.698   2.534  1.0556 -2.0946 -0.2189
14399SOL     OW48043   2.937   5.888   5.537  0.5521 -0.9328 -0.2933
14399SOL    HW148044   2.917   5.819   5.601  0.5578  0.7808  1.6465
14399SOL    HW248045   2.950   5.967   5.590  0.9512  0.4926 -2.4067
14400SOL     OW48046   4.220   6.363   0.704  0.1056 -0.2817  0.3933
14400SOL    HW148047   4.132   6.392   0.731  0.6310  0.9822  0.8294
14400SOL    HW248048   4.214   6.268   0.703 -0.7139 -0.3055  2.4153
14401SOL     OW48049   6.115   4.242   6.814  0.3683  0.5891 -0.9172
14401SOL    HW148050   6.121   4.150   6.789  2.5817  0.4541 -0.0898
14401SOL    HW248051   6.197   4.281   6.782  1.0800  1.4811  1.7526
14402SOL     OW48052   3.525   4.061   9.096  0.7131  0.1553  0.2291
14402SOL    HW148053   3.447   4.115   9.109 -0.3180 -1.1895 -0.2020
14402SOL    HW248054   3.526   4.002   9.171  2.7644  1.7803  1.5925
14403SOL     OW48055   5.306   4.973   8.678 -0.1920  0.2349  0.2058
14403SOL    HW148056   5.354   4.951   8.758 -0.3606  0.5790  0.4047
14403SOL    HW248057   5.303   5.068   8.677 -1.6227  0.2196  0.6590
14404SOL     OW48058   5.732   5.131   7.767  0.4449 -0.5568  0.0414
14404SOL    HW148059   5.661   5.101   7.823 -0.1841  0.6295 -0.0906
14404SOL    HW248060   5.759   5.215   7.805 -0.0518  0.3146 -1.4453
14405SOL     OW48061   4.812   5.365   7.561  0.3898 -0.0684 -0.7643
14405SOL    HW148062   4.793   5.355   7.654 -0.7489  1.3080 -0.8074
14405SOL    HW248063   4.894   5.319   7.547  1.3992  1.0134  1.2556
14406SOL     OW48064   4.833   1.862   1.025  0.1289 -0.0875  0.2523
14406SOL    HW148065   4.801   1.782   1.065  0.5904 -0.3866  0.0223
14406SOL    HW248066   4.796   1.860   0.936  1.5393 -0.9045 -0.3392
14407SOL     OW48067   4.743   5.631   0.194  0.7227 -0.4418 -0.6453
14407SOL    HW148068   4.820   5.640   0.139  2.0309 -1.5073  0.9416
14407SOL    HW248069   4.767   5.566   0.260 -0.4644  1.3385  1.6936
14408SOL     OW48070   2.644   4.577   6.020 -0.3041 -0.1838 -0.8112
14408SOL    HW148071   2.594   4.506   6.061  0.5340  0.0938  0.7613
14408SOL    HW248072   2.657   4.641   6.090 -0.0308  0.9926 -1.8928
14409SOL     OW48073   5.467   5.657   0.249  0.0886 -0.1733  0.0271
14409SOL    HW148074   5.421   5.740   0.244  0.4704  0.0731  0.6008
14409SOL    HW248075   5.506   5.646   0.162 -0.3789 -0.0084 -0.2111
14410SOL     OW48076   4.820   1.845   9.589  0.1278  0.4382 -0.3262
14410SOL    HW148077   4.861   1.924   9.554 -0.1663  0.3535 -0.8702
14410SOL    HW248078   4.732   1.872   9.615 -0.3449  0.0668 -1.4859
14411SOL     OW48079   2.002   5.206   6.902 -0.6680 -0.1332  0.5279
14411SOL    HW148080   2.009   5.111   6.913  0.6958 -0.1090  0.0263
14411SOL    HW248081   2.071   5.242   6.957  0.7754  0.3887 -1.5403
14412SOL     OW48082   8.460   4.395   9.656 -0.5630  0.1290 -0.4471
14412SOL    HW148083   8.547   4.430   9.637 -0.4153 -0.3562 -0.6992
14412SOL    HW248084   8.403   4.437   9.592 -0.4434  0.1607 -0.5356
14413SOL     OW48085   5.535   6.481   7.910  0.3218  0.6435  0.6905
14413SOL    HW148086   5.626   6.492   7.883  0.3387 -0.1070  0.3991
14413SOL    HW248087   5.538   6.418   7.982  0.1752  1.8524  1.7770
14414SOL     OW48088   4.993   6.543   7.019  0.4854 -0.6083 -0.1477
14414SOL    HW148089   4.960   6.566   7.106  0.3928  1.7819 -0.7439
14414SOL    HW248090   4.915   6.517   6.970  0.1645  0.2480 -0.1268
14415SOL     OW48091   2.562   4.842   8.076  0.1771  0.2415  0.0047
14415SOL    HW148092   2.485   4.828   8.021 -0.5321 -2.4834  1.5310
14415SOL    HW248093   2.636   4.824   8.017 -0.4984 -0.7533 -0.5722
14416SOL     OW48094   4.644   5.429   7.369 -0.4890  0.4071  0.2600
14416SOL    HW148095   4.605   5.347   7.338 -0.5125 -0.0884  1.5081
14416SOL    HW248096   4.693   5.403   7.447 -1.6554  1.7908  1.5125
14417SOL     OW48097   6.767   4.686   0.303  0.1289  0.1408  0.4409
14417SOL    HW148098   6.820   4.765   0.292  0.2552  0.1023  0.7631
14417SOL    HW248099   6.831   4.618   0.325 -0.1756  0.3386  2.0145
14418SOL     OW48100   7.224   7.224   7.470 -0.5610 -0.0436 -0.4010
14418SOL    HW148101   7.283   7.298   7.461 -0.7010  0.3463  1.5179
14418SOL    HW248102   7.145   7.260   7.511 -0.8292 -1.1630  0.1161
14419SOL     OW48103   4.425   3.566   8.924  0.3335 -0.0922 -0.4788
14419SOL    HW148104   4.337   3.531   8.942  1.4248 -3.0832 -0.3216
14419SOL    HW248105   4.473   3.554   9.005  1.7734 -1.7865 -1.4952
14420SOL     OW48106   7.219   2.867   8.400  0.6635  0.8254 -0.6711
14420SOL    HW148107   7.250   2.946   8.445  1.1464  0.1616  0.2005
14420SOL    HW248108   7.287   2.801   8.418 -1.2329 -0.6982  1.3080
14421SOL     OW48109   2.523   6.439   7.717  0.8147  0.1394  0.5066
14421SOL    HW148110   2.535   6.526   7.678 -0.1481 -0.3557 -0.9929
14421SOL    HW248111   2.610   6.399   7.715  0.5921 -0.5085 -2.8801
14422SOL     OW48112   2.436   4.904   5.505  0.4424  0.2172  0.4390
14422SOL    HW148113   2.526   4.939   5.501  0.1665  0.8705 -0.6156
14422SOL    HW248114   2.429   4.866   5.592  1.0944  1.9825  1.3277
14423SOL     OW48115   3.965   4.606   0.411  0.1379 -0.2406 -0.0006
14423SOL    HW148116   3.995   4.520   0.441  1.8430  0.3185  0.0097
14423SOL    HW248117   3.926   4.646   0.488  2.2139  0.1977  0.8902
14424SOL     OW48118   7.316   3.161   7.585  0.1127 -0.2071 -0.4564
14424SOL    HW148119   7.233   3.206   7.599  0.6959  0.5774  0.7085
14424SOL    HW248120   7.329   3.109   7.663  2.2985  2.3614  1.0815
14425SOL     OW48121   3.270   6.110   8.979 -0.6432  0.3321 -0.0467
14425SOL    HW148122   3.213   6.103   9.056 -1.3338  3.3765 -0.1361
14425SOL    HW248123   3.298   6.020   8.961 -3.1738 -0.9281  1.7005
14426SOL     OW48124   3.541   7.535   9.088  0.0144 -0.4225 -0.2819
14426SOL    HW148125   3.461   7.534   9.035  0.7567 -3.9809 -1.5918
14426SOL    HW248126   3.521   7.480   9.163  0.9949 -0.7120 -0.2265
14427SOL     OW48127   2.956   6.716   6.187 -0.2127 -0.5022  0.1743
14427SOL    HW148128   2.901   6.718   6.108  1.4653  0.4803 -1.0433
14427SOL    HW248129   2.906   6.663   6.249 -1.3330 -1.8751 -1.7526
14428SOL     OW48130   4.660   8.157   5.147 -0.0071  0.4582 -0.5890
14428SOL    HW148131   4.567   8.159   5.123 -0.4501  1.7391  1.0308
14428SOL    HW248132   4.691   8.246   5.131  0.4303  0.5532  0.6666
14429SOL     OW48133   6.113   2.889   7.276 -0.2256  0.4314 -0.5395
14429SOL    HW148134   6.207   2.892   7.258 -0.2363  2.6846 -0.5297
14429SOL    HW248135   6.102   2.811   7.331  1.2261 -1.2089 -2.4109
14430SOL     OW48136   3.668   6.113   9.752  0.0243  0.4991  0.3551
14430SOL    HW148137   3.665   6.207   9.768  0.5312  0.7977 -1.1537
14430SOL    HW248138   3.612   6.075   9.820 -1.4694  2.0146  0.0294
14431SOL     OW48139   7.000   7.751   6.429 -0.1688  0.6671  0.2404
14431SOL    HW148140   7.002   7.842   6.401  1.3244  0.7763  0.6323
14431SOL    HW248141   7.085   7.736   6.470 -0.1132 -1.0996 -0.4126
14432SOL     OW48142   5.979   3.199   8.592 -0.2577  0.4817  0.3738
14432SOL    HW148143   6.071   3.200   8.567 -0.1681 -0.4671  0.6284
14432SOL    HW248144   5.933   3.237   8.517  0.3753  1.5325  0.4872
14433SOL     OW48145   2.101   3.930   8.236  0.4624 -0.0915 -0.0222
14433SOL    HW148146   2.061   3.947   8.151 -0.0897  1.4154  0.5100
14433SOL    HW248147   2.154   4.008   8.253  2.1379 -1.2242  0.1502
14434SOL     OW48148   5.947   6.364   8.249  0.2089  0.0788  0.0094
14434SOL    HW148149   5.873   6.412   8.288 -2.7565 -0.9859 -3.6819
14434SOL    HW248150   6.001   6.433   8.209 -0.6429  0.7309 -0.0624
14435SOL     OW48151   5.448   4.780   8.846 -0.1288  1.1794  0.3687
14435SOL    HW148152   5.443   4.771   8.941  1.0062  1.4923  0.4697
14435SOL    HW248153   5.540   4.798   8.828 -0.0230 -0.3840 -0.9235
14436SOL     OW48154   2.512   4.554   8.280  0.3721 -1.1722 -0.1412
14436SOL    HW148155   2.492   4.577   8.190  0.2307 -1.9548 -0.3171
14436SOL    HW248156   2.533   4.638   8.322  1.0252 -0.8695 -1.0338
14437SOL     OW48157   1.536   4.985   0.870 -0.3761  0.0525  0.3226
14437SOL    HW148158   1.467   4.931   0.831 -0.5849  0.5927 -0.0612
14437SOL    HW248159   1.510   5.075   0.851  0.1660  0.2792  0.6325
14438SOL     OW48160   4.574   5.887   0.463 -0.0000 -0.7596 -0.0821
14438SOL    HW148161   4.618   5.972   0.463 -0.2479 -0.6209 -1.0784
14438SOL    HW248162   4.645   5.823   0.456  0.0993 -0.5570 -1.1576
14439SOL     OW48163   4.903   7.712   9.116 -0.2415 -0.9314 -0.2691
14439SOL    HW148164   4.892   7.777   9.184  0.6075 -1.1069  0.0531
14439SOL    HW248165   4.998   7.703   9.106 -0.3306 -2.3168 -0.1034
14440SOL     OW48166   3.414   4.417   6.913 -0.1887  0.3315  0.3268
14440SOL    HW148167   3.497   4.371   6.925 -0.0346  0.9003  1.6269
14440SOL    HW248168   3.392   4.404   6.821  3.0186  2.8527 -1.0136
14441SOL     OW48169   3.695   6.398   9.331  0.1384 -0.1781  0.7884
14441SOL    HW148170   3.601   6.418   9.326  0.4803  1.3636 -0.1328
14441SOL    HW248171   3.726   6.448   9.406  0.3693 -0.0396  0.6016
14442SOL     OW48172   2.652   5.539   8.162  0.6174 -0.0501  0.6890
14442SOL    HW148173   2.603   5.565   8.084 -0.0503 -0.4556  0.9733
14442SOL    HW248174   2.597   5.566   8.235  1.8812  1.6558  1.0858
14443SOL     OW48175   4.566   6.366   8.007  0.2626 -0.1052 -0.4108
14443SOL    HW148176   4.589   6.428   7.938 -0.0305 -0.3179 -0.7061
14443SOL    HW248177   4.614   6.286   7.984 -0.0823 -0.2765 -0.5505
14444SOL     OW48178   3.550   1.896   8.454 -0.3791  0.1711 -0.5327
14444SOL    HW148179   3.492   1.889   8.530 -1.6258  3.5248 -1.0193
14444SOL    HW248180   3.615   1.961   8.478  0.5163 -0.2674 -1.6282
14445SOL     OW48181   5.528   6.699   8.349 -0.2416 -0.2450  0.1976
14445SOL    HW148182   5.516   6.719   8.256 -0.6324 -3.5312 -0.5789
14445SOL    HW248183   5.440   6.685   8.382 -0.0811  0.6158  1.0272
14446SOL     OW48184   4.966   2.839   8.371 -0.9297  0.2880  0.1932
14446SOL    HW148185   4.988   2.891   8.447 -0.3388 -0.0572  0.2588
14446SOL    HW248186   4.912   2.897   8.317  2.7803  2.4346 -1.6189
14447SOL     OW48187   7.476   5.758   6.838  0.8736  0.1460  0.0921
14447SOL    HW148188   7.510   5.822   6.776 -1.4779  0.7758 -0.6799
14447SOL    HW248189   7.535   5.763   6.913  0.9483  3.0441 -0.0488
14448SOL     OW48190   5.288   2.980   6.885  0.4573 -0.5153  0.1136
14448SOL    HW148191   5.217   2.925   6.917 -1.6054  1.6582 -0.4551
14448SOL    HW248192   5.330   3.015   6.963 -0.6383  0.0334  0.4622
14449SOL     OW48193   5.204   4.968   0.240 -0.4097  0.3494 -0.1600
14449SOL    HW148194   5.111   4.957   0.260 -0.6468  0.9647 -0.8621
14449SOL    HW248195   5.207   5.046   0.183  0.4838  0.0837 -0.4920
14450SOL     OW48196   6.870   1.762   8.264  0.1148 -0.1962 -0.1721
14450SOL    HW148197   6.938   1.739   8.328 -0.1823 -1.6452 -0.3574
14450SOL    HW248198   6.918   1.805   8.193  0.3284  2.6050  1.4810
14451SOL     OW48199   3.992   5.600   8.961  0.3285  0.2091 -0.1761
14451SOL    HW148200   4.001   5.690   8.928  2.0699  0.7262  1.5254
14451SOL    HW248201   4.051   5.548   8.907  0.6492  0.4182 -0.0267
14452SOL     OW48202   5.360   3.957   8.131 -0.7947  0.0581 -0.3535
14452SOL    HW148203   5.330   4.013   8.202 -1.3115 -3.4069  2.4639
14452SOL    HW248204   5.455   3.950   8.144 -0.2540  2.2830 -2.4252
14453SOL     OW48205   6.259   4.293   7.406  0.0139 -0.8386  0.1770
14453SOL    HW148206   6.335   4.236   7.420  1.6461  1.1861  0.1642
14453SOL    HW248207   6.214   4.294   7.490 -0.3998 -2.5511  0.0158
14454SOL     OW48208   7.107   6.096   8.221 -0.1805 -0.1291  0.1408
14454SOL    HW148209   7.198   6.120   8.236  0.2642 -1.2073 -0.6525
14454SOL    HW248210   7.078   6.152   8.148  0.5852 -1.3158 -1.1345
14455SOL     OW48211   5.734   6.539   9.129  0.1218  0.3573  0.1756
14455SOL    HW148212   5.732   6.582   9.215  0.9355  3.2260 -1.1153
14455SOL    HW248213   5.784   6.599   9.074  2.2244 -2.7726 -1.6407
14456SOL     OW48214   2.444   5.107   8.611 -0.1480 -0.4675 -0.1773
14456SOL    HW148215   2.458   5.013   8.619  2.4804 -0.0526  1.0664
14456SOL    HW248216   2.395   5.131   8.689 -2.2532 -0.9647 -1.2746
14457SOL     OW48217   2.439   6.132   0.154 -0.2003  0.1436 -0.7065
14457SOL    HW148218   2.390   6.150   0.074 -1.3991  1.1975  0.2043
14457SOL    HW248219   2.444   6.037   0.159 -1.7964  0.0114 -1.0753
14458SOL     OW48220   1.898   3.996   0.386 -0.2582 -0.1130 -0.1292
14458SOL    HW148221   1.921   3.960   0.472  0.5139  0.0269 -0.2696
14458SOL    HW248222   1.860   4.082   0.406  2.9527  1.4162 -0.0439
14459SOL     OW48223   2.480   2.151   7.744  0.3359  0.0338 -0.6855
14459SOL    HW148224   2.435   2.214   7.689 -2.4476 -1.8589 -0.8041
14459SOL    HW248225   2.510   2.083   7.683 -1.3222 -1.2614 -0.1438
14460SOL     OW48226   1.932   2.614   6.959 -0.0120  0.4492  0.1905
14460SOL    HW148227   2.005   2.577   7.008 -0.0787  0.7478  0.5170
14460SOL    HW248228   1.953   2.707   6.950 -0.2847  0.5099  0.1605
14461SOL     OW48229   7.894   6.048   7.341 -0.5157  0.0348  0.0778
14461SOL    HW148230   7.977   6.089   7.363 -0.0386 -1.3626  1.0419
14461SOL    HW248231   7.876   6.076   7.251  1.3076 -0.1280 -0.3705
14462SOL     OW48232   3.390   4.637   7.577  0.0475  0.8625  0.8868
14462SOL    HW148233   3.469   4.670   7.620  0.1841  2.7235 -0.6425
14462SOL    HW248234   3.363   4.563   7.630  3.5505 -0.6991  0.7696
14463SOL     OW48235   4.396   3.782   8.057 -0.3101  0.2271 -0.1079
14463SOL    HW148236   4.381   3.702   8.006 -0.1779 -0.4555  0.8927
14463SOL    HW248237   4.444   3.752   8.135 -1.3315  1.0776  0.8902
14464SOL     OW48238   5.549   4.148   8.215 -0.4394  0.1667 -0.3415
14464SOL    HW148239   5.485   4.146   8.287  0.1603 -0.5193  0.1830
14464SOL    HW248240   5.614   4.083   8.239 -0.7047 -0.7432 -1.9793
14465SOL     OW48241   4.761   2.983   8.189  0.3474 -0.1033  0.0038
14465SOL    HW148242   4.707   3.052   8.227 -0.3184  0.1954 -1.4193
14465SOL    HW248243   4.703   2.939   8.126  1.7350  0.2236 -1.5717
14466SOL     OW48244   5.118   4.623   7.232 -0.7924 -0.1443  0.2279
14466SOL    HW148245   5.165   4.607   7.149  1.8174 -0.9094  1.7243
14466SOL    HW248246   5.137   4.546   7.285 -2.8601  0.0930  1.4056
14467SOL     OW48247   4.228   4.820   0.235  0.1176  0.2438 -0.3264
14467SOL    HW148248   4.282   4.874   0.293  0.1692 -0.4241  0.2663
14467SOL    HW248249   4.189   4.882   0.174 -0.9155  1.1371  1.1871
14468SOL     OW48250   6.434   2.763   8.343 -0.2942  0.0983 -0.1720
14468SOL    HW148251   6.461   2.683   8.390 -2.0885 -0.2311  0.3689
14468SOL    HW248252   6.376   2.808   8.404  0.9775  2.0671 -0.3211
14469SOL     OW48253   5.860   3.200   7.429  0.1987 -0.5347 -0.3676
14469SOL    HW148254   5.765   3.202   7.423  0.2085  1.0519 -0.3559
14469SOL    HW248255   5.880   3.229   7.518  0.7032  1.3525 -1.0308
14470SOL     OW48256   5.022   2.727   8.787 -1.0566 -0.1418 -0.0825
14470SOL    HW148257   5.028   2.755   8.878 -1.7282  1.0995 -0.3980
14470SOL    HW248258   5.072   2.791   8.738 -2.2675  0.2943 -0.7804
14471SOL     OW48259   1.769   3.416   5.990 -0.5706  0.5142  0.5268
14471SOL    HW148260   1.720   3.485   5.944 -1.8516 -1.7859 -1.8354
14471SOL    HW248261   1.702   3.360   6.028  0.4242  0.2014  1.8830
14472SOL     OW48262   4.510   6.204   8.622  0.3603  0.4030 -0.3217
14472SOL    HW148263   4.433   6.183   8.675  0.7289  1.8356  0.8601
14472SOL    HW248264   4.531   6.123   8.576 -0.3365 -0.7338  1.2799
14473SOL     OW48265   3.031   2.470   0.742  0.2007  0.0835  1.0763
14473SOL    HW148266   3.045   2.412   0.817  2.4946 -1.2151 -0.2358
14473SOL    HW248267   3.109   2.458   0.687 -1.1540  1.3146 -1.3026
14474SOL     OW48268   6.401   3.323   5.762 -0.3883 -0.0691 -0.4008
14474SOL    HW148269   6.365   3.303   5.675 -0.6547  0.9462 -0.5399
14474SOL    HW248270   6.363   3.409   5.784  0.8852  0.3967  0.0452
14475SOL     OW48271   3.707   5.488   7.671 -0.4665  0.4160 -0.0332
14475SOL    HW148272   3.694   5.414   7.611  0.4236  0.8578 -0.8006
14475SOL    HW248273   3.798   5.481   7.698 -0.7632  0.4307  1.0104
14476SOL     OW48274   5.975   3.812   8.793 -0.6638 -0.0893  0.4829
14476SOL    HW148275   6.026   3.879   8.747 -1.1452  0.9218  1.3834
14476SOL    HW248276   5.898   3.859   8.826 -1.9096 -1.4563 -0.3523
14477SOL     OW48277   5.764   6.250   9.635 -0.0653 -0.1827 -0.1778
14477SOL    HW148278   5.679   6.276   9.671  0.2338 -0.1169  0.5009
14477SOL    HW248279   5.788   6.171   9.684  0.7810  0.4379  0.4389
14478SOL     OW48280   1.157   5.200   8.985  0.5298  0.4083  0.4965
14478SOL    HW148281   1.075   5.153   8.976  1.8077 -2.3051  1.8281
14478SOL    HW248282   1.178   5.194   9.078  1.7983  1.9007  0.3563
14479SOL     OW48283   4.852   5.338   8.416 -0.0682  0.4009 -0.1311
14479SOL    HW148284   4.829   5.424   8.449 -0.6250  0.3518 -0.3889
14479SOL    HW248285   4.865   5.350   8.322  2.9197  0.8445  0.2360
14480SOL     OW48286   4.906   6.528   5.721  0.0912 -0.0246  0.1438
14480SOL    HW148287   4.992   6.570   5.713  0.5579 -0.3934  2.5852
14480SOL    HW248288   4.921   6.437   5.698  0.3157 -0.0414  0.3528
14481SOL     OW48289   6.280   5.156   8.805  0.0595 -0.2457 -0.4024
14481SOL    HW148290   6.340   5.135   8.733 -0.4739 -0.4031 -0.7991
14481SOL    HW248291   6.236   5.074   8.826  1.2255 -0.5493  1.0686
14482SOL     OW48292   4.912   3.520   1.676 -0.0514 -0.5976  0.6545
14482SOL    HW148293   4.980   3.580   1.644  0.9812 -1.3973  1.2751
14482SOL    HW248294   4.830   3.564   1.656  0.6160  0.0852 -0.7750
14483SOL     OW48295   4.156   1.214   9.687  0.0396 -0.4034 -0.0989
14483SOL    HW148296   4.126   1.124   9.694 -1.5205 -0.1700 -2.5595
14483SOL    HW248297   4.238   1.208   9.638  0.1071 -0.4893  0.0232
14484SOL     OW48298   2.618   5.294   8.033  0.2481  0.0675 -0.2605
14484SOL    HW148299   2.668   5.314   7.954 -0.2859  0.0089 -0.6195
14484SOL    HW248300   2.630   5.371   8.089 -0.7681  0.8788 -1.1192
14485SOL     OW48301   4.467   5.917   8.203 -0.4431  0.0671  0.0894
14485SOL    HW148302   4.452   5.836   8.253 -0.2427  0.7532  1.3049
14485SOL    HW248303   4.412   5.908   8.126 -1.2937 -0.7398  0.7676
14486SOL     OW48304   5.055   1.826   6.829  0.1192 -0.2155  0.3894
14486SOL    HW148305   5.072   1.912   6.867 -0.3556  0.4432 -0.8354
14486SOL    HW248306   5.064   1.765   6.903  0.8579  0.8278  1.1912
14487SOL     OW48307   4.831   6.028   9.670 -0.5485  0.5885 -0.6771
14487SOL    HW148308   4.809   6.059   9.758  0.1193 -1.1165  0.1238
14487SOL    HW248309   4.756   6.054   9.617 -1.7603  0.1761  0.7507
14488SOL     OW48310   3.497   5.736   2.330  0.2796 -0.3582 -0.0942
14488SOL    HW148311   3.592   5.729   2.318  0.5794  1.0101  1.2838
14488SOL    HW248312   3.470   5.800   2.265 -0.0404 -2.1301 -1.7981
14489SOL     OW48313   4.809   4.355   2.934 -0.1781 -0.3139  0.0361
14489SOL    HW148314   4.857   4.275   2.911  0.1908  0.3064 -1.5133
14489SOL    HW248315   4.786   4.344   3.026  1.5366 -1.3616  0.3918
14490SOL     OW48316   2.916   2.034   0.083 -0.0486 -0.4972  0.0072
14490SOL    HW148317   2.879   2.120   0.105 -3.1077 -1.8344  0.4995
14490SOL    HW248318   2.955   2.047  -0.004  0.8568  1.6820  0.6509
14491SOL     OW48319   3.174   5.619   1.380  0.1508  0.4145  0.1673
14491SOL    HW148320   3.124   5.649   1.304  1.0106  1.2536 -0.0743
14491SOL    HW248321   3.108   5.613   1.450 -0.8065 -1.1505 -0.8041
14492SOL     OW48322   4.764   4.358   9.599  0.1691  0.2329  0.0301
14492SOL    HW148323   4.760   4.389   9.690 -0.5666  1.2731 -0.3343
14492SOL    HW248324   4.847   4.393   9.566  1.2134 -1.4728  0.7339
14493SOL     OW48325   4.698   7.195   9.380  0.0582 -0.1224 -0.8014
14493SOL    HW148326   4.789   7.216   9.357  0.7624 -0.9723  0.9855
14493SOL    HW248327   4.653   7.279   9.377  0.7850  0.2499 -2.1396
14494SOL     OW48328   4.246   4.345   0.464  0.2488  0.7350 -0.3501
14494SOL    HW148329   4.157   4.344   0.499  0.2512  1.8844 -0.2591
14494SOL    HW248330   4.302   4.338   0.541  0.2374  0.5628 -0.3580
14495SOL     OW48331   5.485   4.552   9.279 -0.0215 -0.3488 -0.6947
14495SOL    HW148332   5.553   4.585   9.337  0.0049 -0.9937 -0.3548
14495SOL    HW248333   5.459   4.628   9.227  0.8028 -0.0465 -0.6760
14496SOL     OW48334   5.499   3.754   1.847  0.6293 -0.4053  0.2835
14496SOL    HW148335   5.508   3.773   1.753  0.3598  0.3146  0.3981
14496SOL    HW248336   5.588   3.759   1.881  0.5351  0.9829  0.3635
14497SOL     OW48337   3.607   4.722   9.667  0.1682  0.4697  0.1791
14497SOL    HW148338   3.658   4.783   9.613  0.3705  0.9263  0.8703
14497SOL    HW248339   3.661   4.707   9.744  0.2759 -0.8795 -0.1292
14498SOL     OW48340   3.376   6.285   0.023  0.0101  0.5589 -0.3316
14498SOL    HW148341   3.310   6.261  -0.042  0.4190  0.7528 -0.8150
14498SOL    HW248342   3.383   6.380   0.016  0.4225  0.5272 -0.3554
14499SOL     OW48343   5.734   4.603   6.977 -0.2617  0.0324  0.0111
14499SOL    HW148344   5.677   4.542   6.931 -1.9462  0.3936  1.5028
14499SOL    HW248345   5.823   4.581   6.948 -0.9967 -1.7699 -0.9838
14500SOL     OW48346   4.518   3.302   7.826 -0.8569  0.5668 -0.1093
14500SOL    HW148347   4.483   3.390   7.840 -1.8639 -0.1309  2.5183
14500SOL    HW248348   4.443   3.244   7.842  0.3636 -0.8192  0.8566
14501SOL     OW48349   2.389   6.024   8.486 -0.0322  0.3025  0.6218
14501SOL    HW148350   2.361   6.085   8.419 -0.1917 -0.6619 -0.2116
14501SOL    HW248351   2.312   5.970   8.503 -0.5216  1.5492  2.7850
14502SOL     OW48352   5.678   7.960   9.017  0.1112  0.1779 -0.0318
14502SOL    HW148353   5.623   8.039   9.020  0.2341  0.3366 -1.2986
14502SOL    HW248354   5.755   7.986   8.966  0.3069 -0.6589 -0.1832
14503SOL     OW48355   6.055   4.796   0.560  0.3756 -0.3560  0.5096
14503SOL    HW148356   6.103   4.877   0.541 -0.1220 -0.3987 -1.0516
14503SOL    HW248357   6.103   4.728   0.513 -0.9460 -0.4713 -0.7153
14504SOL     OW48358   6.874   5.407   9.230 -0.3799  0.6487 -0.1009
14504SOL    HW148359   6.922   5.488   9.217 -1.6938  1.4532 -0.0580
14504SOL    HW248360   6.874   5.394   9.325  0.7019  0.0318 -0.1665
14505SOL     OW48361   5.214   3.844   0.163  0.3175 -0.0461  0.4929
14505SOL    HW148362   5.263   3.845   0.081  2.5804  0.9090  1.7488
14505SOL    HW248363   5.231   3.930   0.201  0.8459 -1.0877  2.7679
14506SOL     OW48364   3.590   6.024   1.058 -0.2291 -0.0678  0.1552
14506SOL    HW148365   3.680   6.055   1.056  0.3893 -1.8163 -0.6135
14506SOL    HW248366   3.581   5.981   1.143  0.9687 -3.3904 -1.2596
14507SOL     OW48367   5.640   5.579   8.644  0.0530 -0.2231 -0.0600
14507SOL    HW148368   5.655   5.546   8.556 -0.8227 -0.1595 -0.2473
14507SOL    HW248369   5.653   5.673   8.638 -1.2636 -0.0431 -0.4363
14508SOL     OW48370   3.661   4.959   9.539 -0.1712 -0.0951  0.0853
14508SOL    HW148371   3.594   4.992   9.598 -0.6705 -1.2773  0.2169
14508SOL    HW248372   3.732   5.023   9.545 -1.6651  1.7525 -0.8525
14509SOL     OW48373   1.712   2.309   9.644  0.9540  0.3825 -0.0902
14509SOL    HW148374   1.687   2.399   9.626 -2.3239 -0.6839 -1.6279
14509SOL    HW248375   1.736   2.272   9.559 -1.0927 -1.0380 -0.1239
14510SOL     OW48376   4.392   4.690   0.062  0.1448 -0.0552 -0.0997
14510SOL    HW148377   4.386   4.770   0.011  0.2046 -0.2149 -0.3587
14510SOL    HW248378   4.333   4.704   0.136 -0.9978 -0.3592 -0.9355
14511SOL     OW48379   5.633   3.222   8.633  0.9022 -0.4424 -0.0400
14511SOL    HW148380   5.672   3.301   8.670  1.4211 -0.8306  0.2461
14511SOL    HW248381   5.594   3.251   8.550 -0.6055  0.5355  0.9435
14512SOL     OW48382   4.916   3.326   8.873  0.0638  0.0155  0.0191
14512SOL    HW148383   4.860   3.332   8.796 -3.0912 -0.9744  2.0354
14512SOL    HW248384   4.961   3.242   8.864  0.8768  0.5654 -1.3676
14513SOL     OW48385   3.238   4.346   0.219 -0.0292 -0.2193  0.1882
14513SOL    HW148386   3.284   4.272   0.260 -0.5802 -1.6610 -1.6416
14513SOL    HW248387   3.188   4.385   0.290  1.6054 -0.5166  1.5769
14514SOL     OW48388   5.084   2.670   9.626 -0.0577  0.2333  0.5697
14514SOL    HW148389   5.081   2.628   9.712  0.7685  0.2721  0.6260
14514SOL    HW248390   5.117   2.758   9.643 -1.6106  0.8750  0.4318
14515SOL     OW48391   6.146   5.486   9.344  0.2308  0.7156  0.1270
14515SOL    HW148392   6.215   5.552   9.349  0.8639 -0.0011  1.1925
14515SOL    HW248393   6.114   5.479   9.434  1.6288 -1.9264  0.5101
14516SOL     OW48394   3.003   3.158   9.388 -0.3339  0.4558 -0.8580
14516SOL    HW148395   3.063   3.083   9.393 -1.3778 -0.3463  0.0509
14516SOL    HW248396   2.917   3.121   9.405 -0.8636  1.8979 -0.2566
14517SOL     OW48397   2.839   6.266   0.772  0.3414  0.0590  0.3470
14517SOL    HW148398   2.784   6.306   0.704  0.1701 -0.2396  0.3059
14517SOL    HW248399   2.862   6.180   0.736 -1.8022 -1.1705  1.6739
14518SOL     OW48400   3.811   4.206   8.558 -0.1491 -0.4482  0.2197
14518SOL    HW148401   3.723   4.244   8.553  0.4259  0.9691  0.3240
14518SOL    HW248402   3.850   4.225   8.472  0.0890 -1.0002  0.2002
14519SOL     OW48403   3.231   6.070   6.718 -0.0413  0.1352 -0.3145
14519SOL    HW148404   3.143   6.080   6.754 -0.2279 -0.1063 -0.6991
14519SOL    HW248405   3.220   6.011   6.643  0.5947 -0.6631  0.2037
14520SOL     OW48406   3.480   4.514   0.168  0.4696  0.0159  0.0982
14520SOL    HW148407   3.544   4.527   0.238 -0.0289  0.3393  0.5020
14520SOL    HW248408   3.432   4.435   0.194 -1.8228  1.8136  1.8077
14521SOL     OW48409   3.305   4.722   0.303 -0.3409 -0.7136  0.0888
14521SOL    HW148410   3.397   4.715   0.277 -0.4177  0.8371 -0.6720
14521SOL    HW248411   3.291   4.815   0.321 -2.1258 -0.6781 -1.2121
14522SOL     OW48412   5.742   6.537   8.377  0.1622 -0.0087  0.1265
14522SOL    HW148413   5.811   6.602   8.390  1.1307 -0.9061 -0.3883
14522SOL    HW248414   5.660   6.587   8.382  0.8452  1.0883  0.6541
14523SOL     OW48415   4.757   5.818   9.517  0.1214  0.0175 -0.2736
14523SOL    HW148416   4.819   5.873   9.564  0.4292 -0.9794  0.5097
14523SOL    HW248417   4.718   5.762   9.584  0.2660 -1.1516 -1.1303
14524SOL     OW48418   5.641   3.957   8.414  0.1293 -0.1750  0.2791
14524SOL    HW148419   5.726   3.919   8.393  0.4251  0.2576  0.6607
14524SOL    HW248420   5.622   3.924   8.502  1.0386  1.6347  1.1900
14525SOL     OW48421   1.142   6.210   0.242  0.1142  0.2594  0.1211
14525SOL    HW148422   1.117   6.303   0.248  1.9799  0.7252  1.9291
14525SOL    HW248423   1.227   6.206   0.285  1.0052 -1.9946 -1.6840
14526SOL     OW48424   3.780   5.186   9.731 -0.3593  0.3622  0.2579
14526SOL    HW148425   3.825   5.258   9.777  0.8396 -0.7215  0.8491
14526SOL    HW248426   3.776   5.116   9.795 -0.2096 -0.6028 -0.7594
14527SOL     OW48427   4.060   6.684   6.759 -0.3174  0.6259  0.6559
14527SOL    HW148428   4.090   6.734   6.835 -1.7695  0.6047  1.2773
14527SOL    HW248429   3.993   6.625   6.794 -0.5747  0.1873 -0.5339
14528SOL     OW48430   4.540   4.945   0.413  0.2484  0.3453 -0.7740
14528SOL    HW148431   4.581   5.032   0.419 -1.5226  1.2100 -0.7753
14528SOL    HW248432   4.453   4.956   0.452  1.6283 -2.6384  4.0883
14529SOL     OW48433   3.442   2.333   8.391 -0.0785 -0.4907  0.3552
14529SOL    HW148434   3.365   2.290   8.352 -0.1195 -0.4711  0.4134
14529SOL    HW248435   3.457   2.409   8.336 -0.0116 -0.5754  0.2559
14530SOL     OW48436   5.911   2.171   8.698 -0.1120 -0.3257 -0.0170
14530SOL    HW148437   5.947   2.084   8.716  1.7587  0.7673  1.9985
14530SOL    HW248438   5.867   2.195   8.780 -1.9420  0.0624 -1.0714
14531SOL     OW48439   4.434   5.501   7.673 -0.2262 -0.5376 -0.5670
14531SOL    HW148440   4.456   5.593   7.691 -2.0541 -0.0270 -0.7284
14531SOL    HW248441   4.442   5.492   7.578 -0.5670 -0.3874 -0.6115
14532SOL     OW48442   3.802   5.752   0.957 -0.3226  0.1415 -0.4974
14532SOL    HW148443   3.732   5.749   0.892 -1.0559  0.0153  0.2889
14532SOL    HW248444   3.866   5.688   0.926 -1.2335 -0.8035 -0.4607
14533SOL     OW48445   2.020   3.392   7.299  0.2532  0.0153  0.4783
14533SOL    HW148446   1.938   3.379   7.251 -0.5311  2.4033  1.0673
14533SOL    HW248447   2.045   3.482   7.281  0.3800  0.7800  3.8178
14534SOL     OW48448   2.793   5.657   9.083  0.0795 -0.2437  0.0415
14534SOL    HW148449   2.728   5.600   9.124  0.5240 -0.2185  0.7978
14534SOL    HW248450   2.811   5.617   8.999  0.7004 -1.4592  0.7318
14535SOL     OW48451   6.222   3.812   8.221  0.0767 -0.0725  0.0138
14535SOL    HW148452   6.309   3.821   8.181 -0.3869  0.1110 -0.9773
14535SOL    HW248453   6.177   3.893   8.198 -0.5970 -0.4723 -0.0893
14536SOL     OW48454   1.902   3.652   1.187  0.6420 -0.0477  0.4549
14536SOL    HW148455   1.929   3.672   1.097  2.1099 -0.0475  0.8778
14536SOL    HW248456   1.894   3.737   1.229 -1.5776  0.0673 -0.0404
14537SOL     OW48457   4.440   5.559   0.427  0.2754  0.0844  0.1674
14537SOL    HW148458   4.429   5.487   0.489  1.9133 -0.3711 -0.0132
14537SOL    HW248459   4.446   5.638   0.481  1.9300 -0.3328  0.6635
14538SOL     OW48460   5.524   3.196   6.753 -0.0227 -0.3732  0.0593
14538SOL    HW148461   5.508   3.273   6.807 -0.3128 -0.1879 -0.2876
14538SOL    HW248462   5.546   3.231   6.666 -1.7587 -0.6738 -0.5527
14539SOL     OW48463   1.255   3.456   0.954 -0.1036  0.3627 -0.0705
14539SOL    HW148464   1.300   3.480   0.873  1.5298 -0.5244  0.5368
14539SOL    HW248465   1.206   3.377   0.931 -0.1199  0.4518 -0.3459
14540SOL     OW48466   5.313   6.263   0.731 -0.2054  0.5562  0.0608
14540SOL    HW148467   5.299   6.234   0.821 -3.0620  1.9113  0.1527
14540SOL    HW248468   5.361   6.345   0.739 -0.0952  0.4658  0.3297
14541SOL     OW48469   2.487   7.337   9.169 -0.7746 -0.1053 -0.5682
14541SOL    HW148470   2.433   7.414   9.189  0.4962  0.6941 -0.0513
14541SOL    HW248471   2.457   7.270   9.230 -0.1854  0.8097  0.7843
14542SOL     OW48472   2.728   5.732   0.986 -0.0334 -0.0334  0.2414
14542SOL    HW148473   2.760   5.822   0.993 -0.3164  0.1033 -0.1418
14542SOL    HW248474   2.763   5.700   0.903  0.8065 -0.5897  0.7962
14543SOL     OW48475   3.579   4.378   0.796  0.4132  0.3316  0.4184
14543SOL    HW148476   3.580   4.472   0.811  0.9614  0.6013 -1.1560
14543SOL    HW248477   3.496   4.348   0.834  0.0620  1.4910  0.5881
14544SOL     OW48478   3.928   6.555   1.757  0.3712  0.4159 -0.4222
14544SOL    HW148479   3.899   6.630   1.809  0.9505 -0.8250  1.8371
14544SOL    HW248480   3.856   6.539   1.696 -1.1348  0.9613  1.1185
14545SOL     OW48481   6.085   6.547   6.567 -0.2484 -0.4412  0.2754
14545SOL    HW148482   6.171   6.506   6.557  0.6675  1.7219 -1.7423
14545SOL    HW248483   6.094   6.603   6.644  0.7852  0.9629 -0.7837
14546SOL     OW48484   4.827   6.256   1.436 -0.0978  0.0030  0.4349
14546SOL    HW148485   4.741   6.227   1.466 -0.4731  1.1098  0.5025
14546SOL    HW248486   4.812   6.346   1.406  0.6153 -0.4700 -1.4612
14547SOL     OW48487   4.200   3.743   7.202 -0.0249  0.1830  0.1075
14547SOL    HW148488   4.246   3.793   7.269 -2.5253  3.1935 -0.1632
14547SOL    HW248489   4.256   3.748   7.125  1.2066 -0.1560  0.9621
14548SOL     OW48490   2.127   6.133   3.858 -0.4115  0.0781  0.6798
14548SOL    HW148491   2.139   6.109   3.949  0.2460  1.2277  0.9165
14548SOL    HW248492   2.146   6.227   3.855 -1.3762  0.2569 -0.4644
14549SOL     OW48493   2.790   6.896   0.856 -0.4768  0.0769 -0.1376
14549SOL    HW148494   2.787   6.965   0.790 -1.0341  0.3017  0.1123
14549SOL    HW248495   2.745   6.933   0.932 -0.0162 -0.2508  0.3005
14550SOL     OW48496   3.828   6.959   9.047 -0.2872 -0.2600 -0.8446
14550SOL    HW148497   3.895   6.896   9.023 -0.0056 -0.4827  0.4968
14550SOL    HW248498   3.838   6.972   9.141 -0.6711  1.3994 -0.9943
14551SOL     OW48499   4.040   5.716   8.343 -0.2762 -0.4761 -0.2742
14551SOL    HW148500   4.104   5.684   8.278  1.7874  0.6722  1.0642
14551SOL    HW248501   4.017   5.638   8.393  0.3320 -0.8726 -0.5848
14552SOL     OW48502   5.747   9.383   1.064 -0.2080  0.1091 -0.9050
14552SOL    HW148503   5.772   9.453   1.124 -1.0546  0.9960 -1.5451
14552SOL    HW248504   5.681   9.333   1.113  0.0349  0.0536 -0.6295
14553SOL     OW48505   6.057   4.996   2.118  0.0911 -0.1249  0.0452
14553SOL    HW148506   6.122   5.036   2.061 -1.4356  0.4789 -1.3308
14553SOL    HW248507   6.100   4.916   2.150  1.7661  0.6227 -0.1977
14554SOL     OW48508   6.520   4.267   0.055  0.0358  0.8702 -0.2390
14554SOL    HW148509   6.540   4.257   0.148 -0.8611 -1.4480 -0.2029
14554SOL    HW248510   6.442   4.323   0.053 -1.6891 -1.2896  0.7350
14555SOL     OW48511   3.898   6.657   2.758  0.1577  0.1229  0.1646
14555SOL    HW148512   3.822   6.600   2.746  0.3492  0.2316 -2.0836
14555SOL    HW248513   3.966   6.617   2.704  2.0677 -0.4882  2.8245
14556SOL     OW48514   1.738   6.012   0.166 -0.4909 -0.0520  0.3441
14556SOL    HW148515   1.761   5.993   0.076 -2.1942  0.0835 -0.1606
14556SOL    HW248516   1.813   5.981   0.218  0.5440 -0.0448 -1.0975
14557SOL     OW48517   4.834   5.989   1.086  0.5271 -0.4057 -0.1977
14557SOL    HW148518   4.892   5.959   1.157 -0.3299  0.1936  0.7927
14557SOL    HW248519   4.852   6.083   1.079  0.6526 -0.4752 -0.8336
14558SOL     OW48520   3.630   6.225   2.957 -0.0123 -0.0383  0.5388
14558SOL    HW148521   3.635   6.136   2.922  0.7147  0.1664  0.1086
14558SOL    HW248522   3.641   6.215   3.051 -1.9183 -0.5929  0.7625
14559SOL     OW48523   4.265   9.305   0.605  0.2526 -0.2573  0.4675
14559SOL    HW148524   4.258   9.400   0.612 -0.6043 -0.2986  0.2386
14559SOL    HW248525   4.269   9.275   0.696 -0.7477 -0.0798  0.5872
14560SOL     OW48526   4.755   5.056   8.216 -0.2972 -0.6904 -0.4856
14560SOL    HW148527   4.804   4.978   8.188 -1.8202 -2.1329  0.6902
14560SOL    HW248528   4.702   5.026   8.289 -2.9013  0.7877 -1.6460
14561SOL     OW48529   3.517   6.496   3.279 -0.4017 -0.2099 -0.5540
14561SOL    HW148530   3.526   6.522   3.370  1.9331 -0.2748 -0.6971
14561SOL    HW248531   3.506   6.401   3.281 -0.6196 -0.1793 -0.3332
14562SOL     OW48532   1.704   6.947   9.560 -0.2164  0.1677  0.0031
14562SOL    HW148533   1.796   6.930   9.579 -0.0952  0.7729 -0.0233
14562SOL    HW248534   1.690   7.038   9.587 -0.3453  0.6757 -1.6833
14563SOL     OW48535   6.247   6.851   0.484  0.1194 -0.3223  0.6435
14563SOL    HW148536   6.303   6.788   0.529  1.0780 -0.6625 -0.9569
14563SOL    HW248537   6.307   6.918   0.452 -0.5130 -0.1641 -0.2322
14564SOL     OW48538   6.388   7.743   1.017 -0.1832 -0.3845  0.3624
14564SOL    HW148539   6.315   7.691   1.052 -0.2751 -1.6660 -1.5864
14564SOL    HW248540   6.458   7.680   1.001  0.3086  0.3458 -0.5042
14565SOL     OW48541   3.101   5.986   3.953 -0.0276  0.2072 -0.1003
14565SOL    HW148542   3.154   5.934   4.014 -1.0560  0.0127  0.6597
14565SOL    HW248543   3.152   5.988   3.873  0.1452 -1.8304 -0.1030
14566SOL     OW48544   3.023   7.022   0.480 -0.2511 -0.0052 -0.0411
14566SOL    HW148545   2.984   7.069   0.406  1.9606  1.4476 -0.3880
14566SOL    HW248546   3.102   6.982   0.444  1.1701  1.1819  1.5917
14567SOL     OW48547   3.417   7.293   0.572 -0.1071 -0.0611 -0.2504
14567SOL    HW148548   3.421   7.279   0.477 -1.1634 -0.6043 -0.2302
14567SOL    HW248549   3.390   7.384   0.582  0.3873  0.1102 -0.4659
14568SOL     OW48550   7.232   7.760   8.778  0.1463  0.1860 -0.0802
14568SOL    HW148551   7.223   7.673   8.739  0.0126 -0.3246  1.0351
14568SOL    HW248552   7.242   7.743   8.872  0.8832  1.3410  0.0746
14569SOL     OW48553   4.581   6.669   1.160  0.1546  0.7087 -0.1098
14569SOL    HW148554   4.569   6.674   1.255  0.4694  0.5957 -0.0659
14569SOL    HW248555   4.521   6.600   1.133  1.2114 -0.3596  0.2052
14570SOL     OW48556   4.303   7.246   0.812 -0.1345  0.2615  0.0079
14570SOL    HW148557   4.272   7.278   0.727 -0.6176 -0.3312 -0.0477
14570SOL    HW248558   4.372   7.307   0.837  1.0519 -0.3791 -1.5087
14571SOL     OW48559   4.568   6.359   2.527  0.0497 -0.0769  0.2318
14571SOL    HW148560   4.478   6.374   2.555 -0.1226  0.0559 -0.3718
14571SOL    HW248561   4.561   6.289   2.461  0.5332 -0.9468  1.0861
14572SOL     OW48562   7.077   7.538   9.256 -0.0362 -0.6405  0.1283
14572SOL    HW148563   7.082   7.600   9.328 -0.6276 -0.0572 -0.3159
14572SOL    HW248564   7.107   7.455   9.293  1.1471 -0.0120  0.6253
14573SOL     OW48565   5.006   4.198   9.840  0.1873  0.7045  0.1146
14573SOL    HW148566   4.983   4.273   9.786  0.2537  1.0273  0.5289
14573SOL    HW248567   5.049   4.236   9.917 -1.8094  0.4154  1.4450
14574SOL     OW48568   5.685   6.685   1.942 -0.0310 -0.3783  0.7530
14574SOL    HW148569   5.598   6.694   1.981 -0.4084 -0.5929 -0.0234
14574SOL    HW248570   5.745   6.703   2.014 -0.7046  1.6464  0.8867
14575SOL     OW48571   4.251   8.482   1.408 -0.5544 -0.6996  0.9655
14575SOL    HW148572   4.244   8.571   1.442  1.1337  0.3408 -1.2365
14575SOL    HW248573   4.170   8.439   1.439 -1.7290  1.7396  1.5469
14576SOL     OW48574   3.257   3.583   3.321 -0.1534 -0.1666 -0.2380
14576SOL    HW148575   3.258   3.612   3.412 -1.8350 -1.7084  0.3388
14576SOL    HW248576   3.331   3.521   3.315 -0.2577 -0.3391  0.1862
14577SOL     OW48577   5.257   6.700   1.973 -0.0220  0.3115  0.2902
14577SOL    HW148578   5.262   6.605   1.985 -0.2742  0.2364 -0.1677
14577SOL    HW248579   5.341   6.733   2.006 -0.1370 -0.0144  0.9303
14578SOL     OW48580   4.052   9.054   0.320 -0.0926  0.9005  0.4934
14578SOL    HW148581   4.023   8.974   0.363  0.3475  0.5530  0.1560
14578SOL    HW248582   4.129   9.081   0.370  0.5252  0.3981 -0.1690
14579SOL     OW48583   6.973   5.735   6.917 -0.2152 -0.2433 -0.2005
14579SOL    HW148584   6.915   5.810   6.904 -1.3765 -1.0493  0.1984
14579SOL    HW248585   7.061   5.773   6.916 -0.7429  1.0338 -0.6059
14580SOL     OW48586   1.891   4.401   1.812  0.3773 -0.0879  0.2341
14580SOL    HW148587   1.813   4.451   1.790  0.3735 -0.1141  0.1872
14580SOL    HW248588   1.865   4.345   1.885  0.1078 -0.7128 -0.3286
14581SOL     OW48589   4.219   7.901   1.984  0.8196 -0.2148 -0.0320
14581SOL    HW148590   4.246   7.987   1.951  0.8185  0.1488  0.9006
14581SOL    HW248591   4.126   7.911   2.004  0.9081 -0.3165  0.4379
14582SOL     OW48592   3.933   7.866   2.669 -0.2028 -0.2620  0.5712
14582SOL    HW148593   3.993   7.848   2.741  0.0982  1.7322  0.8980
14582SOL    HW248594   3.846   7.867   2.710 -0.3060 -1.5023  0.4161
14583SOL     OW48595   4.582   7.732   1.874  0.3184  0.4261 -0.2299
14583SOL    HW148596   4.548   7.650   1.909  1.2926  0.0568 -0.1302
14583SOL    HW248597   4.524   7.753   1.801  0.2706 -0.5261 -0.4703
14584SOL     OW48598   5.047   5.884   8.653 -0.1608 -0.6290  0.5186
14584SOL    HW148599   4.953   5.884   8.671 -0.0224  1.0914  1.3494
14584SOL    HW248600   5.088   5.877   8.739  0.4687  0.0577  0.2812
14585SOL     OW48601   4.106   5.848   0.979 -0.6020  0.1080  0.1159
14585SOL    HW148602   4.032   5.789   0.990 -0.9999  0.5080 -0.3892
14585SOL    HW248603   4.173   5.813   1.038 -1.6743  0.5806  1.6841
14586SOL     OW48604   6.278   7.309   2.490  0.1077  0.0587  0.1115
14586SOL    HW148605   6.332   7.245   2.446  1.0714 -0.0560  1.3917
14586SOL    HW248606   6.327   7.391   2.483 -0.1171  0.2077  0.2501
14587SOL     OW48607   3.442   7.980   7.905  0.2524 -0.1934 -0.2269
14587SOL    HW148608   3.366   7.947   7.857  1.7776 -1.0357 -2.2051
14587SOL    HW248609   3.464   8.063   7.863  0.6801 -0.1636  0.0429
14588SOL     OW48610   4.637   6.792   0.511  0.5219 -0.0253 -0.4864
14588SOL    HW148611   4.555   6.763   0.551 -0.1664  1.2938 -0.9029
14588SOL    HW248612   4.656   6.727   0.443 -0.4807 -0.0317 -0.7666
14589SOL     OW48613   4.260   6.605   2.502  0.3062 -0.2108 -0.2279
14589SOL    HW148614   4.301   6.687   2.530 -2.5857  1.9339 -1.8572
14589SOL    HW248615   4.289   6.593   2.412  1.3682 -1.5296  0.2451
14590SOL     OW48616   5.111   5.363   8.984 -0.0815  0.1684  0.3598
14590SOL    HW148617   5.042   5.424   9.011  0.1891  0.6580 -0.0541
14590SOL    HW248618   5.158   5.344   9.064 -1.9039 -1.7416  1.0762
14591SOL     OW48619   3.559   6.317   4.879  0.3458 -0.4780 -0.0012
14591SOL    HW148620   3.507   6.366   4.943 -0.3362 -1.3796  0.1707
14591SOL    HW248621   3.600   6.383   4.824  0.4356  0.2968  0.9856
14592SOL     OW48622   3.387   6.268   3.343 -0.1598  0.9340 -0.3328
14592SOL    HW148623   3.431   6.239   3.422  0.3892  1.3704 -0.4685
14592SOL    HW248624   3.310   6.314   3.374 -2.7416 -3.0484 -0.1244
14593SOL     OW48625   3.846   7.442   8.564  0.2993 -0.0474 -0.0228
14593SOL    HW148626   3.918   7.384   8.539 -0.4006 -0.8820 -0.1326
14593SOL    HW248627   3.773   7.415   8.508 -0.7121 -0.6280  1.5230
14594SOL     OW48628   1.943   4.705   1.153 -0.6543  0.6983  0.8671
14594SOL    HW148629   1.926   4.625   1.103 -0.0272  0.9900  0.1505
14594SOL    HW248630   1.892   4.772   1.108  0.9996  1.2464 -0.2901
14595SOL     OW48631   5.001   7.988   8.863  0.0405 -0.0829  0.5526
14595SOL    HW148632   5.067   7.999   8.931  1.5385  1.0498 -1.0080
14595SOL    HW248633   5.045   8.012   8.782 -2.0005 -0.3130 -0.7092
14596SOL     OW48634   2.838   8.493   8.940  0.5224  0.6099  0.4182
14596SOL    HW148635   2.804   8.436   8.870 -1.4308 -1.2085  2.6854
14596SOL    HW248636   2.763   8.546   8.966  1.1281  1.0005  1.4069
14597SOL     OW48637   2.495   5.344   1.365 -0.5554 -0.3412 -0.5489
14597SOL    HW148638   2.412   5.331   1.320 -1.4965  2.7866  0.0456
14597SOL    HW248639   2.561   5.319   1.301 -1.8752 -1.9202 -1.3919
14598SOL     OW48640   4.572   8.268   3.123  0.0790 -0.0569  0.0687
14598SOL    HW148641   4.566   8.363   3.113 -0.7005 -0.0807  0.3014
14598SOL    HW248642   4.656   8.254   3.169  0.0113  0.5425  0.3828
14599SOL     OW48643   4.354   8.603   9.813 -0.2086 -0.1832 -0.0065
14599SOL    HW148644   4.443   8.573   9.833 -0.3960  0.0875  1.3321
14599SOL    HW248645   4.366   8.668   9.743  0.7739  0.5387  0.7925
14600SOL     OW48646   4.226   7.188   7.641  0.4748 -0.5387 -0.1264
14600SOL    HW148647   4.188   7.106   7.674 -1.2065 -0.2034 -1.1080
14600SOL    HW248648   4.183   7.256   7.693 -0.1259 -0.1601 -1.1092
14601SOL     OW48649   4.840   5.036   3.334  0.2507  0.3706 -0.5226
14601SOL    HW148650   4.820   4.976   3.263  0.5267  0.8337 -0.9941
14601SOL    HW248651   4.754   5.065   3.366  0.0103 -1.8215  1.0790
14602SOL     OW48652   3.219   5.233   2.945 -0.0523 -0.0034 -0.5830
14602SOL    HW148653   3.216   5.287   3.024  1.3881 -0.4723 -0.1770
14602SOL    HW248654   3.271   5.285   2.883  2.2142 -1.2506  0.1463
14603SOL     OW48655   5.938   6.672   1.188  0.6917  0.2133  0.1323
14603SOL    HW148656   5.980   6.695   1.105  1.8700 -0.4920  0.5203
14603SOL    HW248657   5.959   6.580   1.201  2.0873  0.7548  2.0881
14604SOL     OW48658   4.016   7.621   2.549 -0.4625 -0.0037 -0.1255
14604SOL    HW148659   3.990   7.710   2.573 -1.7322 -0.0459 -1.2231
14604SOL    HW248660   3.970   7.604   2.466  0.1132 -1.5152 -0.1674
14605SOL     OW48661   4.620   5.964   1.289  0.0547  0.1568 -0.2465
14605SOL    HW148662   4.698   5.909   1.276  0.6222  0.9214 -0.1409
14605SOL    HW248663   4.599   5.998   1.202 -1.1603 -1.3326 -0.5779
14606SOL     OW48664   4.802   6.361   2.691  0.9087 -0.5064 -0.3658
14606SOL    HW148665   4.769   6.307   2.763 -1.3049  1.4599  0.2345
14606SOL    HW248666   4.734   6.353   2.624  1.4629  0.0853 -1.0003
14607SOL     OW48667   4.896   4.242   2.641 -0.2343 -0.0018 -0.6735
14607SOL    HW148668   4.916   4.160   2.596  0.1410 -0.5877  0.5192
14607SOL    HW248669   4.814   4.272   2.601 -0.9409 -1.5120 -0.4113
14608SOL     OW48670   3.215   5.268   3.690  0.1224  0.3097 -0.0046
14608SOL    HW148671   3.264   5.326   3.632  1.1329  0.7605  1.2352
14608SOL    HW248672   3.123   5.288   3.673  0.3835  0.2960 -1.5474
14609SOL     OW48673   4.608   4.969   2.471  0.3104  0.1307  0.0396
14609SOL    HW148674   4.685   4.949   2.524 -0.2608  0.5018  1.0403
14609SOL    HW248675   4.575   4.884   2.443  1.0851 -0.0287 -0.3986
14610SOL     OW48676   3.277   6.052   3.213  0.4305  0.5172 -0.3873
14610SOL    HW148677   3.333   6.125   3.237  0.0561  1.0486 -1.0825
14610SOL    HW248678   3.260   6.006   3.295  1.3256  0.7358 -0.0704
14611SOL     OW48679   5.585   5.977   0.289  0.6214  0.1855  0.6446
14611SOL    HW148680   5.647   5.923   0.239  2.4275  0.8514  2.0780
14611SOL    HW248681   5.585   6.061   0.244  0.7534  0.1893  0.6517
14612SOL     OW48682   7.798   6.851   4.674  0.3458 -0.6820 -0.2069
14612SOL    HW148683   7.872   6.804   4.711  0.9968  0.7155  0.2933
14612SOL    HW248684   7.832   6.937   4.650 -1.2704  0.2741  0.7290
14613SOL     OW48685   5.888   6.478   9.727  0.7241 -0.2184 -0.6845
14613SOL    HW148686   5.982   6.463   9.712  0.9054 -1.9250  1.5319
14613SOL    HW248687   5.846   6.400   9.690  0.4831 -0.7556  0.6652
14614SOL     OW48688   3.839   8.521   0.098  0.4590  0.4411  0.2826
14614SOL    HW148689   3.925   8.507   0.057 -0.1294 -0.7896 -0.6124
14614SOL    HW248690   3.841   8.466   0.176  0.3272  0.0573  0.0176
14615SOL     OW48691   3.294   3.913   0.119 -0.4609  0.0757 -0.2135
14615SOL    HW148692   3.227   3.950   0.062  0.2524  1.0598 -0.4530
14615SOL    HW248693   3.297   3.820   0.096  0.4064  0.5772 -2.4547
14616SOL     OW48694   2.608   5.635   1.564  0.4449 -0.5114 -0.2701
14616SOL    HW148695   2.623   5.541   1.573 -0.6375 -0.8355 -1.6013
14616SOL    HW248696   2.648   5.658   1.480 -1.5169 -0.3144 -1.1998
14617SOL     OW48697   4.227   5.465   3.127 -0.3520 -0.2757 -0.1791
14617SOL    HW148698   4.309   5.418   3.139 -0.6503 -0.1979  2.9732
14617SOL    HW248699   4.224   5.527   3.200 -1.8577  1.8518 -1.9023
14618SOL     OW48700   4.636   4.879   8.579  0.2195  0.0320 -0.5730
14618SOL    HW148701   4.725   4.884   8.614 -0.1958 -0.5201  0.5785
14618SOL    HW248702   4.623   4.963   8.534 -0.4750  2.4092  3.6137
14619SOL     OW48703   7.348   6.445   0.268  0.6755  0.3033 -0.7993
14619SOL    HW148704   7.432   6.457   0.312  1.6512  1.1829 -2.7540
14619SOL    HW248705   7.315   6.361   0.301  2.2970 -0.0395  0.0601
14620SOL     OW48706   3.910   6.180   4.253 -0.3270  0.2530 -0.5836
14620SOL    HW148707   3.967   6.241   4.206  0.2368 -0.5909 -1.0173
14620SOL    HW248708   3.904   6.104   4.196 -2.1383  0.4321 -0.6782
14621SOL     OW48709   5.764   5.864   0.104 -0.2848  0.5755 -0.3651
14621SOL    HW148710   5.774   5.922   0.028 -1.3000  0.2332 -0.7818
14621SOL    HW248711   5.762   5.776   0.066  2.5746  0.1217  0.3712
14622SOL     OW48712   4.557   6.911   9.524  0.4370 -0.1735 -0.1503
14622SOL    HW148713   4.588   6.852   9.593  0.8617 -0.6532 -0.7454
14622SOL    HW248714   4.468   6.934   9.551 -0.3986 -2.4500 -0.7451
14623SOL     OW48715   1.813   7.911   9.222 -0.2352  0.3195 -0.1631
14623SOL    HW148716   1.740   7.962   9.257  0.2327  1.2855 -0.5422
14623SOL    HW248717   1.777   7.865   9.147 -0.3491  1.2046 -0.6669
14624SOL     OW48718   2.626   7.710   0.187 -0.2508  0.0073 -0.0084
14624SOL    HW148719   2.533   7.699   0.206 -0.2935 -2.0304 -1.1472
14624SOL    HW248720   2.669   7.644   0.241  0.5081  0.6212  0.1538
14625SOL     OW48721   4.884   6.261   1.096 -0.1339 -0.6252  0.7624
14625SOL    HW148722   4.921   6.342   1.130  1.0390 -0.6988 -0.2664
14625SOL    HW248723   4.869   6.278   1.003  1.8475 -2.1035  0.0855
14626SOL     OW48724   5.254   6.300   3.692 -0.1603  0.0797 -0.1073
14626SOL    HW148725   5.336   6.253   3.675  0.3182  0.1005  1.9328
14626SOL    HW248726   5.274   6.390   3.668  0.8961  0.3502  1.6195
14627SOL     OW48727   5.484   6.131   1.748  0.4174 -0.0439  0.6347
14627SOL    HW148728   5.507   6.185   1.672 -0.5181  0.8086  0.9333
14627SOL    HW248729   5.452   6.049   1.712 -0.0703  0.3791  0.1079
14628SOL     OW48730   2.617   6.146   0.538  0.2157  0.1476  0.5405
14628SOL    HW148731   2.548   6.198   0.581  1.9422  1.7438  1.5107
14628SOL    HW248732   2.670   6.210   0.491  1.5964 -0.9276  0.5765
14629SOL     OW48733   1.407   5.379   1.382 -0.1131 -0.1847 -0.6191
14629SOL    HW148734   1.317   5.389   1.413 -0.3634  0.9745 -1.6722
14629SOL    HW248735   1.413   5.435   1.305  1.8726  0.7810  0.1648
14630SOL     OW48736   6.502   5.948   1.908 -0.1853 -0.6044  0.1487
14630SOL    HW148737   6.428   5.889   1.922  0.7368 -1.7980  0.1890
14630SOL    HW248738   6.560   5.931   1.982  0.3743 -0.0581 -0.1562
14631SOL     OW48739   3.936   6.328   1.487  0.0396  0.5117  0.2674
14631SOL    HW148740   4.010   6.345   1.545  0.2800  0.6880 -0.0876
14631SOL    HW248741   3.913   6.414   1.452 -0.2098  0.4303  0.2336
14632SOL     OW48742   3.606   5.982   1.814 -0.1760  0.2404  0.1682
14632SOL    HW148743   3.544   6.030   1.869  1.7504  2.2269  0.7676
14632SOL    HW248744   3.673   5.951   1.875  1.6677  1.9346 -0.8722
14633SOL     OW48745   7.505   5.402   2.861 -0.0099 -0.4009 -0.1929
14633SOL    HW148746   7.586   5.367   2.899  0.8858  1.1364 -0.6161
14633SOL    HW248747   7.441   5.396   2.932  1.4961  1.9896  1.5036
14634SOL     OW48748   3.144   6.822   3.372 -0.8429  0.4340  0.3166
14634SOL    HW148749   3.072   6.783   3.422  0.0159 -0.9680  0.5131
14634SOL    HW248750   3.192   6.747   3.337 -0.2284  1.3676 -0.9191
14635SOL     OW48751   3.428   7.909   2.485  0.0403  0.2178 -0.0736
14635SOL    HW148752   3.379   7.831   2.461  1.3856 -0.3052 -1.2625
14635SOL    HW248753   3.362   7.978   2.490 -1.0839 -0.8594  0.3966
14636SOL     OW48754   5.406   4.780   0.111 -0.0430 -0.2037 -0.6970
14636SOL    HW148755   5.424   4.826   0.029 -0.1509 -1.7142 -1.5951
14636SOL    HW248756   5.348   4.840   0.160  0.8054  1.1370 -1.2669
14637SOL     OW48757   3.780   0.011   0.182  0.4242  0.3882 -0.2994
14637SOL    HW148758   3.876   0.014   0.179  0.5277 -0.7696  0.8696
14637SOL    HW248759   3.756  -0.052   0.114  0.7560 -1.8848  1.5536
14638SOL     OW48760   6.266   6.556   8.716  0.1040  0.3014 -0.0173
14638SOL    HW148761   6.236   6.569   8.626  1.2875  2.3930 -0.1796
14638SOL    HW248762   6.186   6.537   8.765 -0.6665 -0.0600 -1.3745
14639SOL     OW48763   4.451   5.608   3.252 -0.0886 -0.3112 -0.0366
14639SOL    HW148764   4.426   5.515   3.255  0.3676 -0.4636 -0.7872
14639SOL    HW248765   4.376   5.653   3.291  0.2910 -1.0978  1.6666
14640SOL     OW48766   5.349   6.387   2.024 -0.1687  0.2122  0.0452
14640SOL    HW148767   5.417   6.390   1.957 -0.8282  0.0304 -0.6348
14640SOL    HW248768   5.397   6.372   2.106  0.6945  1.0041 -0.2938
14641SOL     OW48769   4.809   5.692   0.913  0.1720 -0.0117  0.6483
14641SOL    HW148770   4.735   5.716   0.857 -0.5013 -2.3785  0.4154
14641SOL    HW248771   4.834   5.774   0.956 -1.9561  1.0567  0.0061
14642SOL     OW48772   4.217   2.061   1.852  0.3718  0.2780  0.0381
14642SOL    HW148773   4.128   2.065   1.888  0.6050  1.3895  0.5701
14642SOL    HW248774   4.272   2.096   1.923  1.1472  0.2446 -0.5384
14643SOL     OW48775   2.550   7.379   3.505  0.6107 -0.4526  0.3368
14643SOL    HW148776   2.590   7.463   3.528  0.6440 -1.0944  2.9966
14643SOL    HW248777   2.459   7.399   3.486  0.4447  0.1330  1.6745
14644SOL     OW48778   6.434   6.076   1.207 -0.3995  0.7848 -0.5190
14644SOL    HW148779   6.367   6.008   1.220  0.5263  0.0856  0.8410
14644SOL    HW248780   6.490   6.040   1.138 -0.0213  0.2236  0.0638
14645SOL     OW48781   4.064   7.244   2.418  0.6603  0.1603 -0.1790
14645SOL    HW148782   4.054   7.166   2.362  0.9307 -0.5365  0.7278
14645SOL    HW248783   4.031   7.216   2.503 -0.4456  1.4420 -0.1532
14646SOL     OW48784   4.764   2.743   1.894  0.8520  0.4026  0.2390
14646SOL    HW148785   4.787   2.819   1.840  1.0543  0.8144  0.8986
14646SOL    HW248786   4.750   2.672   1.830  1.7867  0.7011 -0.3178
14647SOL     OW48787   2.901   6.882   0.053 -0.1303  0.1195  0.2307
14647SOL    HW148788   2.981   6.928   0.078 -0.4375  1.1787 -0.6927
14647SOL    HW248789   2.868   6.846   0.135  0.7271  0.5732  0.7904
14648SOL     OW48790   5.188   6.555   2.825 -0.0038  0.4942 -0.5347
14648SOL    HW148791   5.162   6.497   2.753  0.4143 -0.1777 -0.1528
14648SOL    HW248792   5.110   6.561   2.879 -0.3503  1.0744 -1.0796
14649SOL     OW48793   5.409   8.566   2.170 -0.1268  0.7761  0.2147
14649SOL    HW148794   5.492   8.571   2.123 -1.0357  0.6761 -1.4665
14649SOL    HW248795   5.422   8.495   2.233  1.2242  1.1139  0.3559
14650SOL     OW48796   6.772   4.108   0.679 -0.4239 -0.1493 -0.4136
14650SOL    HW148797   6.756   4.018   0.649  1.1444 -0.2484 -1.0621
14650SOL    HW248798   6.687   4.150   0.675 -1.1726 -1.5672 -0.2264
14651SOL     OW48799   5.882   2.794   0.535  0.3310  0.1819 -0.0736
14651SOL    HW148800   5.920   2.743   0.463  0.5502 -0.2478  0.3472
14651SOL    HW248801   5.958   2.834   0.577  0.1936  0.5090 -0.1347
14652SOL     OW48802   5.874   5.580   0.684  0.5307  0.3205 -0.5655
14652SOL    HW148803   5.819   5.657   0.670 -0.6997 -0.4644 -0.1112
14652SOL    HW248804   5.956   5.616   0.719 -0.4241  1.3483  0.7197
14653SOL     OW48805   3.124   6.305   2.292 -0.2123 -0.0484  0.2034
14653SOL    HW148806   3.038   6.344   2.279 -0.2810 -0.6867 -1.5924
14653SOL    HW248807   3.169   6.364   2.353 -1.4579  0.9985  0.1384
14654SOL     OW48808   2.860   8.303   1.112  0.4276  0.4480 -0.2637
14654SOL    HW148809   2.945   8.271   1.143 -0.5251 -1.3308  0.6688
14654SOL    HW248810   2.855   8.393   1.144 -0.5508 -1.2152  5.4205
14655SOL     OW48811   2.914   6.220   1.117 -0.0054  0.0935  0.4361
14655SOL    HW148812   3.006   6.219   1.143 -0.3741  1.6162  2.0097
14655SOL    HW248813   2.911   6.274   1.038  0.9242 -3.3009 -2.1515
14656SOL     OW48814   2.778   5.755   8.441  1.0302 -0.1050 -0.4150
14656SOL    HW148815   2.762   5.806   8.362  1.0356  0.0828 -0.2933
14656SOL    HW248816   2.694   5.713   8.461  1.2112 -0.7332 -0.9351
14657SOL     OW48817   5.609   9.256   2.518 -0.0894 -0.2452  0.7303
14657SOL    HW148818   5.700   9.252   2.548 -0.1631  0.9375  1.1634
14657SOL    HW248819   5.613   9.233   2.426  0.5192 -1.1537  0.9682
14658SOL     OW48820   2.966   7.204   0.872 -0.0101  0.1808  0.0492
14658SOL    HW148821   2.932   7.272   0.814  0.2241  0.5897  0.3871
14658SOL    HW248822   3.035   7.161   0.821  1.0687  1.3750  0.4812
14659SOL     OW48823   5.145   3.947   1.167  0.9764  0.4550 -0.0643
14659SOL    HW148824   5.090   3.904   1.232  2.3297  0.3819  1.0815
14659SOL    HW248825   5.159   4.035   1.200  0.9993  0.6867 -0.6762
14660SOL     OW48826   3.429   6.477   0.696 -0.6252  0.0266  0.1494
14660SOL    HW148827   3.453   6.537   0.625  0.1004 -0.1023  0.2756
14660SOL    HW248828   3.493   6.406   0.691 -2.0681 -1.2733 -0.6175
14661SOL     OW48829   2.772   5.686   1.356  0.2419  0.0588  0.2409
14661SOL    HW148830   2.817   5.767   1.330 -0.0334  0.2295  0.2846
14661SOL    HW248831   2.835   5.639   1.410  0.4931  0.1308  0.0153
14662SOL     OW48832   5.738   6.898   0.035  0.2835 -0.1433  0.2220
14662SOL    HW148833   5.758   6.939   0.119 -1.3436 -0.7235  0.9293
14662SOL    HW248834   5.800   6.938  -0.027  1.4307  0.3854  1.6518
14663SOL     OW48835   4.116   9.599   1.438  0.3224 -0.0709 -0.2503
14663SOL    HW148836   4.207   9.593   1.469  0.1611 -0.4140  0.1591
14663SOL    HW248837   4.119   9.668   1.371  1.3844 -1.7396 -2.0124
14664SOL     OW48838   4.009   7.297   4.115 -0.4185 -0.0699 -0.5027
14664SOL    HW148839   3.975   7.216   4.153  0.0906  0.5089  1.3092
14664SOL    HW248840   3.932   7.352   4.103 -0.5001  0.1315  0.7684
14665SOL     OW48841   3.236   6.589   3.302 -0.4508  0.5365  0.5171
14665SOL    HW148842   3.192   6.522   3.356  1.3766 -0.9367  0.2848
14665SOL    HW248843   3.317   6.547   3.275  0.0786  2.3757 -0.8751
14666SOL     OW48844   3.744   7.364   2.117  0.4452 -0.2273  0.4653
14666SOL    HW148845   3.666   7.361   2.061  0.4186 -0.6438  0.5247
14666SOL    HW248846   3.792   7.285   2.096  0.0598 -0.7776  1.5714
14667SOL     OW48847   5.568   3.761   8.670 -0.0313  0.0548 -0.0512
14667SOL    HW148848   5.491   3.816   8.687 -1.7458 -2.4211  0.7423
14667SOL    HW248849   5.632   3.789   8.736 -0.8732  1.0273  0.3891
14668SOL     OW48850   4.475   4.300   1.385  0.6891  0.2924 -0.3338
14668SOL    HW148851   4.486   4.216   1.431  1.1132  0.8981  0.7153
14668SOL    HW248852   4.455   4.276   1.295  2.5959 -0.9410 -0.4755
14669SOL     OW48853   6.306   6.280   2.776  0.0646 -0.0651 -0.5865
14669SOL    HW148854   6.357   6.266   2.856  1.8240 -0.0969 -1.6448
14669SOL    HW248855   6.353   6.230   2.709  0.0526  1.8652 -2.1292
14670SOL     OW48856   3.385   5.114   1.254  0.1294 -0.0428 -0.0213
14670SOL    HW148857   3.392   5.048   1.323 -1.8120  1.1098  1.3738
14670SOL    HW248858   3.316   5.173   1.284 -0.3569  0.8802 -2.6767
14671SOL     OW48859   2.324   5.492   2.216  0.2346  0.2513  0.5768
14671SOL    HW148860   2.233   5.482   2.241  0.9872 -2.3652  2.6386
14671SOL    HW248861   2.367   5.412   2.245  3.2903  1.5197 -0.0011
14672SOL     OW48862   4.106   6.128   9.633 -0.4589  0.8366  0.4600
14672SOL    HW148863   4.090   6.036   9.612 -2.0012  0.9060  1.1182
14672SOL    HW248864   4.186   6.127   9.686  0.0033 -0.0222 -0.2333
14673SOL     OW48865   3.025   6.133   1.569  0.0072 -0.3607 -0.1743
14673SOL    HW148866   2.937   6.112   1.599 -0.9228  2.3395 -0.7655
14673SOL    HW248867   3.080   6.124   1.647 -1.0690 -0.5609  0.5748
14674SOL     OW48868   4.275   7.521   3.793 -0.2489  0.3392  0.1978
14674SOL    HW148869   4.346   7.501   3.853 -0.8667  0.7311  1.0796
14674SOL    HW248870   4.228   7.593   3.834  0.4871  2.0234 -1.7297
14675SOL     OW48871   4.266   8.227   2.207 -0.1169 -0.1399  0.0701
14675SOL    HW148872   4.298   8.171   2.278  0.5801  1.6271  1.2162
14675SOL    HW248873   4.177   8.250   2.233  0.0110  0.2183  0.1914
14676SOL     OW48874   5.282   6.007   2.688 -0.0097  0.4795  0.1775
14676SOL    HW148875   5.221   6.058   2.635  0.3829 -1.2560 -2.0944
14676SOL    HW248876   5.356   5.990   2.630  2.3175  1.7051  2.5390
14677SOL     OW48877   4.247   5.743   0.685  0.2083 -0.1801  0.3438
14677SOL    HW148878   4.174   5.772   0.630 -0.5331 -2.6629 -0.1217
14677SOL    HW248879   4.302   5.820   0.695 -1.0785  1.0754 -1.5917
14678SOL     OW48880   2.894   6.664   1.222  0.0479 -0.1227  0.3133
14678SOL    HW148881   2.873   6.600   1.290 -2.2025  1.7000  1.4900
14678SOL    HW248882   2.829   6.733   1.234  0.8858  1.2664 -2.4105
14679SOL     OW48883   5.213   4.558   2.478 -0.2616  0.0404  0.0766
14679SOL    HW148884   5.260   4.610   2.413 -0.3714  0.4970  0.3546
14679SOL    HW248885   5.205   4.616   2.554 -1.1537 -0.0720  0.0831
14680SOL     OW48886   3.749   8.990   1.076  0.5678 -0.2209 -0.2025
14680SOL    HW148887   3.793   8.922   1.127 -0.0175 -0.5691 -0.1527
14680SOL    HW248888   3.715   8.944   0.999 -2.0818 -0.5707  1.0652
14681SOL     OW48889   5.018   5.240   1.426 -0.3397 -0.3197  0.3229
14681SOL    HW148890   4.980   5.159   1.391 -0.2428 -1.2945  2.3588
14681SOL    HW248891   5.107   5.242   1.391 -0.4817 -0.8601 -0.0755
14682SOL     OW48892   1.876   6.458   3.433  0.0780 -0.4473  0.2424
14682SOL    HW148893   1.784   6.445   3.458 -0.2152 -0.4653 -0.8153
14682SOL    HW248894   1.909   6.370   3.414 -0.2478 -0.2621 -1.2573
14683SOL     OW48895   4.131   7.648   9.418 -0.6313  0.1206  0.6372
14683SOL    HW148896   4.073   7.594   9.472  0.8196  0.3583  2.5375
14683SOL    HW248897   4.178   7.703   9.480  0.9268  0.6393 -0.9029
14684SOL     OW48898   3.783   8.808   0.816  0.3512 -0.7166 -0.3340
14684SOL    HW148899   3.800   8.891   0.770  0.3322  0.1625  1.1728
14684SOL    HW248900   3.688   8.798   0.814  0.2169  0.1289  0.8112
14685SOL     OW48901   4.079   5.978   0.192  0.2032 -0.6880  0.0308
14685SOL    HW148902   4.048   6.067   0.174 -0.4509 -1.0229 -0.5153
14685SOL    HW248903   4.130   5.987   0.272  1.2303  0.4092 -0.7232
14686SOL     OW48904   6.734   6.940   2.397  0.5852  0.0177 -0.1824
14686SOL    HW148905   6.794   6.885   2.346  1.1079  1.9585 -1.8162
14686SOL    HW248906   6.782   6.962   2.476  1.5870  0.5916 -0.9329
14687SOL     OW48907   2.774   4.498   0.772  0.1757 -0.7770 -0.1480
14687SOL    HW148908   2.708   4.443   0.815 -0.5461 -0.2017 -0.4919
14687SOL    HW248909   2.858   4.465   0.804 -0.2836 -1.4493  0.3872
14688SOL     OW48910   8.102   5.055   1.542  0.1644 -0.4226  0.3376
14688SOL    HW148911   8.183   5.081   1.586  0.9695 -0.5337 -1.0167
14688SOL    HW248912   8.066   5.137   1.508 -0.3474 -0.3601  1.0380
14689SOL     OW48913   3.704   3.004   0.912  0.3702  0.0808 -0.3451
14689SOL    HW148914   3.610   3.022   0.923  0.8968  2.5947  0.8621
14689SOL    HW248915   3.742   3.089   0.889  2.4077 -0.8373 -0.5825
14690SOL     OW48916   6.574   4.362   1.498 -0.1915 -0.3936 -0.9895
14690SOL    HW148917   6.545   4.426   1.433  0.0804  0.6770 -0.0870
14690SOL    HW248918   6.656   4.397   1.532 -0.1091 -1.1547 -0.3630
14691SOL     OW48919   5.860   8.324   0.403 -0.5622  0.2709 -0.1449
14691SOL    HW148920   5.856   8.238   0.362  2.3564 -0.5642  1.0504
14691SOL    HW248921   5.868   8.307   0.496  0.5189  1.7585  0.0901
14692SOL     OW48922   3.952   5.261   9.048 -0.6979  0.4951  0.3492
14692SOL    HW148923   3.898   5.183   9.034 -0.4910 -0.1084  2.6496
14692SOL    HW248924   3.889   5.334   9.044 -1.0021  0.1968 -1.0708
14693SOL     OW48925   6.881   7.831   1.258  0.8489  0.0547  0.0909
14693SOL    HW148926   6.806   7.876   1.220  0.6521  0.1719  0.6157
14693SOL    HW248927   6.917   7.779   1.186 -2.4362 -3.6458  0.7344
14694SOL     OW48928   5.973   5.878   8.927  0.4637 -0.2237 -0.0562
14694SOL    HW148929   5.908   5.932   8.881  0.6917 -0.0292 -0.1515
14694SOL    HW248930   5.968   5.907   9.018  1.1268  0.5038 -0.2415
14695SOL     OW48931   3.218   2.685   2.547  0.2294 -0.8382  0.1296
14695SOL    HW148932   3.300   2.714   2.587  0.6185  0.2950 -1.3711
14695SOL    HW248933   3.150   2.737   2.591  0.5279 -0.4059  0.0878
14696SOL     OW48934   2.141   7.070   0.603  0.4768  0.0082  0.0913
14696SOL    HW148935   2.191   7.005   0.654  0.6309 -0.6872 -0.9159
14696SOL    HW248936   2.208   7.120   0.556  0.3346  0.6553  0.5637
14697SOL     OW48937   3.451   6.429   2.850 -0.6375  0.2963  0.2047
14697SOL    HW148938   3.501   6.509   2.834  1.9049 -1.3217 -0.5076
14697SOL    HW248939   3.515   6.368   2.888 -2.3122 -1.6225  0.1040
14698SOL     OW48940   4.098   8.535   9.812 -0.6573  0.6153 -0.0835
14698SOL    HW148941   4.092   8.553   9.718 -1.3297  0.8369 -0.0065
14698SOL    HW248942   4.189   8.554   9.835 -0.9943  2.6304 -0.2759
14699SOL     OW48943   3.834   6.374   0.612  0.3747  0.1279  0.2023
14699SOL    HW148944   3.799   6.356   0.699 -2.2347 -0.7232 -0.9234
14699SOL    HW248945   3.898   6.304   0.597 -0.5746 -0.8757  0.7133
14700SOL     OW48946   5.032   6.616   9.733 -0.3130  0.8098 -0.2269
14700SOL    HW148947   4.968   6.587   9.798  1.3504 -1.7801  0.3894
14700SOL    HW248948   4.986   6.608   9.649 -0.9457 -0.5830  0.2220
14701SOL     OW48949   5.584   4.039   3.236 -0.6068 -0.5366 -0.1063
14701SOL    HW148950   5.592   4.087   3.319  1.6914 -0.3908 -0.3492
14701SOL    HW248951   5.673   4.011   3.216 -1.5247 -2.9504 -1.1709
14702SOL     OW48952   3.338   5.323   2.700 -0.5906  0.0790  0.0787
14702SOL    HW148953   3.388   5.403   2.689  0.6656 -0.6337  0.3396
14702SOL    HW248954   3.285   5.316   2.621  2.1135 -0.7437 -1.8295
14703SOL     OW48955   4.534   6.841   1.568  0.0242  0.2714 -1.0237
14703SOL    HW148956   4.488   6.848   1.652  1.4289  0.9735 -0.2830
14703SOL    HW248957   4.593   6.916   1.566  1.0096 -0.4939 -2.0125
14704SOL     OW48958   3.696   6.739   0.838  0.1342  0.1943 -0.4124
14704SOL    HW148959   3.634   6.812   0.839 -1.3799 -1.0365  0.9098
14704SOL    HW248960   3.677   6.693   0.756 -1.6099 -0.8366  0.5058
14705SOL     OW48961   4.592   6.600   2.806  0.2312  0.3074 -0.1627
14705SOL    HW148962   4.536   6.660   2.756 -0.1157 -0.6364 -0.9334
14705SOL    HW248963   4.589   6.518   2.757  2.4899  0.2871 -0.3543
14706SOL     OW48964   3.829   6.012   3.094  0.8067  0.8924  0.5847
14706SOL    HW148965   3.786   6.082   3.143 -0.7119  0.2016  0.3093
14706SOL    HW248966   3.760   5.978   3.036  2.0871  0.5542 -0.7916
14707SOL     OW48967   5.145   6.699   3.809  0.6276 -0.8815 -0.1787
14707SOL    HW148968   5.080   6.769   3.822 -0.6133 -1.5562 -2.2697
14707SOL    HW248969   5.132   6.641   3.884  0.3884  0.1447  0.6117
14708SOL     OW48970   3.718   5.375   2.283 -0.1772  0.1539  0.2294
14708SOL    HW148971   3.634   5.347   2.319 -1.7979  2.0415 -1.7853
14708SOL    HW248972   3.715   5.347   2.191  1.9631 -0.7820  0.3804
14709SOL     OW48973   4.414   5.845   2.342  0.2890 -0.2732 -0.2320
14709SOL    HW148974   4.414   5.828   2.436 -0.4824 -0.5677 -0.2858
14709SOL    HW248975   4.447   5.764   2.303  1.1805  0.0529 -0.1907
14710SOL     OW48976   4.706   6.327   0.142  0.1999  0.2121 -0.2960
14710SOL    HW148977   4.618   6.364   0.140 -0.1023 -0.1369  2.4968
14710SOL    HW248978   4.693   6.234   0.123 -0.0042  0.2223 -0.2099
14711SOL     OW48979   5.807   6.733   9.636 -0.3858  0.0226 -0.2670
14711SOL    HW148980   5.857   6.653   9.651  1.8622  0.5624 -3.7771
14711SOL    HW248981   5.863   6.803   9.671 -1.1771  0.2767  0.5204
14712SOL     OW48982   4.554   7.845   0.729  0.7678  0.3992  0.1075
14712SOL    HW148983   4.642   7.834   0.694  1.3361  2.5604  0.6993
14712SOL    HW248984   4.522   7.925   0.688 -1.2046 -0.6708 -0.5832
14713SOL     OW48985   4.376   6.708   0.605 -0.1473  0.1495  0.2443
14713SOL    HW148986   4.300   6.759   0.576 -0.1903  0.1560  0.3686
14713SOL    HW248987   4.360   6.693   0.698  0.0361  0.2085  0.2854
14714SOL     OW48988   6.728   7.493   9.678 -0.0455 -0.1827  0.0686
14714SOL    HW148989   6.704   7.515   9.768  0.2939  0.3447  0.0371
14714SOL    HW248990   6.645   7.493   9.630 -0.0549  1.2060  0.0408
14715SOL     OW48991   6.662   5.576   0.570 -0.4619  0.8476 -0.0032
14715SOL    HW148992   6.727   5.517   0.532 -0.9911  0.1735  0.1224
14715SOL    HW248993   6.582   5.559   0.521 -0.7990  0.9519  0.4999
14716SOL     OW48994   5.507   7.249   0.958 -0.5981 -0.3569 -0.0159
14716SOL    HW148995   5.428   7.267   1.008  1.0802 -0.1858  2.7892
14716SOL    HW248996   5.565   7.323   0.977  1.2079 -1.7560  0.2262
14717SOL     OW48997   4.480   5.711   1.101  0.5306 -0.0513 -0.4083
14717SOL    HW148998   4.568   5.733   1.131  0.1786 -0.8047  1.2482
14717SOL    HW248999   4.426   5.784   1.129  0.3272 -0.4126  0.1476
14718SOL     OW49000   3.996   6.441   8.768  0.0402  0.0474 -0.5706
14718SOL    HW149001   4.000   6.486   8.852 -0.3189 -1.2998  0.2127
14718SOL    HW249002   3.937   6.494   8.715  0.0608  0.7864  0.1270
14719SOL     OW49003   6.658   7.854   3.201 -0.0308 -0.0209 -0.1955
14719SOL    HW149004   6.676   7.779   3.144 -1.3124  0.8688 -1.8702
14719SOL    HW249005   6.729   7.854   3.265  1.3597 -1.1982 -1.6760
14720SOL     OW49006   4.988   5.146   1.964  0.0981  0.3254  0.0467
14720SOL    HW149007   5.075   5.112   1.944 -0.4900 -1.5354  0.4677
14720SOL    HW249008   4.947   5.159   1.878 -0.5320 -2.5046 -0.1666
14721SOL     OW49009   3.827   7.592   8.897 -0.7927  0.0237  0.5732
14721SOL    HW149010   3.885   7.590   8.820 -2.8834 -0.0666 -1.1147
14721SOL    HW249011   3.811   7.685   8.911 -1.0551  0.0171  0.3436
14722SOL     OW49012   5.163   6.541   0.445  0.2262 -0.5277  0.2976
14722SOL    HW149013   5.093   6.560   0.507 -0.1647  1.7275 -0.7128
14722SOL    HW249014   5.157   6.447   0.429 -3.0527 -0.3407 -0.2618
14723SOL     OW49015   2.071   6.344   1.724 -0.4821  0.1832  0.3712
14723SOL    HW149016   2.071   6.371   1.816  0.5998  0.2408  0.3642
14723SOL    HW249017   2.081   6.426   1.674  1.9142 -0.0518  0.3251
14724SOL     OW49018   3.319   5.269   9.013 -0.6343  0.1937  0.1920
14724SOL    HW149019   3.409   5.239   9.024 -1.3180 -1.1655  3.0398
14724SOL    HW249020   3.276   5.197   8.967 -0.3320  0.8632 -1.2125
14725SOL     OW49021   4.026   7.254   0.149  0.4379  0.4071 -0.3612
14725SOL    HW149022   4.019   7.346   0.173 -1.4664  0.1698  0.1580
14725SOL    HW249023   4.089   7.253   0.077  1.4556  1.9294  0.4388
14726SOL     OW49024   4.194   4.515   3.362  0.2538 -0.6519  0.0753
14726SOL    HW149025   4.210   4.434   3.410  1.8222  0.1906  1.0720
14726SOL    HW249026   4.246   4.506   3.283 -0.1513 -0.9002 -0.1691
14727SOL     OW49027   5.095   5.751   3.071  0.4007  0.4844 -0.3120
14727SOL    HW149028   5.103   5.800   3.152  1.2171  1.3409 -0.8927
14727SOL    HW249029   5.160   5.790   3.012 -1.5679  1.3232 -2.0907
14728SOL     OW49030   2.748   3.955   1.396 -0.2878 -0.5671  0.1863
14728SOL    HW149031   2.722   3.885   1.336 -1.3343  0.9733 -1.2509
14728SOL    HW249032   2.670   3.970   1.450 -0.4204  0.1155 -0.1763
14729SOL     OW49033   5.590   5.956   9.056  0.7655 -0.2320  0.1167
14729SOL    HW149034   5.662   5.944   9.117  1.6496 -1.8430 -1.1728
14729SOL    HW249035   5.528   5.887   9.078  1.1889 -0.9618 -0.8969
14730SOL     OW49036   1.969   6.770   1.902  0.2708  0.0998  0.3561
14730SOL    HW149037   1.903   6.702   1.907 -0.2604  0.6544  1.0607
14730SOL    HW249038   1.920   6.852   1.896  0.8954  0.3907 -1.2161
14731SOL     OW49039   5.693   5.289   0.050 -1.0226  0.1345 -0.5471
14731SOL    HW149040   5.634   5.304   0.124  0.9403 -0.1835  1.1818
14731SOL    HW249041   5.704   5.194   0.048  0.5230  0.2695  0.1244
14732SOL     OW49042   3.579   8.338   3.227 -0.1674 -0.3049  0.4590
14732SOL    HW149043   3.507   8.328   3.165  0.5724  0.0386 -0.4817
14732SOL    HW249044   3.561   8.275   3.297 -0.3394 -1.6313 -0.7522
14733SOL     OW49045   5.191   4.539   0.908  0.0838 -0.3692 -0.1279
14733SOL    HW149046   5.158   4.628   0.895  3.4505  1.1951  0.9822
14733SOL    HW249047   5.279   4.540   0.869  0.9133 -2.6680  1.4805
14734SOL     OW49048   5.964   7.659   9.192  0.8020 -0.0578 -0.1042
14734SOL    HW149049   5.896   7.628   9.252  1.3976 -2.1463 -0.4413
14734SOL    HW249050   5.966   7.754   9.205 -0.3939 -0.2455  1.7846
14735SOL     OW49051   5.947   7.576   0.205 -0.3590  0.3037 -0.0456
14735SOL    HW149052   6.015   7.624   0.252  0.8107 -0.0660 -1.2749
14735SOL    HW249053   5.871   7.578   0.262  1.3685 -1.3060  2.5016
14736SOL     OW49054   3.120   3.353   3.636 -0.0139 -0.0149 -0.0047
14736SOL    HW149055   3.184   3.407   3.589 -0.5746 -0.2201 -1.0366
14736SOL    HW249056   3.067   3.416   3.685  0.7292  0.1858  0.5469
14737SOL     OW49057   2.815   5.982   1.261 -1.1944 -0.5196  0.1633
14737SOL    HW149058   2.852   6.036   1.192 -1.0600 -2.2231 -1.1638
14737SOL    HW249059   2.793   6.044   1.331  0.5696  1.0081 -0.5538
14738SOL     OW49060   4.661   6.785   4.201 -1.0116 -0.2439 -0.6210
14738SOL    HW149061   4.624   6.800   4.288 -0.4319 -0.4190 -0.3406
14738SOL    HW249062   4.595   6.819   4.141 -0.1313  2.8154 -0.0500
14739SOL     OW49063   3.273   5.741   5.311 -0.3355 -0.2432 -0.3455
14739SOL    HW149064   3.295   5.813   5.252  0.1794 -1.2719 -1.4357
14739SOL    HW249065   3.180   5.755   5.332 -0.4828  0.2138 -1.2869
14740SOL     OW49066   5.139   6.080   3.231  0.1661  0.0768  0.4793
14740SOL    HW149067   5.117   5.992   3.262 -1.0139  0.2097  0.0401
14740SOL    HW249068   5.158   6.069   3.138  0.6694  0.1931  0.5624
14741SOL     OW49069   4.093   6.175   2.245 -0.4525 -0.5063 -0.1503
14741SOL    HW149070   4.074   6.102   2.304 -2.1577  0.1718  0.2016
14741SOL    HW249071   4.015   6.230   2.250  1.2064  1.9475  0.4895
14742SOL     OW49072   6.051   6.976   0.339 -0.0439 -0.5411 -0.2391
14742SOL    HW149073   6.104   6.934   0.406  1.0850  1.0000 -0.1113
14742SOL    HW249074   6.101   6.967   0.258  0.4318  0.8273 -0.1372
14743SOL     OW49075   5.535   2.722   3.128 -0.3344 -0.9343 -0.1939
14743SOL    HW149076   5.460   2.707   3.187  0.0331  0.4685  0.6956
14743SOL    HW249077   5.593   2.648   3.143 -1.2922 -1.7669 -0.5006
14744SOL     OW49078   5.194   4.624   4.076  0.7275 -0.4452  0.9964
14744SOL    HW149079   5.141   4.694   4.114  1.1729 -0.8152  2.3378
14744SOL    HW249080   5.245   4.589   4.149  0.3613 -2.3078  0.4271
14745SOL     OW49081   4.355   6.961   4.196 -0.6376  0.1628 -0.2852
14745SOL    HW149082   4.428   7.013   4.229 -0.2428  1.4620 -2.9506
14745SOL    HW249083   4.386   6.926   4.113 -1.6507 -2.7086  0.4234
14746SOL     OW49084   5.311   5.864   2.094  0.0764 -0.0059 -0.0011
14746SOL    HW149085   5.370   5.917   2.040  0.0634 -1.9854 -2.1243
14746SOL    HW249086   5.236   5.921   2.112  0.6219  1.0933 -1.0938
14747SOL     OW49087   2.948   6.069   0.272 -0.3944  0.6208  0.2756
14747SOL    HW149088   2.905   6.152   0.250  1.1618  1.3057 -0.3037
14747SOL    HW249089   2.913   6.006   0.209  0.7956  1.5833 -1.4090
14748SOL     OW49090   4.492   5.102   1.501 -0.2032  0.0209 -0.4859
14748SOL    HW149091   4.446   5.170   1.452  0.0239 -1.0914 -2.3418
14748SOL    HW249092   4.539   5.052   1.434 -0.5314 -2.0863  0.7696
14749SOL     OW49093   5.644   6.629   4.728 -0.8893  0.0832 -0.1181
14749SOL    HW149094   5.739   6.617   4.725 -1.0523 -2.1375  0.8483
14749SOL    HW249095   5.631   6.719   4.759  0.9440  0.0096  0.9992
14750SOL     OW49096   4.459   6.434   0.606 -0.1980  0.1937 -0.5991
14750SOL    HW149097   4.368   6.409   0.623  0.0094 -0.1459  0.0647
14750SOL    HW249098   4.460   6.529   0.612 -0.1273  0.1196  1.5603
14751SOL     OW49099   3.134   4.970   2.972 -0.6966 -0.0173 -0.1204
14751SOL    HW149100   3.140   4.948   3.065 -0.5290 -1.4640 -0.4422
14751SOL    HW249101   3.145   5.065   2.969  1.2830 -0.1419  1.1592
14752SOL     OW49102   6.912   7.405   2.265 -0.1399  0.6767  0.4161
14752SOL    HW149103   6.866   7.487   2.249 -1.9880 -0.3995 -0.0770
14752SOL    HW249104   6.945   7.379   2.179 -1.8715 -0.3680  0.0068
14753SOL     OW49105   3.188   8.434   3.339 -0.2013  0.1471 -0.0165
14753SOL    HW149106   3.236   8.360   3.376  0.8220 -0.8735 -3.1017
14753SOL    HW249107   3.153   8.481   3.415  2.3599 -1.3015  2.2056
14754SOL     OW49108   6.674   6.854   4.023  0.1897 -0.2864  0.0812
14754SOL    HW149109   6.755   6.893   3.988 -0.0014 -0.6549 -0.8013
14754SOL    HW249110   6.677   6.763   3.993 -0.5104 -0.3232  0.1169
14755SOL     OW49111   6.502   6.229   2.521 -0.1599 -0.4322  0.1248
14755SOL    HW149112   6.571   6.240   2.587  0.0377  2.9466 -0.4155
14755SOL    HW249113   6.550   6.214   2.440 -0.3530 -3.2404  0.4604
14756SOL     OW49114   1.450   7.957   2.269 -0.3981 -0.1388  0.3706
14756SOL    HW149115   1.386   7.989   2.204 -0.6808 -0.3946  0.5207
14756SOL    HW249116   1.533   7.957   2.222 -0.4699  0.3903  0.2317
14757SOL     OW49117   5.803   9.495   1.951  0.2650  0.5904  0.2953
14757SOL    HW149118   5.732   9.535   2.001  0.0358 -0.6255  0.9919
14757SOL    HW249119   5.777   9.403   1.942  2.4420 -0.3071  1.9852
14758SOL     OW49120   4.937   7.313   2.362  0.0190  0.6227  0.3555
14758SOL    HW149121   4.911   7.403   2.382 -1.5024  0.6004 -1.3054
14758SOL    HW249122   4.981   7.319   2.277 -1.1350 -0.3341 -0.3280
14759SOL     OW49123   5.698   4.423   4.001  0.4256  0.3208 -0.4353
14759SOL    HW149124   5.618   4.461   3.966 -0.1754  0.0519  0.5914
14759SOL    HW249125   5.673   4.334   4.028  1.5520 -0.4783 -1.8642
14760SOL     OW49126   3.175   9.286   1.417  0.5165  0.3943  0.3780
14760SOL    HW149127   3.190   9.340   1.494 -0.2532  0.3697  0.5562
14760SOL    HW249128   3.257   9.290   1.368  0.4642  1.7261  0.3764
14761SOL     OW49129   5.262   7.749   4.828  0.3789  0.3623 -0.2802
14761SOL    HW149130   5.302   7.834   4.816 -0.9990  1.0436 -0.2808
14761SOL    HW249131   5.177   7.767   4.868 -0.1066 -0.9679 -0.6242
14762SOL     OW49132   5.139   7.477   0.592  0.0488  0.7335 -0.2920
14762SOL    HW149133   5.205   7.422   0.635  0.5789  2.0183  0.5921
14762SOL    HW249134   5.065   7.477   0.653 -0.1966  0.5054 -0.5848
14763SOL     OW49135   3.055   6.098   3.033 -0.2628 -0.5934 -0.5698
14763SOL    HW149136   3.034   6.190   3.049 -0.6259 -0.7577 -0.0637
14763SOL    HW249137   3.126   6.080   3.095 -1.1461 -1.0262  0.3460
14764SOL     OW49138   2.571   3.988   2.181 -0.6462 -0.1393 -0.3081
14764SOL    HW149139   2.600   3.907   2.140 -2.7261 -0.7567 -0.6509
14764SOL    HW249140   2.564   3.967   2.275  0.1758  0.0720 -0.1955
14765SOL     OW49141   4.320   6.803   4.511 -0.6352  0.2002  0.3618
14765SOL    HW149142   4.415   6.788   4.508 -0.3461  1.6794  1.0309
14765SOL    HW249143   4.282   6.715   4.509  0.7911 -0.4854  1.1602
14766SOL     OW49144   6.222   5.771   8.789 -0.5017  0.7514 -0.5262
14766SOL    HW149145   6.147   5.808   8.834 -0.5442  1.1700 -0.9273
14766SOL    HW249146   6.284   5.748   8.858 -1.1548  0.0487 -0.1715
14767SOL     OW49147   6.049   6.345   0.597 -0.2502 -0.0843 -0.4560
14767SOL    HW149148   6.065   6.437   0.618  0.4747 -0.5163  1.0628
14767SOL    HW249149   6.125   6.319   0.545 -0.8159  0.3393 -1.5305
14768SOL     OW49150   6.448   9.343   1.693 -0.5135  0.2446 -0.6017
14768SOL    HW149151   6.487   9.403   1.629  0.0965  0.5667  0.0597
14768SOL    HW249152   6.466   9.384   1.778 -2.4254  0.4809 -0.2680
14769SOL     OW49153   6.594   7.232   2.568  0.0999  0.5006  0.6051
14769SOL    HW149154   6.638   7.265   2.490  1.9038  0.5637  1.6023
14769SOL    HW249155   6.527   7.173   2.534  1.2527  0.0263 -0.9761
14770SOL     OW49156   6.947   7.520   3.192  0.3716 -0.2233  0.1661
14770SOL    HW149157   6.880   7.580   3.159 -0.0931 -0.6828  0.2710
14770SOL    HW249158   6.982   7.478   3.114 -1.1827 -1.7943  0.2466
14771SOL     OW49159   2.769   4.745   3.259  0.0056 -0.0808  0.3393
14771SOL    HW149160   2.796   4.803   3.188  0.9377 -0.5346  0.3140
14771SOL    HW249161   2.674   4.739   3.249  0.2220 -1.2637 -1.7734
14772SOL     OW49162   4.240   3.226   4.113 -0.4155 -0.1818 -0.0581
14772SOL    HW149163   4.335   3.237   4.115 -0.4008 -0.3230  1.2015
14772SOL    HW249164   4.211   3.277   4.037  0.7583 -1.0624 -1.1318
14773SOL     OW49165   4.230   7.453   2.439 -0.2787 -0.2730 -0.5285
14773SOL    HW149166   4.171   7.378   2.453 -0.9628  0.3247 -0.1626
14773SOL    HW249167   4.180   7.528   2.469  1.1967  0.1066  1.1040
14774SOL     OW49168   4.285   7.724   3.555  0.1526  0.2170  0.3358
14774SOL    HW149169   4.219   7.745   3.489  1.0526 -0.6941 -0.9160
14774SOL    HW249170   4.241   7.739   3.639 -1.5415 -0.0730 -0.4496
14775SOL     OW49171   5.598   7.472   2.813 -0.1506 -0.4404 -0.0068
14775SOL    HW149172   5.512   7.513   2.808 -1.0183 -2.0998  0.4799
14775SOL    HW249173   5.614   7.436   2.726  0.4716  0.6069 -0.3463
14776SOL     OW49174   6.615   6.623   0.541  0.0422  0.1038 -0.1109
14776SOL    HW149175   6.587   6.610   0.451  1.2219 -2.8077 -0.1784
14776SOL    HW249176   6.548   6.578   0.593  0.3537  0.1480  0.3328
14777SOL     OW49177   4.546   5.224   3.805 -0.0897  0.5932 -0.1757
14777SOL    HW149178   4.477   5.261   3.860  0.2420 -1.7486  2.0111
14777SOL    HW249179   4.622   5.281   3.820 -0.2109  0.4014  1.2742
14778SOL     OW49180   4.863   6.146   4.276  0.0103 -0.2315 -0.0642
14778SOL    HW149181   4.821   6.230   4.254  0.2627  0.1758  0.9300
14778SOL    HW249182   4.936   6.170   4.333  0.4533 -1.0914 -0.2499
14779SOL     OW49183   4.492   6.867   3.979 -0.6423 -0.1221 -0.1637
14779SOL    HW149184   4.420   6.806   3.963 -0.6043  0.0598 -1.0528
14779SOL    HW249185   4.530   6.884   3.893 -1.1956  1.8493 -0.0752
14780SOL     OW49186   3.192   8.099   2.294 -0.0167 -0.5547 -0.6659
14780SOL    HW149187   3.118   8.092   2.354  1.1042  0.6585  0.9702
14780SOL    HW249188   3.167   8.168   2.233 -0.1773 -0.0172 -0.0059
14781SOL     OW49189   5.452   5.070   2.392 -0.2296 -0.0735  0.7730
14781SOL    HW149190   5.457   5.164   2.406 -1.4543  0.3153 -1.1441
14781SOL    HW249191   5.540   5.046   2.363 -0.0612  0.5589  0.7470
14782SOL     OW49192   3.281   6.292   2.711 -0.2967  0.3142 -0.9426
14782SOL    HW149193   3.349   6.342   2.755 -0.5047  1.3777 -1.7884
14782SOL    HW249194   3.271   6.213   2.763 -0.4037  1.4359  0.8131
14783SOL     OW49195   3.953   9.493   1.626  0.2131  0.0041  0.1598
14783SOL    HW149196   4.012   9.545   1.571 -0.1030  0.6011  0.3762
14783SOL    HW249197   3.979   9.514   1.716 -0.2044  0.1237  0.2532
14784SOL     OW49198   2.122   6.574   4.206  0.4259  0.2402  0.0657
14784SOL    HW149199   2.075   6.493   4.223  0.7091 -0.0437 -0.5011
14784SOL    HW249200   2.151   6.603   4.293  0.2244 -0.1963  0.2828
14785SOL     OW49201   2.986   7.904   4.732 -0.0663 -0.0644 -0.0601
14785SOL    HW149202   2.916   7.967   4.749 -0.3115 -0.2311 -0.4289
14785SOL    HW249203   2.966   7.869   4.645  1.0022  0.5927 -0.5979
14786SOL     OW49204   4.865   5.338   3.206 -0.0598 -0.4625 -0.8133
14786SOL    HW149205   4.796   5.288   3.248 -1.4874  0.8441 -1.4820
14786SOL    HW249206   4.893   5.284   3.132  0.9678 -1.8146  0.5157
14787SOL     OW49207   6.551   6.617   2.657 -0.3089  0.0618 -0.3420
14787SOL    HW149208   6.542   6.710   2.677  2.4502  0.3718 -0.1587
14787SOL    HW249209   6.558   6.612   2.562 -0.6985  0.0120 -0.3684
14788SOL     OW49210   4.247   6.054   0.419 -0.0918  0.3151  0.1011
14788SOL    HW149211   4.281   5.990   0.481 -0.6281  0.0949  0.1738
14788SOL    HW249212   4.173   6.095   0.465  0.3238  1.0808  0.1094
14789SOL     OW49213   5.527   7.841   0.532  0.7183 -0.4044 -0.3330
14789SOL    HW149214   5.435   7.847   0.558  0.8766  0.6282  0.0495
14789SOL    HW249215   5.534   7.757   0.486  0.4971 -2.5248  3.1880
14790SOL     OW49216   3.701   7.100   6.579 -0.1569  0.4084  0.2203
14790SOL    HW149217   3.779   7.070   6.625  0.5361 -0.0514 -1.1754
14790SOL    HW249218   3.732   7.120   6.490 -1.5663  0.5185 -0.2715
14791SOL     OW49219   3.780   6.546   1.403  0.2303  0.7136 -0.0449
14791SOL    HW149220   3.752   6.599   1.329  1.0066  2.5038  0.8866
14791SOL    HW249221   3.698   6.517   1.445 -0.2204 -0.6206 -1.7427
14792SOL     OW49222   2.105   4.567   3.708  0.0909 -0.0440  0.3131
14792SOL    HW149223   2.101   4.541   3.800  0.7314 -0.9500  0.0988
14792SOL    HW249224   2.144   4.654   3.709  2.4928 -1.0342  0.7833
14793SOL     OW49225   2.370   6.679   4.020 -0.1874 -0.3154  0.1303
14793SOL    HW149226   2.388   6.656   3.928 -1.2534  1.0028 -0.4364
14793SOL    HW249227   2.304   6.615   4.047 -1.3579  0.4966 -0.6851
14794SOL     OW49228   5.414   6.995   1.408 -0.1242 -0.7617  0.1015
14794SOL    HW149229   5.445   7.019   1.321  0.1336 -2.2569 -0.2568
14794SOL    HW249230   5.493   6.997   1.462 -0.1058 -0.7795  0.0759
14795SOL     OW49231   6.068   3.876   1.688 -0.9647 -0.1990  0.4573
14795SOL    HW149232   6.012   3.953   1.698 -0.4046  0.1551  0.9348
14795SOL    HW249233   6.157   3.911   1.686 -0.7039 -0.8299  0.7212
14796SOL     OW49234   3.372   7.454   6.362 -0.3866  0.0263 -0.0058
14796SOL    HW149235   3.291   7.410   6.337  0.5299 -1.4767 -0.4687
14796SOL    HW249236   3.430   7.445   6.286  1.2858 -1.7284  1.3532
14797SOL     OW49237   5.001   4.548   0.434 -0.1550 -0.0109  0.5892
14797SOL    HW149238   5.064   4.504   0.377 -1.2615 -0.7961 -0.0471
14797SOL    HW249239   4.922   4.494   0.430 -0.5849  0.4386  2.1136
14798SOL     OW49240   4.117   4.870   1.378  0.0744  0.1998 -0.3555
14798SOL    HW149241   4.061   4.904   1.307  2.4469  2.7209 -1.2002
14798SOL    HW249242   4.126   4.777   1.359 -0.7066  0.4940 -2.4407
14799SOL     OW49243   3.400   8.359   2.279 -0.0755  0.5137  0.2849
14799SOL    HW149244   3.383   8.278   2.231  2.6616 -0.0875  0.1298
14799SOL    HW249245   3.454   8.331   2.353  2.8644  2.3537 -1.0018
14800SOL     OW49246   1.624   7.036   3.159  0.4610  0.0647 -0.3006
14800SOL    HW149247   1.707   7.083   3.160 -0.9075  2.6536 -0.1695
14800SOL    HW249248   1.604   7.021   3.251 -0.5753  2.1743 -0.1184
14801SOL     OW49249   7.468   2.282   7.205  0.1078  0.5355  0.1903
14801SOL    HW149250   7.561   2.279   7.226  0.3785 -2.5063 -0.8741
14801SOL    HW249251   7.429   2.212   7.257 -1.2148  0.4708 -0.8244
14802SOL     OW49252   5.666   3.909   1.216 -0.1387  0.3260  0.7928
14802SOL    HW149253   5.742   3.926   1.160 -1.6306  0.0596 -1.4529
14802SOL    HW249254   5.597   3.965   1.179 -0.6565  1.8985  3.8302
14803SOL     OW49255   2.631   6.292   1.254 -0.3298 -0.0426  0.4306
14803SOL    HW149256   2.651   6.222   1.192  0.9757 -0.9410  1.8075
14803SOL    HW249257   2.663   6.372   1.211 -1.4641 -0.3043 -0.9755
14804SOL     OW49258   4.549   6.224   0.842 -0.0767 -0.2851 -0.2367
14804SOL    HW149259   4.556   6.229   0.747  2.2172 -1.9533 -0.2410
14804SOL    HW249260   4.639   6.219   0.873 -0.7307  0.8322  2.1034
14805SOL     OW49261   3.889   7.023   0.523 -0.7328  0.0845 -0.2010
14805SOL    HW149262   3.913   6.931   0.510 -0.9885 -0.2244  1.3578
14805SOL    HW249263   3.912   7.041   0.614 -1.6471  1.2740 -0.1893
14806SOL     OW49264   3.147   4.559   1.612  0.5172 -0.0965  0.4303
14806SOL    HW149265   3.162   4.531   1.521  0.5984  0.2049  0.3522
14806SOL    HW249266   3.175   4.484   1.664  1.2501  0.0374  0.2427
14807SOL     OW49267   5.165   5.446   0.753  0.3314  0.0200 -0.2369
14807SOL    HW149268   5.141   5.488   0.836  0.5793 -1.5028  0.6261
14807SOL    HW249269   5.214   5.514   0.706  1.1060  0.5661  1.3045
14808SOL     OW49270   2.887   5.570   3.826 -0.4554 -0.1620  0.1317
14808SOL    HW149271   2.953   5.554   3.893  2.6394 -1.6183 -2.9685
14808SOL    HW249272   2.845   5.485   3.813 -1.1475  0.1493  0.2755
14809SOL     OW49273   2.900   7.328   3.762  0.0301  0.0532  0.5694
14809SOL    HW149274   2.927   7.406   3.715  0.6470 -0.7317 -0.4108
14809SOL    HW249275   2.982   7.282   3.782 -0.3467 -0.5949  0.6735
14810SOL     OW49276   2.005   6.642   2.964  0.0193  0.3174 -0.3263
14810SOL    HW149277   2.080   6.702   2.955 -1.3789  1.9250 -2.3058
14810SOL    HW249278   1.993   6.633   3.058  1.2458  1.9487  0.0395
14811SOL     OW49279   6.532   6.319   1.320  0.6916  0.7274  0.6888
14811SOL    HW149280   6.493   6.234   1.300 -0.5285  1.2830  0.6336
14811SOL    HW249281   6.616   6.318   1.274  1.2898 -0.9337  1.7170
14812SOL     OW49282   2.979   5.447   2.740 -0.1734 -0.5464  0.0564
14812SOL    HW149283   2.897   5.495   2.755  0.3017  0.7202 -1.2676
14812SOL    HW249284   2.955   5.378   2.678 -0.5197 -1.0733  0.7580
14813SOL     OW49285   5.180   4.756   2.674  0.3945  0.4493 -0.1863
14813SOL    HW149286   5.216   4.841   2.649 -0.7226  0.6953 -1.0299
14813SOL    HW249287   5.115   4.777   2.742  0.5501  0.1974  0.0430
14814SOL     OW49288   3.152   6.111   2.110 -0.2212  0.1076 -0.6779
14814SOL    HW149289   3.144   6.167   2.187 -4.2013 -0.1368 -0.6826
14814SOL    HW249290   3.130   6.023   2.141  1.1589 -0.6064 -1.5870
14815SOL     OW49291   3.464   3.607   1.259 -0.3949 -0.0925 -0.1910
14815SOL    HW149292   3.454   3.661   1.181  1.2737  1.0666  0.3304
14815SOL    HW249293   3.482   3.519   1.226 -1.1178  0.0836 -1.0818
14816SOL     OW49294   7.354   5.543   2.299 -0.1562  0.2530  0.4763
14816SOL    HW149295   7.443   5.514   2.318  0.0713  1.6016  1.5965
14816SOL    HW249296   7.303   5.517   2.376 -0.3635  1.0344  0.6057
14817SOL     OW49297   6.066   6.362   2.686  0.0968  0.8366 -0.1010
14817SOL    HW149298   6.152   6.323   2.706  0.3471  1.4305  0.0022
14817SOL    HW249299   6.087   6.436   2.629 -0.3730  0.8391 -0.2683
14818SOL     OW49300   5.853   6.681   2.611 -0.4107 -0.8519  0.0423
14818SOL    HW149301   5.854   6.590   2.579 -0.3987 -0.8086 -0.0835
14818SOL    HW249302   5.764   6.693   2.646 -0.3854 -0.9388  0.1376
14819SOL     OW49303   1.608   7.612   3.292 -0.2658 -0.4151  0.0958
14819SOL    HW149304   1.530   7.658   3.324 -0.8380 -2.1588  1.4133
14819SOL    HW249305   1.603   7.621   3.196 -0.7215  1.5675  0.2615
14820SOL     OW49306   4.593   6.997   3.195  0.5945 -0.2333 -0.3994
14820SOL    HW149307   4.629   7.080   3.227  0.1952 -0.2009 -0.0123
14820SOL    HW249308   4.524   7.022   3.134 -0.0093 -0.2599  0.2556
14821SOL     OW49309   6.214   5.438   1.756 -0.3500  0.0966  0.7439
14821SOL    HW149310   6.136   5.447   1.810 -0.1762 -0.8562  1.1611
14821SOL    HW249311   6.182   5.402   1.673 -0.5292  0.9742  0.4218
14822SOL     OW49312   4.235   3.596   9.469  0.1721  0.2365  0.2519
14822SOL    HW149313   4.184   3.524   9.433  1.3732 -1.1114  1.1408
14822SOL    HW249314   4.326   3.577   9.446  0.6136  0.9936  1.2345
14823SOL     OW49315   6.133   7.197   4.505  0.1373 -0.3280  0.4306
14823SOL    HW149316   6.075   7.274   4.506 -1.0158 -1.1684  1.4143
14823SOL    HW249317   6.198   7.217   4.438 -0.2802  1.3970  0.4855
14824SOL     OW49318   4.240   6.707   4.861 -0.4762 -0.0369  0.5575
14824SOL    HW149319   4.252   6.802   4.869 -0.4821 -0.0078  0.2284
14824SOL    HW249320   4.156   6.697   4.817 -2.0117 -0.2573  3.3491
14825SOL     OW49321   6.868   7.121   3.609  0.1339  0.1380  0.4100
14825SOL    HW149322   6.918   7.127   3.528 -1.5695  1.2142 -0.6127
14825SOL    HW249323   6.832   7.032   3.609 -0.4416  0.3666 -0.3805
14826SOL     OW49324   2.926   6.852   2.388  0.6868  0.4097 -0.4253
14826SOL    HW149325   2.984   6.924   2.363  0.2813  0.4993 -1.1577
14826SOL    HW249326   2.975   6.773   2.364  0.9834  0.4509  0.0418
14827SOL     OW49327   4.628   6.803   8.838  0.1064  0.0784 -0.3153
14827SOL    HW149328   4.625   6.886   8.791 -1.7189  0.1337 -0.1644
14827SOL    HW249329   4.556   6.808   8.901  0.2330 -1.4379 -0.0026
14828SOL     OW49330   4.250   5.686   1.975  0.1803  0.8075  0.2229
14828SOL    HW149331   4.292   5.681   1.889 -3.2354 -1.2938 -1.5846
14828SOL    HW249332   4.310   5.642   2.034  1.5438  0.0134 -1.6619
14829SOL     OW49333   7.938   8.083   2.803  0.4200 -0.6032 -0.5499
14829SOL    HW149334   7.957   8.122   2.717  0.3810 -0.8360 -0.6636
14829SOL    HW249335   7.958   7.990   2.792 -2.4861 -1.2533 -1.2480
14830SOL     OW49336   3.265   7.233   2.903  0.1449  0.0043 -0.4466
14830SOL    HW149337   3.325   7.179   2.850 -0.8941 -3.2888  1.4465
14830SOL    HW249338   3.178   7.213   2.867 -0.2019  1.5005 -0.4997
14831SOL     OW49339   4.068   6.978   4.572 -0.0737 -0.2813 -0.1512
14831SOL    HW149340   4.037   6.888   4.572  2.3107 -1.1957  1.0764
14831SOL    HW249341   4.026   7.018   4.649 -2.1639  0.1246 -1.4337
14832SOL     OW49342   5.190   5.366   1.628 -0.2401 -0.2769  0.4979
14832SOL    HW149343   5.166   5.347   1.719  0.0167  1.1149  0.8671
14832SOL    HW249344   5.120   5.325   1.576 -0.8405 -0.3592  1.3525
14833SOL     OW49345   5.014   6.791   2.475 -0.0194  0.3795  0.2203
14833SOL    HW149346   4.956   6.753   2.540  2.6653 -2.5176  1.1826
14833SOL    HW249347   4.979   6.879   2.459 -2.4792  0.1298  3.3532
14834SOL     OW49348   5.245   6.321   1.709 -0.5374 -0.0941  0.4438
14834SOL    HW149349   5.309   6.385   1.679 -0.7442 -0.6593 -1.3085
14834SOL    HW249350   5.297   6.254   1.754 -0.0554  0.0979  0.1783
14835SOL     OW49351   3.584   5.202   2.754  0.4864 -0.6345  0.0880
14835SOL    HW149352   3.497   5.228   2.722  1.3670  2.3521 -0.1779
14835SOL    HW249353   3.578   5.107   2.764 -2.5097 -0.6511 -0.7906
14836SOL     OW49354   5.105   7.484   1.517  0.2943  0.0984 -0.0829
14836SOL    HW149355   5.106   7.407   1.461 -0.1054 -0.1146  0.2009
14836SOL    HW249356   5.131   7.556   1.459 -1.3816  0.1048 -0.8868
14837SOL     OW49357   4.418   7.149   3.562  0.0542 -0.4565 -0.4437
14837SOL    HW149358   4.354   7.219   3.574 -0.5023 -1.0454  0.1293
14837SOL    HW249359   4.440   7.121   3.651  1.2264 -0.1700 -0.6281
14838SOL     OW49360   6.031   6.954   1.286 -0.0558  0.2666  0.5145
14838SOL    HW149361   5.993   7.005   1.215  0.1648  0.8504  0.8136
14838SOL    HW249362   5.964   6.954   1.354 -0.0161  0.2384  0.5534
14839SOL     OW49363   3.642   9.664   4.131 -0.0021 -0.6080 -0.0516
14839SOL    HW149364   3.556   9.629   4.107 -1.2567  1.7353  0.7733
14839SOL    HW249365   3.675   9.602   4.196 -1.9151 -0.5897  1.0097
14840SOL     OW49366   7.070   4.423   3.103 -0.5629 -0.3439  0.1380
14840SOL    HW149367   7.144   4.483   3.106 -0.3429 -0.6058 -0.0023
14840SOL    HW249368   7.103   4.346   3.056 -1.3071  0.0589 -1.1029
14841SOL     OW49369   1.854   6.059   4.047 -0.3198 -0.2272  0.1156
14841SOL    HW149370   1.848   5.982   3.990  3.7863 -0.2555 -0.5538
14841SOL    HW249371   1.828   6.132   3.990 -1.3810 -0.7778 -0.1330
14842SOL     OW49372   2.885   3.306   1.546 -0.1840 -0.3506  0.0136
14842SOL    HW149373   2.922   3.394   1.540  0.1562 -0.3805  1.3868
14842SOL    HW249374   2.961   3.249   1.554 -0.4673 -0.5527  1.3611
14843SOL     OW49375   3.991   4.633   1.278  0.0305 -0.7358 -0.1637
14843SOL    HW149376   4.005   4.606   1.369  1.9020 -1.9281 -0.7690
14843SOL    HW249377   3.896   4.645   1.272 -0.0828  0.0091  2.1038
14844SOL     OW49378   6.800   6.309   2.646 -0.5225  0.1121  0.9013
14844SOL    HW149379   6.879   6.255   2.653 -0.7732 -0.6025 -1.0368
14844SOL    HW249380   6.808   6.373   2.716  1.5377 -0.2520  1.0573
14845SOL     OW49381   4.273   7.393   4.524  0.0437 -0.7796  0.2540
14845SOL    HW149382   4.265   7.488   4.531 -2.2396 -0.8134 -1.0479
14845SOL    HW249383   4.247   7.360   4.610 -3.0229 -0.2970 -0.3694
14846SOL     OW49384   6.580   5.753   1.265 -0.3016  0.2185  0.4552
14846SOL    HW149385   6.641   5.690   1.301 -0.5490 -0.5520 -0.4311
14846SOL    HW249386   6.632   5.807   1.206 -0.2415  0.3578  0.6341
14847SOL     OW49387   2.792   3.431   4.843 -0.1926 -0.6062  0.0098
14847SOL    HW149388   2.785   3.513   4.795  1.9747  0.2398  1.0326
14847SOL    HW249389   2.703   3.413   4.872 -0.7878  1.1301 -0.6250
14848SOL     OW49390   4.342   5.951   1.984 -0.3093  0.2009  0.0112
14848SOL    HW149391   4.346   6.000   2.067 -2.4345  2.7079 -1.2059
14848SOL    HW249392   4.310   5.864   2.010 -1.4307  1.0744  1.8029
14849SOL     OW49393   1.759   7.511   4.408  0.3198  0.3392  0.5893
14849SOL    HW149394   1.772   7.472   4.494 -0.0006  0.9998  0.9499
14849SOL    HW249395   1.824   7.581   4.403 -0.2712  0.9089  0.6852
14850SOL     OW49396   6.885   7.920   1.950 -0.1775 -0.2698 -0.7016
14850SOL    HW149397   6.824   7.974   2.000  0.7682  0.0648  0.1049
14850SOL    HW249398   6.965   7.918   2.002  0.5986 -0.4969 -1.8667
14851SOL     OW49399   4.236   6.375   3.307 -0.2739  0.1519 -0.5849
14851SOL    HW149400   4.211   6.416   3.225 -1.5275  1.7296  0.5216
14851SOL    HW249401   4.199   6.432   3.375  1.3721 -0.6630  1.0943
14852SOL     OW49402   3.731   6.696   0.327 -0.0334  0.2033 -0.0195
14852SOL    HW149403   3.813   6.735   0.358 -0.2641  0.4574  0.2812
14852SOL    HW249404   3.734   6.708   0.232 -0.0432  0.8569  0.0553
14853SOL     OW49405   6.829   4.499   1.334 -0.6192  0.0694  0.1087
14853SOL    HW149406   6.745   4.545   1.325 -0.0576  1.3899  1.2003
14853SOL    HW249407   6.832   4.472   1.426  1.4076  2.7729  0.9805
14854SOL     OW49408   5.776   7.874   2.037 -0.2001  0.5116 -0.0404
14854SOL    HW149409   5.739   7.960   2.019 -1.0623 -0.0204 -0.9498
14854SOL    HW249410   5.756   7.858   2.129  0.5299  1.5309  0.3142
14855SOL     OW49411   6.680   5.173   4.096  0.1770  0.2825 -0.1496
14855SOL    HW149412   6.685   5.127   4.180 -0.6279  0.4698  0.0044
14855SOL    HW249413   6.768   5.207   4.082 -0.3003  2.6812  1.9887
14856SOL     OW49414   7.961   7.380   4.875 -0.3107  0.3074 -0.4151
14856SOL    HW149415   7.879   7.403   4.830 -1.1176 -0.4121  0.6417
14856SOL    HW249416   7.987   7.461   4.920 -2.4286 -0.3342  2.2079
14857SOL     OW49417   5.613   5.586   0.508 -0.1599 -0.0157 -0.1484
14857SOL    HW149418   5.661   5.662   0.541  0.0544 -1.2430  2.6787
14857SOL    HW249419   5.677   5.541   0.451  1.3854 -0.4525  1.8114
14858SOL     OW49420   4.116   4.836   2.463 -0.5761 -0.3161 -0.0040
14858SOL    HW149421   4.182   4.779   2.503  1.3239  1.1193 -0.9239
14858SOL    HW249422   4.135   4.923   2.499 -1.9978  0.1401 -0.2876
14859SOL     OW49423   1.244   8.810   3.246  0.4333 -0.3066 -0.0538
14859SOL    HW149424   1.331   8.814   3.285  0.3666  0.1502  0.0564
14859SOL    HW249425   1.232   8.718   3.222  0.8865 -0.3953  0.0606
14860SOL     OW49426   5.195   5.956   1.688  0.2084 -0.1086  0.3395
14860SOL    HW149427   5.118   6.012   1.679 -0.6008 -1.1668  0.5346
14860SOL    HW249428   5.163   5.878   1.734  1.3018 -0.7427  0.0599
14861SOL     OW49429   8.150   6.992   3.265  0.1502 -0.7110  0.4292
14861SOL    HW149430   8.098   6.924   3.306  1.4241 -1.4171  0.9208
14861SOL    HW249431   8.241   6.963   3.275  1.0925  2.6267  3.7321
14862SOL     OW49432   6.694   7.610   1.573 -0.9712 -0.0949 -0.2674
14862SOL    HW149433   6.759   7.644   1.635 -1.8642  1.3451 -0.0671
14862SOL    HW249434   6.744   7.587   1.495 -0.0132 -0.6500  0.4901
14863SOL     OW49435   3.493   4.676   1.728 -0.2034 -0.0683  0.7730
14863SOL    HW149436   3.428   4.683   1.797 -0.4332  0.9209  0.4636
14863SOL    HW249437   3.539   4.760   1.729  3.1292 -1.6792  2.9827
14864SOL     OW49438   2.618   7.972   3.812  0.3655 -0.2336  0.1861
14864SOL    HW149439   2.543   7.916   3.827  0.8823 -1.5188 -1.6591
14864SOL    HW249440   2.583   8.048   3.766 -0.0689  0.1033  1.0585
14865SOL     OW49441   5.625   7.987   0.981 -0.4511 -0.7320 -0.1186
14865SOL    HW149442   5.664   7.955   0.899  1.3672 -1.5654  0.9994
14865SOL    HW249443   5.675   8.065   1.003  0.6736 -1.7914  1.3251
14866SOL     OW49444   5.031   5.172   9.273  0.0553  0.3788  0.8727
14866SOL    HW149445   5.101   5.237   9.276 -0.5188  1.1485 -0.9879
14866SOL    HW249446   4.955   5.217   9.308 -0.3128  0.7159 -0.3034
14867SOL     OW49447   3.622   1.707   4.120 -0.4177  0.8039  0.2522
14867SOL    HW149448   3.690   1.721   4.186  0.9603 -1.5634 -0.5394
14867SOL    HW249449   3.543   1.690   4.171  1.0225 -3.1404  1.5916
14868SOL     OW49450   2.557   3.963   4.333  0.0986  1.1076  0.2270
14868SOL    HW149451   2.618   3.975   4.406  0.1180 -1.0205  0.6397
14868SOL    HW249452   2.596   3.893   4.281 -0.6634  1.5765 -1.0072
14869SOL     OW49453   7.256   4.790   7.277  0.3540  0.1326  0.3958
14869SOL    HW149454   7.332   4.843   7.254 -0.0619 -0.3746 -2.5769
14869SOL    HW249455   7.293   4.708   7.309  1.0821  0.1514 -0.3539
14870SOL     OW49456   4.689   5.230   3.482 -0.6074  0.0191  0.0788
14870SOL    HW149457   4.756   5.266   3.540  0.6176 -1.1370 -0.5785
14870SOL    HW249458   4.622   5.197   3.542  0.1688 -0.2560  0.8177
14871SOL     OW49459   7.314   8.033   3.321 -0.3600 -0.0405 -0.2937
14871SOL    HW149460   7.284   7.942   3.326  0.9324 -0.5366 -0.9769
14871SOL    HW249461   7.386   8.037   3.384 -1.3733  0.9349  0.8302
14872SOL     OW49462   4.724   5.933   4.174  0.1688 -0.0357  0.3967
14872SOL    HW149463   4.772   5.980   4.242  0.0993 -1.0970  1.2188
14872SOL    HW249464   4.771   5.951   4.093  1.3880 -0.2786  1.0330
14873SOL     OW49465   2.612   6.913   6.375 -0.4577  0.3361 -0.3682
14873SOL    HW149466   2.632   6.982   6.439 -0.2086 -0.2193  0.1574
14873SOL    HW249467   2.542   6.862   6.415  1.1609 -1.3457  0.4799
14874SOL     OW49468   3.357   5.466   4.406 -0.0146 -0.1209 -0.3495
14874SOL    HW149469   3.282   5.517   4.436 -0.4579 -0.5225 -0.7578
14874SOL    HW249470   3.372   5.402   4.475  1.0289  1.0298  0.5296
14875SOL     OW49471   5.009   5.240   3.500 -0.3826  0.4163  0.6429
14875SOL    HW149472   5.060   5.159   3.501 -0.7008  0.2151  1.4896
14875SOL    HW249473   4.940   5.224   3.435  0.2968  0.4883 -0.1135
14876SOL     OW49474   3.167   8.293   2.626 -0.1573 -0.5000 -0.4097
14876SOL    HW149475   3.115   8.280   2.705 -0.3561  1.1308 -0.2370
14876SOL    HW249476   3.222   8.215   2.620  0.9094 -0.0516  2.1501
14877SOL     OW49477   4.154   5.982   2.450  0.2209  0.0899  0.1609
14877SOL    HW149478   4.075   5.930   2.468  0.4181 -0.5848 -0.8432
14877SOL    HW249479   4.219   5.918   2.421  1.0541  0.6832  0.6673
14878SOL     OW49480   5.495   6.707   1.456 -0.0250  0.2860  0.7019
14878SOL    HW149481   5.488   6.636   1.393 -0.3085 -0.1271  1.1875
14878SOL    HW249482   5.483   6.787   1.405  0.0358 -0.0271  0.1956
14879SOL     OW49483   7.898   8.832   1.913  0.1610  0.2519  0.7798
14879SOL    HW149484   7.833   8.902   1.919  0.6466  0.7079  0.7523
14879SOL    HW249485   7.970   8.870   1.863  0.2176 -0.4288  0.3384
14880SOL     OW49486   5.093   5.736   1.821 -0.3746  0.3310  0.2575
14880SOL    HW149487   5.152   5.707   1.891 -1.8219 -0.3931  1.2355
14880SOL    HW249488   5.031   5.794   1.865 -0.3528  1.1443 -0.7647
14881SOL     OW49489   4.934   6.111   3.433 -0.1556  0.5801 -0.3830
14881SOL    HW149490   4.918   6.205   3.435  3.9405  1.4444  2.0227
14881SOL    HW249491   4.994   6.099   3.358  0.5470  0.1932  0.2277
14882SOL     OW49492   4.997   5.371   0.502  0.5846 -0.2890  0.0719
14882SOL    HW149493   4.967   5.407   0.585 -1.4276  0.1418 -0.7721
14882SOL    HW249494   4.960   5.282   0.499  0.1862 -0.1133 -0.5642
14883SOL     OW49495   4.595   6.173   1.606  0.2635 -0.2509  0.0251
14883SOL    HW149496   4.551   6.088   1.608  0.7939 -0.5547 -0.8340
14883SOL    HW249497   4.638   6.180   1.691 -2.1267  0.4405  1.2835
14884SOL     OW49498   4.701   9.218   1.013 -0.1246 -0.3970 -0.7051
14884SOL    HW149499   4.650   9.221   1.094  1.6918  5.2947  0.6740
14884SOL    HW249500   4.791   9.204   1.042  0.3805  0.3743 -1.8536
14885SOL     OW49501   2.650   8.856   2.199 -0.0990 -0.5243  0.1619
14885SOL    HW149502   2.658   8.891   2.111  0.8868  0.7915  0.7486
14885SOL    HW249503   2.557   8.831   2.207 -0.8419  1.8845 -0.3122
14886SOL     OW49504   2.699   7.914   4.620  0.2863 -0.6835 -0.5939
14886SOL    HW149505   2.720   7.998   4.660  0.5260 -0.4576 -1.1700
14886SOL    HW249506   2.625   7.880   4.670  0.8472 -0.6198  0.3016
14887SOL     OW49507   5.012   6.402   3.585  0.0853  0.3208  0.6066
14887SOL    HW149508   4.999   6.482   3.636  0.2324 -0.0484  1.2219
14887SOL    HW249509   5.084   6.357   3.629  0.1782 -0.0276  0.1057
14888SOL     OW49510   4.730   7.527   3.380  0.4434  0.1177  0.1947
14888SOL    HW149511   4.639   7.508   3.404  0.6724 -0.0561  0.9301
14888SOL    HW249512   4.724   7.604   3.323 -0.3526 -1.1524 -1.5329
14889SOL     OW49513   7.304   5.885   4.047 -0.0301 -0.1753 -0.0155
14889SOL    HW149514   7.314   5.971   4.087  1.4612  1.1369 -2.8849
14889SOL    HW249515   7.366   5.829   4.093 -0.2704  0.5356  1.2092
14890SOL     OW49516   6.529   6.840   4.246 -0.0474  0.3783 -0.0200
14890SOL    HW149517   6.547   6.916   4.301 -1.9866  0.0014  1.2190
14890SOL    HW249518   6.595   6.845   4.176  0.0175  3.0718  0.1300
14891SOL     OW49519   2.970   6.400   7.570  0.0886  0.0047  0.5989
14891SOL    HW149520   2.998   6.478   7.618  0.1948  0.1665  0.2807
14891SOL    HW249521   3.051   6.361   7.538 -0.0045  0.1256  0.2082
14892SOL     OW49522   6.220   9.293   3.741 -0.0522  0.5829  0.0639
14892SOL    HW149523   6.152   9.228   3.724  1.7171 -0.9585 -1.5891
14892SOL    HW249524   6.302   9.244   3.734  1.2749  2.5094  1.3158
14893SOL     OW49525   4.947   6.535   2.392 -0.2451  0.3489 -0.2457
14893SOL    HW149526   4.855   6.538   2.368  0.0004  1.9335 -1.1021
14893SOL    HW249527   4.980   6.624   2.376  0.9649  0.3781  1.9277
14894SOL     OW49528   4.712   6.069   3.611 -0.4473 -0.4343 -0.0974
14894SOL    HW149529   4.691   6.162   3.620  0.2434 -0.2966  0.1350
14894SOL    HW249530   4.792   6.067   3.558 -1.0523 -0.9512 -1.0228
14895SOL     OW49531   5.512   7.481   3.618  0.4674  0.2390  0.7580
14895SOL    HW149532   5.436   7.463   3.673 -0.5728  1.8652 -0.0552
14895SOL    HW249533   5.515   7.576   3.612  2.0169  0.1773 -0.0291
14896SOL     OW49534   5.623   4.852   4.130 -0.4261 -0.3362 -0.0969
14896SOL    HW149535   5.713   4.821   4.126 -0.8043 -1.6786  0.8005
14896SOL    HW249536   5.584   4.801   4.202 -1.4150  1.5057  0.7293
14897SOL     OW49537   2.484   3.131   4.946  0.0807  0.2794  0.1053
14897SOL    HW149538   2.498   3.133   4.851 -0.2449 -2.2319 -0.0694
14897SOL    HW249539   2.395   3.097   4.956  0.7483 -1.2323  1.2927
14898SOL     OW49540   3.665   4.557   2.238  0.1698 -0.5416 -0.2109
14898SOL    HW149541   3.606   4.542   2.164  0.0060 -1.7291  0.1417
14898SOL    HW249542   3.632   4.636   2.280 -1.7015 -1.6291  0.4624
14899SOL     OW49543   3.668   7.738   0.792  0.0698  0.1115  0.1341
14899SOL    HW149544   3.603   7.758   0.859  0.7655  0.2541  0.7733
14899SOL    HW249545   3.616   7.716   0.714 -0.7475 -0.1540  0.7395
14900SOL     OW49546   7.718   5.974   1.962  0.4692  0.1867  0.1128
14900SOL    HW149547   7.733   5.899   1.905 -0.8788  0.5333 -0.7558
14900SOL    HW249548   7.713   5.937   2.050 -1.3169 -0.9452 -0.4126
14901SOL     OW49549   5.260   5.269   4.166  0.6956 -0.5938  0.0296
14901SOL    HW149550   5.271   5.349   4.114 -1.2341 -1.2425 -1.4870
14901SOL    HW249551   5.346   5.256   4.207  1.6837  1.1229 -1.3259
14902SOL     OW49552   2.275   9.572   2.573  0.7689  0.2792  0.4372
14902SOL    HW149553   2.287   9.636   2.642 -0.4592  2.4050 -1.1865
14902SOL    HW249554   2.353   9.579   2.518  0.3732  0.8489 -0.0665
14903SOL     OW49555   4.126   5.718   4.116 -0.2495 -0.4567 -0.2061
14903SOL    HW149556   4.214   5.686   4.093 -1.0259 -2.3422 -0.7354
14903SOL    HW249557   4.135   5.814   4.113  2.1250 -0.5467  1.1561
14904SOL     OW49558   2.591   6.780   9.466  0.5825  0.6306  0.1441
14904SOL    HW149559   2.613   6.735   9.385 -0.2870 -1.0076  0.7890
14904SOL    HW249560   2.603   6.873   9.445  0.3939  0.2519 -1.8435
14905SOL     OW49561   4.428   6.014   4.155 -0.1688 -0.1810 -0.1702
14905SOL    HW149562   4.501   5.985   4.211 -0.5730  0.0813  0.5103
14905SOL    HW249563   4.433   5.958   4.078  1.5966  0.7324 -0.7731
14906SOL     OW49564   1.531   4.777   3.031 -0.0600  0.2710  0.3415
14906SOL    HW149565   1.469   4.849   3.024 -0.2469  0.2313  1.4555
14906SOL    HW249566   1.617   4.817   3.016 -0.3079  0.3407 -1.1126
14907SOL     OW49567   4.149   4.735   0.843 -0.5809 -0.2809  0.0175
14907SOL    HW149568   4.055   4.746   0.826 -0.6397 -0.1535  0.4071
14907SOL    HW249569   4.191   4.800   0.787 -0.6612 -0.9469 -0.8387
14908SOL     OW49570   1.519   6.278   4.960  0.1865  0.1884 -0.2134
14908SOL    HW149571   1.521   6.192   5.003 -0.2498  0.9728  1.4894
14908SOL    HW249572   1.475   6.263   4.877  0.3914 -1.2859 -0.0767
14909SOL     OW49573   5.528   4.440   2.559 -0.0956  0.3183  0.5095
14909SOL    HW149574   5.529   4.535   2.549 -0.2681  0.3078  0.4012
14909SOL    HW249575   5.501   4.407   2.473 -0.4632  0.1890  0.6734
14910SOL     OW49576   4.444   5.850   3.942 -0.0657  0.6046 -0.0735
14910SOL    HW149577   4.464   5.860   3.849 -1.4219  1.1868 -0.3202
14910SOL    HW249578   4.420   5.758   3.953  2.3069 -0.0581  0.1802
14911SOL     OW49579   8.236   7.241   3.170 -0.1548  0.0416  0.4121
14911SOL    HW149580   8.319   7.250   3.216  0.2004  1.0375 -0.3866
14911SOL    HW249581   8.196   7.162   3.207  1.6599 -1.1449  0.0017
14912SOL     OW49582   6.126   8.127   1.641  0.5657  0.1623 -0.2141
14912SOL    HW149583   6.139   8.033   1.650  0.7627  0.3143  1.4555
14912SOL    HW249584   6.032   8.137   1.623  0.3589 -0.3248  0.5516
14913SOL     OW49585   6.993   7.043   0.768  0.0639  0.3582 -0.2389
14913SOL    HW149586   6.934   6.972   0.796  0.2528  0.3400  0.1154
14913SOL    HW249587   6.935   7.119   0.758  0.1223  0.6125  1.1323
14914SOL     OW49588   3.388   6.302   1.391  0.5471 -0.1594 -0.4681
14914SOL    HW149589   3.330   6.283   1.465  1.3286 -1.5962 -0.1740
14914SOL    HW249590   3.467   6.338   1.431  0.2620  0.8493 -0.7829
14915SOL     OW49591   6.814   5.740   3.972 -0.5678  0.6421 -0.5740
14915SOL    HW149592   6.819   5.691   4.054 -0.2737 -0.2449 -1.1111
14915SOL    HW249593   6.730   5.784   3.976 -0.1623  1.3676  0.6173
14916SOL     OW49594   6.000   6.294   1.546 -0.2320  0.3976 -0.1784
14916SOL    HW149595   5.922   6.242   1.568  0.4051 -0.1461  0.9009
14916SOL    HW249596   6.005   6.359   1.616  1.3256 -0.7676  0.8505
14917SOL     OW49597   5.512   6.008   1.981 -0.5780 -0.6116  0.0900
14917SOL    HW149598   5.606   5.988   1.983 -0.2595  0.6218 -0.9557
14917SOL    HW249599   5.500   6.055   1.899 -2.3578 -1.8044 -0.3771
14918SOL     OW49600   5.812   8.110   1.331 -0.0963 -0.2621  0.2032
14918SOL    HW149601   5.743   8.145   1.275 -0.8680  3.0525  2.8610
14918SOL    HW249602   5.766   8.077   1.409  1.1414  1.1790  1.6360
14919SOL     OW49603   4.104   5.388   2.868  0.4153  0.0797  0.1660
14919SOL    HW149604   4.124   5.408   2.960  0.4865 -0.6709  0.3229
14919SOL    HW249605   4.102   5.473   2.825  0.7472  0.4152  0.7935
14920SOL     OW49606   5.225   6.301   1.225  0.4966 -0.2860  0.1841
14920SOL    HW149607   5.211   6.243   1.300 -2.4888 -0.5795 -0.4713
14920SOL    HW249608   5.233   6.241   1.151 -0.4351  0.0366 -0.1983
14921SOL     OW49609   7.481   8.785   1.760  1.0544 -0.1727 -0.4825
14921SOL    HW149610   7.530   8.767   1.680 -1.8067 -0.0105 -2.4443
14921SOL    HW249611   7.450   8.875   1.749 -1.6330 -1.0191 -0.5886
14922SOL     OW49612   4.200   8.237   3.340 -0.3044 -0.4511 -0.2841
14922SOL    HW149613   4.271   8.183   3.376  0.8236 -0.2641 -2.1154
14922SOL    HW249614   4.122   8.182   3.350  0.4460 -1.5307 -0.1464
14923SOL     OW49615   4.124   6.864   1.826 -0.1723 -0.0761  0.0045
14923SOL    HW149616   4.134   6.868   1.921 -2.4595  1.8945  0.2773
14923SOL    HW249617   4.031   6.843   1.812  0.2051 -0.7670 -1.8059
14924SOL     OW49618   7.335   3.854   3.875  0.0330  0.0651  0.5826
14924SOL    HW149619   7.357   3.761   3.878  0.5092  0.0537 -1.5804
14924SOL    HW249620   7.409   3.895   3.830 -0.5863  1.3350  0.6774
14925SOL     OW49621   5.131   4.356   1.938  0.5131  0.1598 -0.2261
14925SOL    HW149622   5.063   4.344   1.873 -0.6145  1.2022  0.7184
14925SOL    HW249623   5.208   4.313   1.901  0.0624  1.1751 -2.4687
14926SOL     OW49624   1.733   7.976   1.396 -0.6071 -0.4689 -0.1154
14926SOL    HW149625   1.670   8.045   1.420  0.0307  0.4423 -1.0040
14926SOL    HW249626   1.811   8.024   1.368  1.5166 -1.5240  3.3818
14927SOL     OW49627   3.380   7.036   1.771  0.4498  0.3963  0.2463
14927SOL    HW149628   3.450   7.079   1.723  1.1826  0.4238  1.2996
14927SOL    HW249629   3.406   6.944   1.774  0.4662  0.4136  0.6728
14928SOL     OW49630   5.311   5.659   0.656 -0.3057 -0.0138  0.5022
14928SOL    HW149631   5.325   5.733   0.598  2.6833 -1.3481 -0.6952
14928SOL    HW249632   5.365   5.677   0.733 -1.2911  0.0202  1.2064
14929SOL     OW49633   4.696   7.127   9.725  0.4957  0.1388 -0.0281
14929SOL    HW149634   4.661   7.066   9.790 -0.7713 -0.3289 -1.1158
14929SOL    HW249635   4.641   7.205   9.733  2.1853  1.2774  1.4473
14930SOL     OW49636   5.709   6.745   3.621  0.3062 -0.1086 -0.3581
14930SOL    HW149637   5.696   6.694   3.702  2.3918 -1.1633 -0.6283
14930SOL    HW249638   5.697   6.836   3.648  1.2761 -0.4160  1.2549
14931SOL     OW49639   5.181   5.893   3.894  0.0864 -0.2471 -0.6824
14931SOL    HW149640   5.125   5.947   3.838  0.2720  1.7454  0.9179
14931SOL    HW249641   5.269   5.906   3.858  0.3564  1.8450  0.5326
14932SOL     OW49642   5.213   6.265   0.463  0.0750  0.1800 -0.0482
14932SOL    HW149643   5.224   6.227   0.550  0.2195 -0.2859 -0.2660
14932SOL    HW249644   5.181   6.192   0.409  0.6267  0.2905 -0.5360
14933SOL     OW49645   5.952   7.985   3.694  0.6856 -0.1899  0.2108
14933SOL    HW149646   6.004   8.052   3.738  0.9273 -0.2398 -0.0006
14933SOL    HW249647   5.958   7.909   3.750  1.3463 -0.3860 -0.1235
14934SOL     OW49648   4.151   2.813   9.162 -0.4895 -0.4363 -0.2822
14934SOL    HW149649   4.122   2.903   9.144 -1.9137 -0.9275 -0.5203
14934SOL    HW249650   4.183   2.781   9.077  0.7847  0.0942 -0.0260
14935SOL     OW49651   4.833   3.309   4.634  0.0762 -0.1039 -0.5395
14935SOL    HW149652   4.750   3.271   4.604  0.3481 -1.0354 -0.1464
14935SOL    HW249653   4.813   3.402   4.647 -0.8655 -0.2853 -0.5831
14936SOL     OW49654   4.748   4.789   1.890 -0.5333  0.3808 -0.6687
14936SOL    HW149655   4.686   4.732   1.844 -0.7000  0.1588 -0.1681
14936SOL    HW249656   4.699   4.823   1.965  0.2295 -0.5194  0.2471
14937SOL     OW49657   4.810   8.219   0.870  0.1541  0.0431 -0.2095
14937SOL    HW149658   4.855   8.206   0.954  0.6216  2.3006 -0.0450
14937SOL    HW249659   4.842   8.148   0.815  1.2585 -0.4178  0.9729
14938SOL     OW49660   3.831   8.606   5.620  0.2187  0.1443 -0.0525
14938SOL    HW149661   3.917   8.609   5.662  0.2063  2.4742 -0.0891
14938SOL    HW249662   3.830   8.681   5.561 -2.7178  1.7737  1.8010
14939SOL     OW49663   2.953   4.465   4.249  0.1286 -0.6058 -0.1863
14939SOL    HW149664   2.889   4.396   4.231  1.9600 -2.0467 -1.6200
14939SOL    HW249665   3.035   4.417   4.266  1.2525  1.2063 -0.3026
14940SOL     OW49666   3.335   4.735   1.979  0.0742 -0.0545  0.4505
14940SOL    HW149667   3.372   4.751   2.066  0.3109 -1.1173  0.5679
14940SOL    HW249668   3.240   4.730   1.994  0.1261 -0.3909  0.6781
14941SOL     OW49669   3.369   6.149   3.859  0.7648  0.4822 -0.0215
14941SOL    HW149670   3.302   6.157   3.927 -0.5262  0.8953 -1.2961
14941SOL    HW249671   3.393   6.239   3.837  1.8629  0.3399  0.5064
14942SOL     OW49672   4.296   5.362   3.399  0.2886 -0.1453  0.1242
14942SOL    HW149673   4.234   5.307   3.445  0.5481  0.0150  0.6710
14942SOL    HW249674   4.366   5.303   3.373  0.3518 -0.1552  0.3178
14943SOL     OW49675   3.999   6.273   4.645 -0.2425 -0.0201  0.5385
14943SOL    HW149676   3.999   6.342   4.711 -1.4831  1.8923 -1.3109
14943SOL    HW249677   3.918   6.287   4.596  0.5044 -1.4828 -1.2281
14944SOL     OW49678   4.946   5.582   3.522  0.2543 -0.2440  0.1093
14944SOL    HW149679   4.973   5.660   3.571  0.2492  0.0179 -0.3012
14944SOL    HW249680   4.914   5.616   3.439  0.2518 -0.6888 -0.0726
14945SOL     OW49681   7.142   5.722   4.573 -0.2228  0.0609 -0.3412
14945SOL    HW149682   7.119   5.633   4.546  1.2948 -0.3519 -0.3399
14945SOL    HW249683   7.062   5.773   4.559 -0.9825 -1.2080 -0.7419
14946SOL     OW49684   2.447   8.000   2.632  0.1208  0.0361  0.1830
14946SOL    HW149685   2.522   8.055   2.614  1.4261 -1.9845 -0.9138
14946SOL    HW249686   2.484   7.915   2.657 -1.6385 -1.9995 -3.3291
14947SOL     OW49687   5.372   6.980   6.285  0.0509  0.8325  0.1354
14947SOL    HW149688   5.448   6.922   6.291 -0.6556 -0.1119  0.2887
14947SOL    HW249689   5.386   7.030   6.205  2.0468  2.4924  1.4257
14948SOL     OW49690   3.158   6.791   1.904  0.0229  0.1214  0.0271
14948SOL    HW149691   3.197   6.871   1.940  1.3906  0.1486 -1.4229
14948SOL    HW249692   3.098   6.822   1.836  0.7861 -0.0628 -0.7501
14949SOL     OW49693   2.618   6.104   6.104 -0.2681 -0.0879 -0.3549
14949SOL    HW149694   2.661   6.052   6.171 -3.4046 -3.0914 -0.4157
14949SOL    HW249695   2.570   6.171   6.152 -1.8110 -1.6975  0.4490
14950SOL     OW49696   2.834   6.576   3.736 -0.3143 -0.0973  0.5522
14950SOL    HW149697   2.761   6.585   3.797  0.2394 -1.2126  1.4183
14950SOL    HW249698   2.833   6.484   3.710  2.3602 -0.8657  2.7009
14951SOL     OW49699   6.274   8.609   5.026  0.3131  0.0803 -0.6136
14951SOL    HW149700   6.227   8.684   4.991 -0.1615  0.8669  1.5326
14951SOL    HW249701   6.322   8.573   4.952 -0.1194  1.9828 -1.8727
14952SOL     OW49702   3.564   4.163   2.670  0.1404  0.2932  0.2411
14952SOL    HW149703   3.573   4.248   2.713 -0.6882 -0.0781  1.1899
14952SOL    HW249704   3.539   4.103   2.740 -0.5684 -0.4729 -0.6355
14953SOL     OW49705   4.714   8.170   4.273 -0.6166 -0.3530  0.0849
14953SOL    HW149706   4.794   8.204   4.314 -0.4134 -0.4987 -0.1799
14953SOL    HW249707   4.701   8.227   4.197 -1.5098  0.4976  0.8484
14954SOL     OW49708   2.412   8.228   2.975  0.8085  0.0150  0.3765
14954SOL    HW149709   2.357   8.299   3.007  0.0421 -1.5165  2.6678
14954SOL    HW249710   2.389   8.220   2.882 -2.1239  0.1036  1.0011
14955SOL     OW49711   4.266   6.966   2.354 -0.2987 -0.8419  0.8325
14955SOL    HW149712   4.337   7.031   2.352 -0.6259 -0.4601 -1.1260
14955SOL    HW249713   4.291   6.905   2.423  1.2606  0.0258  1.0850
14956SOL     OW49714   2.702   5.223   2.736 -0.5890 -1.2789 -0.6338
14956SOL    HW149715   2.643   5.262   2.800  0.8053  2.0286 -1.1626
14956SOL    HW249716   2.785   5.211   2.782  0.2319  0.5018 -1.5590
14957SOL     OW49717   6.075   8.406   5.736  0.3057 -0.6661  0.4899
14957SOL    HW149718   6.142   8.474   5.733  0.0926 -0.4783 -0.2929
14957SOL    HW249719   6.110   8.340   5.794  1.1487 -0.5434  0.1282
14958SOL     OW49720   4.628   7.026   2.789  0.3238  0.2241 -0.3189
14958SOL    HW149721   4.604   6.975   2.711 -0.6936 -1.0275  0.7621
14958SOL    HW249722   4.673   6.963   2.846 -0.1962  0.7338  0.6873
14959SOL     OW49723   3.282   6.914   0.370  0.2367  0.1927 -0.8863
14959SOL    HW149724   3.354   6.960   0.414  0.5689  0.0409 -1.2638
14959SOL    HW249725   3.301   6.821   0.384  0.3141  0.1449 -1.3011
14960SOL     OW49726   5.623   7.017   3.694  0.1203 -0.3051 -0.1043
14960SOL    HW149727   5.670   7.056   3.621  1.3243 -2.2819 -0.4655
14960SOL    HW249728   5.650   7.068   3.771  1.3004 -0.1557 -0.6059
14961SOL     OW49729   4.716   8.165   5.604 -0.0144  0.5183 -0.5014
14961SOL    HW149730   4.794   8.171   5.659  0.2300 -2.2563 -0.4271
14961SOL    HW249731   4.750   8.159   5.514 -0.1282 -0.2575 -0.5032
14962SOL     OW49732   7.639   4.332   2.627 -0.7380 -0.0806 -0.2160
14962SOL    HW149733   7.668   4.265   2.565 -1.9036  0.0173 -0.8934
14962SOL    HW249734   7.678   4.413   2.594 -1.2697 -0.0459 -0.7920
14963SOL     OW49735   4.691   4.025   0.932  0.0513  0.0267 -0.2477
14963SOL    HW149736   4.781   4.057   0.936 -0.5657  1.8595 -0.2265
14963SOL    HW249737   4.684   3.964   1.006  1.8176 -1.7616 -1.4509
14964SOL     OW49738   3.712   7.269   6.181 -0.4927  0.5180  0.0819
14964SOL    HW149739   3.730   7.200   6.245 -0.7047  1.5068  1.2545
14964SOL    HW249740   3.722   7.226   6.096 -0.9281 -1.0306  0.7671
14965SOL     OW49741   1.745   7.784   5.770  0.0842  0.4515 -0.0692
14965SOL    HW149742   1.661   7.742   5.750  0.4640 -0.1477 -0.4182
14965SOL    HW249743   1.775   7.819   5.686  0.3505  0.3683 -0.0089
14966SOL     OW49744   5.574   6.353   8.486 -0.3221  0.2996  0.1350
14966SOL    HW149745   5.516   6.424   8.513  0.0833  0.5459  0.3731
14966SOL    HW249746   5.652   6.397   8.451  0.8960  0.0278  2.2999
14967SOL     OW49747   5.504   4.114   4.503  0.5462 -0.2238 -0.3876
14967SOL    HW149748   5.445   4.097   4.429 -0.3974 -2.4600  0.7746
14967SOL    HW249749   5.516   4.029   4.544 -0.8377  1.1779  3.3886
14968SOL     OW49750   3.164   7.854   6.091 -0.3792 -0.9123 -0.1734
14968SOL    HW149751   3.239   7.827   6.145  1.4643  0.5040 -1.8444
14968SOL    HW249752   3.108   7.903   6.151  0.5527 -1.1427  0.9288
14969SOL     OW49753   3.470   3.724   2.140  0.1460  0.5692  0.5518
14969SOL    HW149754   3.460   3.782   2.216  2.0655  1.0391  0.5143
14969SOL    HW249755   3.424   3.769   2.069 -3.1752 -0.7006  1.7369
14970SOL     OW49756   5.006   8.961   5.909  0.3183  0.0790  0.0602
14970SOL    HW149757   4.926   8.914   5.887  1.2075 -0.3594 -2.6177
14970SOL    HW249758   5.075   8.916   5.860  2.1509  0.7638  1.8565
14971SOL     OW49759   6.342   9.061   5.728  0.4589  0.2342 -0.0985
14971SOL    HW149760   6.420   9.006   5.722  0.2890 -0.2773  1.8408
14971SOL    HW249761   6.346   9.116   5.650  3.2270  0.8304  0.3432
14972SOL     OW49762   7.251   7.237   4.145  0.2213 -0.2178 -0.3249
14972SOL    HW149763   7.192   7.313   4.153  0.9667  0.4235 -0.7138
14972SOL    HW249764   7.328   7.262   4.196  0.0248 -1.1902  0.4560
14973SOL     OW49765   5.711   5.444   2.166  0.0950 -0.4818  0.2306
14973SOL    HW149766   5.690   5.515   2.227  2.9947 -0.4143  1.3118
14973SOL    HW249767   5.792   5.406   2.201  0.8646 -1.6721 -2.5804
14974SOL     OW49768   7.275   6.006   3.084 -0.5133  0.1711 -0.4577
14974SOL    HW149769   7.268   5.948   3.159 -0.5577 -0.2887 -0.8100
14974SOL    HW249770   7.352   6.060   3.102 -1.1938  0.8660  0.4528
14975SOL     OW49771   6.776   3.215   4.055 -1.0002 -0.2459  0.2902
14975SOL    HW149772   6.793   3.274   4.128 -1.7142  0.2846  0.0402
14975SOL    HW249773   6.837   3.142   4.068  1.6332  1.6120 -0.6624
14976SOL     OW49774   5.831   7.616   6.550 -0.8786  0.1886  0.0774
14976SOL    HW149775   5.800   7.706   6.543 -2.7296 -0.3346  0.8757
14976SOL    HW249776   5.755   7.566   6.578  0.2293 -1.5580  0.1805
14977SOL     OW49777   2.528   4.807   4.740  0.1513  0.3247 -0.5110
14977SOL    HW149778   2.453   4.747   4.738  1.4808 -1.4034 -1.0660
14977SOL    HW249779   2.590   4.770   4.677  1.3378  1.9014 -0.3291
14978SOL     OW49780   3.778   8.354   4.274 -0.1985 -0.0468 -0.6556
14978SOL    HW149781   3.790   8.377   4.366  0.9787 -0.6820 -0.6272
14978SOL    HW249782   3.685   8.367   4.258 -0.4801 -0.2251  0.7056
14979SOL     OW49783   5.552   7.941   5.967  0.0135  0.5982  0.2115
14979SOL    HW149784   5.608   7.966   5.894 -1.0239 -0.1307 -0.8830
14979SOL    HW249785   5.525   7.851   5.948 -1.2942  0.8214  0.8279
14980SOL     OW49786   8.133   4.688   5.865  0.1686 -0.0243 -0.2983
14980SOL    HW149787   8.099   4.671   5.953 -1.6579 -1.0251 -1.1480
14980SOL    HW249788   8.228   4.693   5.877  0.0210 -0.8927  1.6125
14981SOL     OW49789   7.903   6.550   2.231  0.8284  0.2197  0.5098
14981SOL    HW149790   7.912   6.524   2.322  1.6682  2.4584  1.1297
14981SOL    HW249791   7.950   6.634   2.225 -2.9784  2.5012 -0.9059
14982SOL     OW49792   2.942   7.019   5.416 -0.5156 -0.6110 -0.3472
14982SOL    HW149793   2.911   7.013   5.506 -1.0726 -1.3709 -0.5765
14982SOL    HW249794   2.864   7.006   5.362 -0.4561  1.3147 -0.9715
14983SOL     OW49795   6.265   4.619   4.569 -0.1787  0.2822  0.0886
14983SOL    HW149796   6.236   4.529   4.555  1.6994 -0.6480  1.7708
14983SOL    HW249797   6.360   4.613   4.573 -0.0185  2.3437  0.3442
14984SOL     OW49798   7.488   4.744   4.994 -0.4945 -0.3510  0.2860
14984SOL    HW149799   7.538   4.665   4.974  0.8435  0.6523 -0.5597
14984SOL    HW249800   7.530   4.781   5.072  0.3729  0.6798 -0.6288
14985SOL     OW49801   6.723   7.942   1.725 -0.3068  0.2731  0.4920
14985SOL    HW149802   6.684   7.938   1.637  2.0326  0.3623 -0.6313
14985SOL    HW249803   6.698   8.029   1.758 -1.3368  0.1802  0.0003
14986SOL     OW49804   9.615   7.184   6.203  0.0647  0.4733  1.2075
14986SOL    HW149805   9.559   7.112   6.172  1.0435 -0.1116  0.7345
14986SOL    HW249806   9.673   7.142   6.267 -0.8107  1.3244  2.6264
14987SOL     OW49807   6.800   6.999   4.271  0.0616  0.4937 -0.7961
14987SOL    HW149808   6.835   7.069   4.326  1.4887  1.3580 -2.6507
14987SOL    HW249809   6.876   6.944   4.252 -0.5424 -0.1879 -1.2688
14988SOL     OW49810   4.196   6.899   3.461 -0.5781  0.5201 -0.0541
14988SOL    HW149811   4.225   6.836   3.395 -0.8299 -0.1454  0.4565
14988SOL    HW249812   4.276   6.946   3.486 -0.1853 -0.3229  0.3187
14989SOL     OW49813   5.463   6.914   3.079 -0.0444  0.1056  0.8965
14989SOL    HW149814   5.484   7.005   3.097  0.6109 -0.3878  2.8274
14989SOL    HW249815   5.422   6.915   2.992 -0.0896  2.2204  0.9108
14990SOL     OW49816   4.120   7.287   6.717 -0.3715  0.0088  0.2924
14990SOL    HW149817   4.113   7.382   6.727  0.7046 -0.0747  2.3293
14990SOL    HW249818   4.211   7.266   6.738 -0.3618 -1.4136 -0.9434
14991SOL     OW49819   4.608   7.293   2.723 -0.0722 -0.1300 -0.3187
14991SOL    HW149820   4.614   7.211   2.772  0.9450  0.0037 -0.1918
14991SOL    HW249821   4.538   7.279   2.660 -0.6549 -0.7012  0.4416
14992SOL     OW49822   6.890   6.079   5.552 -0.0355  0.1275  0.1356
14992SOL    HW149823   6.972   6.037   5.525 -0.2341 -1.1496  1.4012
14992SOL    HW249824   6.843   6.096   5.470  2.0105  2.1167 -0.7520
14993SOL     OW49825   3.531   8.445   4.228  0.0932  0.0553 -0.3352
14993SOL    HW149826   3.488   8.513   4.176  0.5009  0.6113  0.0420
14993SOL    HW249827   3.470   8.371   4.226 -1.6013  1.3296  1.4322
14994SOL     OW49828   5.112   6.257   1.965  0.7595  0.3670 -0.0186
14994SOL    HW149829   5.052   6.267   2.038  1.1218  2.4419  0.0804
14994SOL    HW249830   5.194   6.298   1.996  1.3027  0.1702 -1.1328
14995SOL     OW49831   5.373   2.390   4.346  0.4544 -0.2197  0.0405
14995SOL    HW149832   5.379   2.486   4.341  1.3527 -0.1813  1.2739
14995SOL    HW249833   5.461   2.363   4.372  0.6287 -1.5191 -1.7087
14996SOL     OW49834   4.980   5.962   1.953 -0.1078 -0.3788 -0.3198
14996SOL    HW149835   4.989   5.988   2.045 -0.3729 -0.3930 -0.2882
14996SOL    HW249836   4.996   6.042   1.904  2.2182 -0.8130 -0.3686
14997SOL     OW49837   3.358   6.361   5.271  0.3899 -0.2127  0.2489
14997SOL    HW149838   3.366   6.401   5.185  1.1910 -2.0238 -0.5639
14997SOL    HW249839   3.291   6.413   5.316  1.0390  1.6851 -0.8978
14998SOL     OW49840   6.354   5.907   3.092 -0.0951  0.0265 -0.3405
14998SOL    HW149841   6.394   5.863   3.166 -0.5463  0.7873  0.3744
14998SOL    HW249842   6.266   5.930   3.121 -0.5866 -0.3987 -1.4091
14999SOL     OW49843   2.280   6.163   3.142  0.1326 -0.2985  0.6210
14999SOL    HW149844   2.218   6.108   3.094  0.5839 -0.9736  0.8074
14999SOL    HW249845   2.333   6.102   3.193  0.8188  0.2815  0.6247
15000SOL     OW49846   5.576   6.355   4.187 -0.4783  0.3975 -0.2031
15000SOL    HW149847   5.609   6.265   4.188 -3.2330 -0.6877  0.5208
15000SOL    HW249848   5.519   6.361   4.264  0.0355  2.9592  0.0661
15001SOL     OW49849   5.245   4.270   0.547  0.3782 -0.1378 -0.2170
15001SOL    HW149850   5.297   4.236   0.475 -1.9835  1.8427 -3.0730
15001SOL    HW249851   5.267   4.363   0.551 -0.7510  0.1157  0.5048
15002SOL     OW49852   6.803   8.138   4.890  0.2922  0.0995 -0.3937
15002SOL    HW149853   6.750   8.175   4.961  1.7234  2.0493 -0.2842
15002SOL    HW249854   6.753   8.155   4.810  0.4937  1.4447 -0.2404
15003SOL     OW49855   5.499   7.199   5.222 -0.7892  0.0342  0.2365
15003SOL    HW149856   5.518   7.220   5.130  3.6876 -0.6299  0.7604
15003SOL    HW249857   5.450   7.275   5.254 -0.2074  1.4955 -2.0928
15004SOL     OW49858   7.343   4.242   3.487 -0.2781 -0.4532 -0.4791
15004SOL    HW149859   7.333   4.237   3.582 -0.8165 -1.8547 -0.5805
15004SOL    HW249860   7.435   4.263   3.474 -0.2135 -0.1586  0.3485
15005SOL     OW49861   5.578   8.318   5.397 -0.4977  0.3060 -0.2223
15005SOL    HW149862   5.573   8.387   5.463 -0.8519 -1.6995  2.0219
15005SOL    HW249863   5.487   8.300   5.374 -0.6763 -1.3905  1.5416
15006SOL     OW49864   6.367   6.017   4.455  0.3113  0.1457 -0.0482
15006SOL    HW149865   6.313   6.004   4.377  1.4423 -1.3191 -0.6358
15006SOL    HW249866   6.334   6.097   4.495 -1.0800  0.2601 -1.3756
15007SOL     OW49867   6.953   5.614   5.054  0.0614 -0.2276 -0.0501
15007SOL    HW149868   6.995   5.543   5.005  0.0714  0.9438 -1.7954
15007SOL    HW249869   7.026   5.659   5.097  0.1839 -0.5198  0.0509
15008SOL     OW49870   3.932   2.868   0.502  0.0745  0.4444  0.4550
15008SOL    HW149871   3.885   2.786   0.517  0.4033  0.3722  1.1485
15008SOL    HW249872   4.023   2.841   0.486 -0.3855  0.4297 -2.8298
15009SOL     OW49873   2.879   3.301   3.984 -0.0825 -0.4903 -0.4814
15009SOL    HW149874   2.842   3.260   4.062  1.7310 -2.0089 -0.3691
15009SOL    HW249875   2.953   3.246   3.960  1.2763  1.6321 -1.5126
15010SOL     OW49876   5.156   8.140   4.941  0.6759  0.6765  1.0710
15010SOL    HW149877   5.110   8.198   4.880 -0.4739 -0.4800  0.8012
15010SOL    HW249878   5.104   8.144   5.021 -0.0744 -0.8240  0.6906
15011SOL     OW49879   4.627   5.200   2.654  0.5920  0.4716 -0.0300
15011SOL    HW149880   4.588   5.138   2.593  0.7034 -0.3544  0.7195
15011SOL    HW249881   4.556   5.225   2.713  0.9222 -0.1871  0.6570
15012SOL     OW49882   6.749   1.828   4.805 -0.1405  0.2676  0.0273
15012SOL    HW149883   6.768   1.784   4.722 -2.3190 -1.2272  0.2325
15012SOL    HW249884   6.731   1.757   4.866 -1.9997  1.3890  0.8689
15013SOL     OW49885   7.831   8.110   7.420  0.3129  0.4773 -0.1876
15013SOL    HW149886   7.893   8.091   7.350  1.0693 -0.4046  0.6793
15013SOL    HW249887   7.781   8.029   7.430  0.7090  0.3287  0.7459
15014SOL     OW49888   3.690   5.357   4.451 -0.4960  0.2898 -0.6065
15014SOL    HW149889   3.783   5.341   4.436 -0.4167 -1.4826  1.3068
15014SOL    HW249890   3.650   5.270   4.452 -1.6373  0.7548  1.5830
15015SOL     OW49891   2.605   6.185   3.966 -0.5031 -0.3069  0.3763
15015SOL    HW149892   2.656   6.103   3.960 -0.5783 -0.5177  2.2445
15015SOL    HW249893   2.667   6.249   3.998 -0.0963  0.7764 -2.2757
15016SOL     OW49894   3.536   5.165   4.825  0.4510  0.1485 -0.0571
15016SOL    HW149895   3.460   5.107   4.820  1.0017 -0.9576  2.5217
15016SOL    HW249896   3.603   5.121   4.773 -0.0389  0.0600 -0.6215
15017SOL     OW49897   6.121   4.022   7.099 -0.4016  0.5806 -0.5290
15017SOL    HW149898   6.035   3.986   7.077  0.4110 -2.1893  0.3680
15017SOL    HW249899   6.116   4.043   7.192 -0.3300  1.1238 -0.6465
15018SOL     OW49900   4.514   5.320   8.785 -0.0447 -0.0764  0.2083
15018SOL    HW149901   4.506   5.397   8.729 -1.1649  1.8524  2.8412
15018SOL    HW249902   4.609   5.309   8.797  0.1620  2.9727  2.3321
15019SOL     OW49903   4.101   7.118   4.946 -0.4609 -0.6113  0.4446
15019SOL    HW149904   4.074   7.101   5.036 -0.2594 -4.4441 -0.0732
15019SOL    HW249905   4.190   7.084   4.940 -0.5681 -0.6798 -1.2621
15020SOL     OW49906   3.832   2.771   1.522  0.1372 -0.0896  0.1985
15020SOL    HW149907   3.810   2.687   1.561  0.7237 -0.6666 -0.6755
15020SOL    HW249908   3.890   2.813   1.585 -0.5625 -0.1106  0.8707
15021SOL     OW49909   3.826   3.715   8.816  0.5668  0.3123  0.1078
15021SOL    HW149910   3.921   3.722   8.806  1.0910 -1.8792  2.4816
15021SOL    HW249911   3.798   3.798   8.853  1.5670  0.9220 -0.4861
15022SOL     OW49912   5.422   6.191   3.981 -0.0387 -0.1622 -0.5289
15022SOL    HW149913   5.461   6.277   3.962  1.9499 -0.9913 -0.4315
15022SOL    HW249914   5.392   6.198   4.071  2.0307 -0.1666  0.2193
15023SOL     OW49915   5.840   7.302   5.254  0.2672 -0.3178  0.1612
15023SOL    HW149916   5.936   7.306   5.248  0.2091  0.2608 -0.5999
15023SOL    HW249917   5.811   7.388   5.224 -0.5071 -0.5720  0.1560
15024SOL     OW49918   6.640   7.489   3.772 -0.3585  0.3451  0.4648
15024SOL    HW149919   6.720   7.446   3.802  0.7255  2.1954  0.3481
15024SOL    HW249920   6.586   7.498   3.851  0.3719  0.7693  0.9234
15025SOL     OW49921   2.325   7.008   5.594  0.1537 -0.1449  0.1504
15025SOL    HW149922   2.290   7.031   5.509 -1.5998  0.6934  1.0497
15025SOL    HW249923   2.325   6.912   5.596  0.0549 -0.1672 -0.7114
15026SOL     OW49924   2.500   7.993   6.387 -0.3623  0.5878 -0.2163
15026SOL    HW149925   2.558   8.054   6.433 -0.7264  0.5687  0.2700
15026SOL    HW249926   2.412   8.024   6.408 -0.5372  0.8895 -1.3089
15027SOL     OW49927   7.246   3.913   3.143  0.0130  0.6304  0.2004
15027SOL    HW149928   7.311   3.845   3.122 -1.9560 -1.8222  1.4632
15027SOL    HW249929   7.185   3.912   3.070 -1.0765 -0.4108  1.0807
15028SOL     OW49930   4.199   4.308   4.530  0.5070 -0.1853 -0.0198
15028SOL    HW149931   4.189   4.403   4.521 -0.2843 -0.3304 -0.8214
15028SOL    HW249932   4.149   4.286   4.609  0.8806  0.0843  0.2980
15029SOL     OW49933   6.630   7.378   7.338 -0.5029  0.1852  0.1614
15029SOL    HW149934   6.599   7.452   7.286 -1.3988 -1.1279 -1.2647
15029SOL    HW249935   6.550   7.338   7.372 -0.0548 -0.3299  0.6250
15030SOL     OW49936   5.078   6.451   3.321  0.2775  0.1129 -0.0233
15030SOL    HW149937   4.985   6.461   3.300  0.2995 -0.0293 -0.1987
15030SOL    HW249938   5.080   6.440   3.416  0.0549 -0.4738 -0.0767
15031SOL     OW49939   6.203   0.152   4.913 -0.0638  0.2116 -0.4567
15031SOL    HW149940   6.295   0.126   4.906 -0.5867 -2.0294  0.1006
15031SOL    HW249941   6.155   0.084   4.865 -1.4534  1.3727 -0.8073
15032SOL     OW49942   6.679   7.178   4.092 -0.4405 -0.0069 -1.2939
15032SOL    HW149943   6.747   7.117   4.119 -0.5500 -0.6558 -2.3882
15032SOL    HW249944   6.642   7.212   4.173  2.1538  1.5007 -0.6417
15033SOL     OW49945   6.211   2.475   3.416  0.1621 -0.4947 -0.1268
15033SOL    HW149946   6.233   2.566   3.436 -0.0792 -0.4502 -0.0531
15033SOL    HW249947   6.274   2.423   3.464  0.4000 -0.3618 -0.2948
15034SOL     OW49948   5.565   6.855   4.881  0.2744  0.4911  0.1807
15034SOL    HW149949   5.540   6.893   4.797  0.1504 -1.2201 -0.5873
15034SOL    HW249950   5.501   6.890   4.943 -0.7628  0.3406 -0.7769
15035SOL     OW49951   0.684   6.612   7.130 -0.0821 -0.2772 -0.5104
15035SOL    HW149952   0.661   6.705   7.126 -2.2888 -0.6494  1.4143
15035SOL    HW249953   0.652   6.583   7.215  3.9478 -1.9967  0.6472
15036SOL     OW49954   2.868   6.306   3.766  0.2415 -0.0512  0.2383
15036SOL    HW149955   2.854   6.220   3.805 -0.4763 -0.1882 -0.3064
15036SOL    HW249956   2.961   6.305   3.740  0.0154 -1.0052 -0.5718
15037SOL     OW49957   4.939   4.281   4.119  0.1470  0.1532  0.3054
15037SOL    HW149958   4.855   4.249   4.153 -0.0409 -1.2645 -1.3462
15037SOL    HW249959   4.922   4.372   4.095 -0.8067  0.0065  0.3680
15038SOL     OW49960   6.240   7.125   3.662  0.3160  0.1330  0.2743
15038SOL    HW149961   6.214   7.121   3.570  0.6789  0.5409  0.1533
15038SOL    HW249962   6.257   7.034   3.686 -1.3769 -0.1780  0.4025
15039SOL     OW49963   5.399   7.634   2.781  0.0187 -0.3316 -0.2074
15039SOL    HW149964   5.350   7.713   2.802  2.5136  0.9782  1.0794
15039SOL    HW249965   5.358   7.601   2.701 -1.1942  2.1612 -0.7113
15040SOL     OW49966   2.068   5.945   2.807 -0.3581  0.2547  0.3345
15040SOL    HW149967   2.100   5.890   2.735  1.6427  2.5966 -0.6772
15040SOL    HW249968   1.985   5.980   2.775 -0.6383 -0.5264  0.1668
15041SOL     OW49969   5.685   1.378   4.769  0.2164 -0.2705 -0.1903
15041SOL    HW149970   5.632   1.327   4.708  0.9710 -0.5138 -0.6525
15041SOL    HW249971   5.731   1.312   4.821  1.0787 -0.0814 -0.6904
15042SOL     OW49972   3.481   5.852   3.333 -0.1888  0.6136 -0.4191
15042SOL    HW149973   3.453   5.767   3.367  0.3675  0.6763  0.2128
15042SOL    HW249974   3.437   5.859   3.248  0.7672 -0.8803 -1.0864
15043SOL     OW49975   6.000   7.025   8.212  0.3908  0.4668 -0.1560
15043SOL    HW149976   6.061   6.965   8.170  1.8183  1.4399  0.4128
15043SOL    HW249977   5.956   7.070   8.140  0.3760 -0.2075 -0.5773
15044SOL     OW49978   7.685   5.137   3.572  0.1020 -0.2769 -0.1046
15044SOL    HW149979   7.748   5.161   3.640  2.8268 -1.0948 -2.1380
15044SOL    HW249980   7.730   5.157   3.490 -1.8160 -2.0860 -1.7231
15045SOL     OW49981   2.720   5.415   5.295 -0.4607 -0.6932 -0.2476
15045SOL    HW149982   2.714   5.488   5.233 -2.4009 -0.7409 -0.1848
15045SOL    HW249983   2.784   5.443   5.360  0.0922  0.2169 -1.1475
15046SOL     OW49984   3.057   6.434   1.625 -0.4776 -0.2764  0.8677
15046SOL    HW149985   2.982   6.481   1.661 -0.1611  1.8020 -0.9578
15046SOL    HW249986   3.023   6.347   1.605 -2.5617  0.7068 -0.2628
15047SOL     OW49987   6.523   6.773   5.736 -0.0179  0.0862 -0.7380
15047SOL    HW149988   6.492   6.854   5.695 -0.2775 -0.0329 -0.7760
15047SOL    HW249989   6.535   6.712   5.664  1.7227  0.5657 -0.9133
15048SOL     OW49990   5.241   1.904   5.589 -0.0203 -0.0038  0.3385
15048SOL    HW149991   5.175   1.962   5.628  0.6393  0.3036  1.0283
15048SOL    HW249992   5.193   1.824   5.568 -0.2996 -0.4718  2.4916
15049SOL     OW49993   4.153   2.434   4.424  0.2447  0.5613  0.5281
15049SOL    HW149994   4.090   2.389   4.368  2.5524 -1.9868 -0.2514
15049SOL    HW249995   4.236   2.426   4.377  1.7465  0.9467  2.9504
15050SOL     OW49996   2.855   6.329   3.504  0.0800  0.2548  0.1179
15050SOL    HW149997   2.869   6.244   3.461 -0.3176 -0.2490  0.9779
15050SOL    HW249998   2.808   6.309   3.584  1.0526  1.1606  0.9524
15051SOL     OW49999   5.823   5.171   2.255 -0.1875  0.1758  0.4232
15051SOL    HW150000   5.831   5.154   2.161  0.0984  2.4812 -0.0412
15051SOL    HW250001   5.913   5.181   2.286 -0.3055  3.0380  0.1038
15052SOL     OW50002   5.754   5.527   0.986 -0.2586  0.2075 -0.7651
15052SOL    HW150003   5.756   5.460   1.055  0.7492  2.4447  1.5617
15052SOL    HW250004   5.838   5.572   0.994 -0.3656  0.9591 -3.1135
15053SOL     OW50005   5.860   6.899   1.702  0.1096  0.0932 -0.3802
15053SOL    HW150006   5.928   6.856   1.650  0.0856 -0.0388 -0.3011
15053SOL    HW250007   5.902   6.917   1.786 -0.0642 -0.3091 -0.2074
15054SOL     OW50008   4.057   7.861   4.184  0.1215  0.6791 -0.0596
15054SOL    HW150009   4.108   7.862   4.265 -0.0719 -0.6013  0.0915
15054SOL    HW250010   4.080   7.943   4.141  0.8701  0.9913  0.8900
15055SOL     OW50011   5.349   6.342   2.362  0.1117 -0.4438 -0.0801
15055SOL    HW150012   5.370   6.418   2.415  0.4409 -1.0274  0.6515
15055SOL    HW250013   5.432   6.316   2.322  0.0434 -0.5288 -0.1682
15056SOL     OW50014   5.201   8.892   5.729 -0.6731 -0.5790 -0.4142
15056SOL    HW150015   5.278   8.949   5.732 -1.5596  0.6506  0.3903
15056SOL    HW250016   5.157   8.916   5.647 -1.3318  0.3353  0.1833
15057SOL     OW50017   4.820   3.079   1.061 -0.4237 -0.3335  0.0782
15057SOL    HW150018   4.737   3.051   1.022 -1.7056 -0.2524  2.5565
15057SOL    HW250019   4.868   3.120   0.989 -1.3553 -2.7602 -2.0755
15058SOL     OW50020   5.214   6.108   1.030  0.3883  0.2230  0.1680
15058SOL    HW150021   5.252   6.021   1.023 -0.0307  0.0997 -0.6962
15058SOL    HW250022   5.123   6.097   1.001 -0.0645  0.6863  1.3323
15059SOL     OW50023   6.290   7.210   4.807  0.2141 -0.6159 -0.5975
15059SOL    HW150024   6.222   7.277   4.795 -0.7328 -1.2433  0.9129
15059SOL    HW250025   6.265   7.139   4.748  0.7578 -0.0010 -1.5926
15060SOL     OW50026   3.245   9.331   3.618 -0.5202  0.4666 -0.1078
15060SOL    HW150027   3.309   9.362   3.682 -0.2766 -0.9619  0.3863
15060SOL    HW250028   3.175   9.396   3.621 -0.7820  0.1787  2.0501
15061SOL     OW50029   8.490   5.843   6.685  0.1270  0.2358  0.0963
15061SOL    HW150030   8.569   5.797   6.657  0.4676  1.4323 -1.0174
15061SOL    HW250031   8.521   5.908   6.749  0.6338  2.8580 -2.6176
15062SOL     OW50032   5.144   3.871   2.403 -0.1001  0.3672  0.4461
15062SOL    HW150033   5.239   3.860   2.406  0.0357  1.4328  0.3395
15062SOL    HW250034   5.117   3.825   2.323  0.0187 -1.8632  1.6044
15063SOL     OW50035   3.629   6.245   4.178  0.1360 -0.5391 -0.3047
15063SOL    HW150036   3.691   6.304   4.135 -0.1174  0.4637  0.6457
15063SOL    HW250037   3.682   6.192   4.237  0.0238  0.9887  1.2345
15064SOL     OW50038   4.761   9.001   5.597  0.1244 -0.6857  0.2310
15064SOL    HW150039   4.665   8.997   5.602 -0.1514  1.6981 -1.6679
15064SOL    HW250040   4.781   9.093   5.583  2.6518 -1.2649 -0.5117
15065SOL     OW50041   2.923   7.216   2.204  0.0627 -0.1864 -0.3704
15065SOL    HW150042   2.892   7.287   2.260 -3.4010 -1.0442 -0.9489
15065SOL    HW250043   2.922   7.253   2.115  0.6374 -0.2823 -0.4227
15066SOL     OW50044   3.934   4.838   3.016  0.5839  0.1257  0.1638
15066SOL    HW150045   3.842   4.863   3.013  0.6356  0.2732 -0.3193
15066SOL    HW250046   3.941   4.777   3.089  0.4559  1.5858  1.4619
15067SOL     OW50047   6.094   2.619   3.895 -0.9037  0.4480 -0.1004
15067SOL    HW150048   6.141   2.699   3.872  0.1237  0.1191  0.7355
15067SOL    HW250049   6.151   2.549   3.863 -1.6130  0.0504 -0.4954
15068SOL     OW50050   4.841   2.378   0.642  0.0683 -0.7656  0.0103
15068SOL    HW150051   4.881   2.316   0.703  0.3373 -0.3935  0.2181
15068SOL    HW250052   4.748   2.356   0.644 -0.3651  0.8830  2.5511
15069SOL     OW50053   3.129   4.898   2.479  0.5124  0.6457  0.0036
15069SOL    HW150054   3.069   4.836   2.437  1.5937 -0.0295 -0.6100
15069SOL    HW250055   3.084   4.925   2.559 -0.0549 -0.8316  0.2242
15070SOL     OW50056   4.563   6.618   6.750  0.5551 -0.3519  0.3728
15070SOL    HW150057   4.603   6.677   6.686 -0.2108  0.9515  1.0578
15070SOL    HW250058   4.478   6.657   6.770 -0.0540 -1.7812  0.7530
15071SOL     OW50059   4.528   7.498   5.707 -0.6590 -0.6495  0.3790
15071SOL    HW150060   4.502   7.464   5.793 -0.0056 -0.2944  0.7231
15071SOL    HW250061   4.576   7.427   5.666 -1.8070 -1.1731 -0.1039
15072SOL     OW50062   4.781   5.321   4.077 -0.1839  0.2537  0.4020
15072SOL    HW150063   4.773   5.323   4.172  1.5091 -0.9261  0.6191
15072SOL    HW250064   4.765   5.412   4.050 -1.7197  0.4043  1.6769
15073SOL     OW50065   7.056   6.639   3.145  0.3372 -0.3123 -0.5699
15073SOL    HW150066   7.128   6.654   3.084 -0.0172  0.2731 -0.8515
15073SOL    HW250067   6.998   6.579   3.098 -0.2285  0.5994 -1.0577
15074SOL     OW50068   6.337   9.322   6.219  0.0578  0.1829 -0.3284
15074SOL    HW150069   6.306   9.324   6.310  0.5992 -1.5483 -0.0590
15074SOL    HW250070   6.258   9.304   6.167  0.2202 -2.3120  0.1733
15075SOL     OW50071   4.965   9.086   5.310  0.2459 -0.0579 -0.7628
15075SOL    HW150072   4.976   9.179   5.290  1.2690  0.2414  0.9654
15075SOL    HW250073   4.994   9.041   5.231  0.8453  1.0716 -1.2096
15076SOL     OW50074   9.682   5.604   3.736  0.5236  0.1370 -0.3675
15076SOL    HW150075   9.598   5.648   3.724 -0.2428 -1.3931 -0.9305
15076SOL    HW250076   9.691   5.548   3.659  1.3838 -0.7757  0.3595
15077SOL     OW50077   7.412   6.059   6.881 -0.1661 -0.0912  0.0642
15077SOL    HW150078   7.365   6.010   6.948  0.7906 -1.9778 -0.5849
15077SOL    HW250079   7.504   6.058   6.910  0.2587 -0.9152 -1.2041
15078SOL     OW50080   3.039   6.363   4.509 -0.0730 -0.3126 -0.7049
15078SOL    HW150081   3.045   6.324   4.597 -2.7486  0.9741  0.1479
15078SOL    HW250082   3.072   6.452   4.521 -2.9517  0.7949 -0.2292
15079SOL     OW50083   5.304   6.587   3.425  0.3765  0.5353  0.3332
15079SOL    HW150084   5.354   6.613   3.503 -1.8041  1.8000  1.3867
15079SOL    HW250085   5.257   6.666   3.399 -3.3863 -1.1849  1.2266
15080SOL     OW50086   2.280   7.578   6.155 -0.0678 -0.2359 -0.4024
15080SOL    HW150087   2.340   7.650   6.138  0.4938 -0.7089 -0.4316
15080SOL    HW250088   2.330   7.516   6.208 -0.4140 -0.7826 -0.6947
15081SOL     OW50089   2.070   3.831   1.552  0.1409 -0.3837  0.3206
15081SOL    HW150090   2.020   3.831   1.471  0.4000  1.4682  0.1033
15081SOL    HW250091   2.025   3.769   1.609 -1.7123  0.3271 -0.2930
15082SOL     OW50092   4.941   6.841   6.490 -0.4167  0.2947  0.5175
15082SOL    HW150093   4.939   6.843   6.394  1.9785 -0.0796  0.4036
15082SOL    HW250094   5.001   6.911   6.515  1.5365 -1.6049  1.5313
15083SOL     OW50095   8.169   8.555   7.346  0.3203  0.2141 -0.0930
15083SOL    HW150096   8.212   8.473   7.322  0.8680 -0.0183  1.5927
15083SOL    HW250097   8.176   8.610   7.267  0.1752 -1.2403 -1.1524
15084SOL     OW50098   7.249   6.395   3.177 -0.2029  0.1023  0.5189
15084SOL    HW150099   7.177   6.434   3.129  0.9571 -1.3970 -2.7253
15084SOL    HW250100   7.210   6.319   3.221 -1.1903  1.2122  1.6209
15085SOL     OW50101   8.210   7.192   4.308 -0.1028  0.4434  0.2346
15085SOL    HW150102   8.239   7.109   4.270  0.5091  0.5372  0.4755
15085SOL    HW250103   8.223   7.180   4.402 -1.5771  0.2175  0.4336
15086SOL     OW50104   4.959   8.260   4.423  0.2556 -0.1975 -0.0506
15086SOL    HW150105   4.872   8.270   4.462  0.5446 -0.0716  0.5830
15086SOL    HW250106   4.999   8.347   4.432 -0.1540  0.1994 -1.8535
15087SOL     OW50107   4.336   8.021   3.713 -0.7602 -0.0394  0.1941
15087SOL    HW150108   4.365   8.111   3.729 -1.2308 -0.1952  2.1958
15087SOL    HW250109   4.399   7.967   3.761 -1.4169 -0.6719  0.3505
15088SOL     OW50110   1.034   8.845   5.874 -0.3278  0.0233  0.2247
15088SOL    HW150111   1.009   8.937   5.879  0.1842  0.2818 -1.3000
15088SOL    HW250112   1.106   8.843   5.810 -0.5413 -1.4658 -0.0141
15089SOL     OW50113   6.210   6.552   4.617  0.3233  0.4105  0.5292
15089SOL    HW150114   6.270   6.613   4.660  1.6688 -1.1190  0.9099
15089SOL    HW250115   6.194   6.591   4.531 -0.1753  2.0961  1.3289
15090SOL     OW50116   7.731   5.748   3.890 -0.7246  0.3193  0.0858
15090SOL    HW150117   7.820   5.729   3.920  0.0495  1.5011 -1.3033
15090SOL    HW250118   7.698   5.814   3.951  0.0668  1.2312 -0.4547
15091SOL     OW50119   2.806   8.215   4.655 -0.2163 -0.1137 -0.0948
15091SOL    HW150120   2.771   8.296   4.617 -0.6748 -0.3352 -0.1499
15091SOL    HW250121   2.901   8.224   4.648 -0.2644  0.4459 -0.0447
15092SOL     OW50122   4.911   5.730   4.176 -0.1723 -0.5162 -0.0910
15092SOL    HW150123   4.841   5.792   4.194  0.3134  0.3920 -1.2180
15092SOL    HW250124   4.991   5.776   4.201  0.1206 -1.0737  0.0171
15093SOL     OW50125   4.722   8.053   7.159  0.0143 -0.1918  0.5278
15093SOL    HW150126   4.781   8.114   7.115  0.2964 -1.1875 -0.5498
15093SOL    HW250127   4.681   8.104   7.229  3.5302  0.0811  2.6082
15094SOL     OW50128   4.591   0.002   3.700 -0.4171 -0.5663 -0.2761
15094SOL    HW150129   4.646   0.071   3.738 -1.0395 -0.8042  1.1259
15094SOL    HW250130   4.594  -0.069   3.763 -2.0715 -0.7102 -0.3020
15095SOL     OW50131   4.358   8.881   4.959  0.0172 -0.0718 -0.1995
15095SOL    HW150132   4.333   8.867   5.050 -1.3156  1.0920 -0.3619
15095SOL    HW250133   4.378   8.793   4.926  0.2307 -0.5354  1.1213
15096SOL     OW50134   5.558   7.729   4.259  0.1708  0.1105  0.2114
15096SOL    HW150135   5.486   7.792   4.256  0.7503  0.7502 -0.4286
15096SOL    HW250136   5.610   7.756   4.335 -0.2340 -0.3401  0.6620
15097SOL     OW50137   3.347   8.036   3.270  0.6908  0.6762  0.0183
15097SOL    HW150138   3.364   8.112   3.326  2.7883  0.6655 -0.5386
15097SOL    HW250139   3.354   8.069   3.181  0.0467  0.1438 -0.2336
15098SOL     OW50140   3.673   6.518   4.018  0.0222  0.2870 -0.2357
15098SOL    HW150141   3.737   6.589   4.022 -1.4640  1.8214 -2.1527
15098SOL    HW250142   3.619   6.530   4.097  0.1824  0.8736 -0.2101
15099SOL     OW50143   5.837   5.715   4.122 -0.1570 -0.3813 -0.1191
15099SOL    HW150144   5.910   5.657   4.142  0.7000  0.1950 -1.4535
15099SOL    HW250145   5.831   5.714   4.027 -2.3221 -0.9280 -0.0225
15100SOL     OW50146   7.935   5.569   1.105 -0.0086  0.2885 -0.3849
15100SOL    HW150147   7.863   5.631   1.106 -0.5842 -0.3603 -0.1718
15100SOL    HW250148   7.929   5.524   1.190  2.0463  1.7686  0.6413
15101SOL     OW50149   7.758   7.872   2.428  0.4173  0.1346 -0.2008
15101SOL    HW150150   7.717   7.827   2.354  1.5438  0.9455 -1.3586
15101SOL    HW250151   7.843   7.901   2.394  0.4728  1.5436  1.0487
15102SOL     OW50152   5.171   7.238   6.208  0.0739  0.6833  0.4053
15102SOL    HW150153   5.238   7.302   6.186  0.6947 -0.2783 -0.6226
15102SOL    HW250154   5.094   7.264   6.156  0.0089  1.1430  0.7318
15103SOL     OW50155   6.512   8.515   4.862  0.9067  0.2251  0.1550
15103SOL    HW150156   6.544   8.577   4.797  2.4094 -0.2658  0.3859
15103SOL    HW250157   6.500   8.434   4.813 -1.2162  0.6881 -0.1824
15104SOL     OW50158   3.009   6.426   2.753 -0.3829 -0.5141 -0.1127
15104SOL    HW150159   3.076   6.378   2.704  0.4720 -0.0305  0.5275
15104SOL    HW250160   2.955   6.467   2.687  1.0393  0.5239 -0.6880
15105SOL     OW50161   8.216   5.699   3.461 -0.1411 -0.6260 -0.2782
15105SOL    HW150162   8.200   5.697   3.555  0.5035 -1.0758 -0.1678
15105SOL    HW250163   8.279   5.629   3.446  0.8660  0.3578 -0.8274
15106SOL     OW50164   3.167   9.432   5.217 -0.0323 -0.3818 -0.2553
15106SOL    HW150165   3.163   9.351   5.268  2.3473 -0.0002  0.6586
15106SOL    HW250166   3.246   9.476   5.248  0.5255  0.7507 -3.0137
15107SOL     OW50167   5.075   8.231   6.384  0.1138  0.2640 -0.1183
15107SOL    HW150168   5.143   8.270   6.328  0.6802  2.3027  1.8235
15107SOL    HW250169   5.123   8.202   6.462 -0.9838  0.0105  0.4729
15108SOL     OW50170   5.592   8.082   6.206 -0.0036  0.6769  0.1567
15108SOL    HW150171   5.591   8.016   6.137  0.1703  0.6200  0.2088
15108SOL    HW250172   5.580   8.165   6.159  0.5806  0.6834  0.0054
15109SOL     OW50173   5.511   8.820   6.166  1.4280 -0.2234 -0.3146
15109SOL    HW150174   5.428   8.782   6.194  2.8942 -2.4122  1.4335
15109SOL    HW250175   5.504   8.912   6.189  0.0596 -0.6823  1.2915
15110SOL     OW50176   4.184   4.203   1.860 -0.1891  0.2716 -0.1597
15110SOL    HW150177   4.088   4.201   1.861 -0.1824  0.0286  0.6931
15110SOL    HW250178   4.209   4.209   1.952  0.6579 -2.1333 -0.1636
15111SOL     OW50179   3.008   3.463   5.060  0.2428  0.9500  0.2809
15111SOL    HW150180   3.033   3.371   5.063 -0.2370  0.8338  1.8497
15111SOL    HW250181   3.000   3.483   4.967  0.3548 -0.5924 -0.0859
15112SOL     OW50182   5.647   3.668   3.949  0.1259  0.1821 -0.0908
15112SOL    HW150183   5.621   3.663   3.857  0.5942 -1.8440 -0.1518
15112SOL    HW250184   5.724   3.725   3.949 -0.7520  1.4259 -0.7145
15113SOL     OW50185   1.151   4.432   2.179 -0.3596  0.7995  0.0429
15113SOL    HW150186   1.114   4.517   2.203 -1.4434  0.8719 -1.6655
15113SOL    HW250187   1.161   4.437   2.083  1.7227 -0.1830  0.1481
15114SOL     OW50188   5.107   7.009   1.141  0.0479 -0.0901 -0.4825
15114SOL    HW150189   5.102   6.922   1.181  3.4293 -0.8951 -1.4753
15114SOL    HW250190   5.141   6.993   1.053  0.6871  2.2371 -0.7362
15115SOL     OW50191   4.482   9.348   4.946  0.1150 -0.2143  0.4632
15115SOL    HW150192   4.569   9.332   4.983 -0.3567  0.7488  2.0738
15115SOL    HW250193   4.489   9.433   4.903  0.3357 -0.8018 -0.7244
15116SOL     OW50194   4.548   7.100   4.642  0.5839  0.8141  0.5481
15116SOL    HW150195   4.627   7.053   4.614  1.0829  1.4270  0.8871
15116SOL    HW250196   4.581   7.185   4.672 -0.5266  2.3201 -2.1997
15117SOL     OW50197   6.734   7.628   3.042  0.2599 -0.1540 -0.1544
15117SOL    HW150198   6.698   7.539   3.036  1.3729 -0.5088 -2.4863
15117SOL    HW250199   6.748   7.654   2.952 -1.0271  2.8735  0.3945
15118SOL     OW50200   5.874   8.345   6.887  0.3580  0.4586  0.3325
15118SOL    HW150201   5.834   8.258   6.881 -0.1083  0.5794  1.4884
15118SOL    HW250202   5.964   8.331   6.858  0.1967 -0.3433  0.1770
15119SOL     OW50203   1.702   9.117   3.495  0.0045 -0.3483  0.3917
15119SOL    HW150204   1.646   9.165   3.434  0.3188 -1.2679 -0.6387
15119SOL    HW250205   1.677   9.151   3.581  1.6926  3.2514 -0.3451
15120SOL     OW50206   6.188   8.335   3.256  1.0260  0.8228 -0.1068
15120SOL    HW150207   6.171   8.307   3.346 -0.0066  0.2424 -0.4621
15120SOL    HW250208   6.261   8.396   3.263 -0.4042  2.4857  1.4048
15121SOL     OW50209   6.529   6.591   4.367  0.5031  0.1324  0.0943
15121SOL    HW150210   6.465   6.537   4.320 -0.3459 -0.5673  1.9794
15121SOL    HW250211   6.528   6.674   4.319 -0.5750 -0.4214 -0.9190
15122SOL     OW50212   4.853   6.293   8.466 -0.0747  0.3241 -0.7755
15122SOL    HW150213   4.862   6.241   8.386  0.4286  0.3399 -0.7322
15122SOL    HW250214   4.914   6.254   8.528  1.2058  1.6857 -1.1211
15123SOL     OW50215   6.717   7.971   2.612  0.3434 -0.2849  0.1949
15123SOL    HW150216   6.799   8.018   2.628  0.0929  0.2484 -0.0863
15123SOL    HW250217   6.734   7.917   2.535  0.0071  0.8649 -0.7084
15124SOL     OW50218   5.821   7.653   9.774  0.2016  0.1215 -0.4688
15124SOL    HW150219   5.806   7.699   9.691 -0.8980  0.0030 -0.3565
15124SOL    HW250220   5.744   7.675   9.827  0.8448  0.1231  0.4952
15125SOL     OW50221   5.892   8.726   4.076 -0.4700 -0.4923 -0.0585
15125SOL    HW150222   5.916   8.705   3.986  0.0503 -1.3340  0.2653
15125SOL    HW250223   5.973   8.757   4.116 -0.2289 -1.8945  0.6145
15126SOL     OW50224   6.441   5.544   2.690 -0.3779  0.7819  0.8379
15126SOL    HW150225   6.367   5.496   2.728  1.0740 -1.8451  0.6116
15126SOL    HW250226   6.503   5.553   2.762 -0.2352  1.5497  0.6277
15127SOL     OW50227   6.061   8.188   2.971 -0.6972 -0.0144 -0.0436
15127SOL    HW150228   6.111   8.218   3.047 -0.0681 -0.5904 -0.2253
15127SOL    HW250229   6.105   8.226   2.896 -1.4411  0.7241 -0.1244
15128SOL     OW50230   3.673   6.799   7.364 -0.2316  0.4702 -0.2126
15128SOL    HW150231   3.622   6.857   7.421 -1.4556  1.7679 -2.4511
15128SOL    HW250232   3.763   6.829   7.374 -0.4396  0.7927  0.8755
15129SOL     OW50233   3.062   8.252   6.807  0.5617  0.5295  0.0700
15129SOL    HW150234   3.004   8.251   6.731 -2.6914  1.2718  2.3582
15129SOL    HW250235   3.026   8.320   6.864  1.5035 -1.4316  3.2445
15130SOL     OW50236   3.326   8.799   3.864 -0.1850  0.3280  0.0574
15130SOL    HW150237   3.342   8.877   3.811 -1.7338  1.0405  0.5646
15130SOL    HW250238   3.314   8.729   3.800  1.2521  0.4706 -0.4061
15131SOL     OW50239   3.633   5.331   8.719  0.1669 -0.1985 -0.1517
15131SOL    HW150240   3.599   5.254   8.673 -2.7760  1.2715 -0.6384
15131SOL    HW250241   3.594   5.327   8.806  0.0453  0.6814 -0.1550
15132SOL     OW50242   8.416   6.741   5.293 -0.2809  0.8603 -0.5657
15132SOL    HW150243   8.477   6.798   5.246  2.1289 -1.0795  0.0148
15132SOL    HW250244   8.470   6.695   5.357 -2.0634 -2.0129 -0.9365
15133SOL     OW50245   6.560   5.820   4.081 -0.6644 -0.1895 -0.3031
15133SOL    HW150246   6.467   5.837   4.062 -0.7678  0.6950  0.8999
15133SOL    HW250247   6.589   5.897   4.129  0.3184 -1.0869  0.5802
15134SOL     OW50248   5.315   6.964   5.019 -0.5106  0.1963  0.4009
15134SOL    HW150249   5.293   6.963   5.112  0.8598  1.0313  0.7632
15134SOL    HW250250   5.289   7.051   4.989 -1.1157 -0.1338 -0.0446
15135SOL     OW50251   3.295   5.386   4.963 -0.3424  0.1038 -0.2409
15135SOL    HW150252   3.229   5.339   4.911 -0.3758 -2.0297  1.5629
15135SOL    HW250253   3.375   5.336   4.951 -0.1964 -0.0508  1.2004
15136SOL     OW50254   3.972   6.673   1.200  0.1621 -0.1459  0.3682
15136SOL    HW150255   4.016   6.724   1.131  0.5457  2.6442  2.4833
15136SOL    HW250256   4.044   6.641   1.255 -0.1097 -2.7238 -0.6685
15137SOL     OW50257   3.272   5.861   4.121 -0.2577 -0.0152  0.3419
15137SOL    HW150258   3.363   5.888   4.107 -0.3031  0.2676  0.5990
15137SOL    HW250259   3.275   5.765   4.119 -0.3689 -0.0413 -2.4048
15138SOL     OW50260   5.262   4.586   1.999 -0.4552 -0.6531 -0.2371
15138SOL    HW150261   5.353   4.578   1.968 -0.4194 -2.0204  0.1727
15138SOL    HW250262   5.231   4.496   2.006 -1.9851 -0.1875 -0.7319
15139SOL     OW50263   4.594   4.008   4.410 -0.2649  0.2595 -0.6229
15139SOL    HW150264   4.619   3.988   4.320  1.9771  0.4267 -0.1063
15139SOL    HW250265   4.674   4.042   4.450 -1.6409  1.8280  0.9782
15140SOL     OW50266   8.005   7.899   1.946  0.2410  0.0816  0.4083
15140SOL    HW150267   7.972   7.816   1.913  0.0692  1.1280 -2.3430
15140SOL    HW250268   7.943   7.925   2.014 -0.1752 -1.6095  0.7022
15141SOL     OW50269   4.983   3.755   1.324  0.0043 -0.2610 -0.1743
15141SOL    HW150270   4.932   3.676   1.304 -0.9073 -0.4539  2.5495
15141SOL    HW250271   5.069   3.722   1.350  0.1083 -0.2460 -0.4973
15142SOL     OW50272   7.284   6.745   4.879 -0.4983  0.1596  0.0722
15142SOL    HW150273   7.379   6.753   4.886 -0.5510  0.9835  0.0031
15142SOL    HW250274   7.254   6.724   4.967 -0.2284 -0.4091  0.0304
15143SOL     OW50275   7.636   5.783   6.253  0.0362 -0.1448 -0.4926
15143SOL    HW150276   7.723   5.820   6.272 -0.3176  0.6965 -0.4789
15143SOL    HW250277   7.617   5.728   6.328  1.6090 -2.3167 -1.5909
15144SOL     OW50278   2.588   7.355   7.652  0.1982 -0.9782  0.4727
15144SOL    HW150279   2.662   7.320   7.701  0.6999 -0.6770 -0.0475
15144SOL    HW250280   2.516   7.359   7.715 -0.1435 -3.7192  0.3557
15145SOL     OW50281   3.523   6.537   4.294  0.0559  0.7010 -0.3577
15145SOL    HW150282   3.461   6.609   4.280 -1.6692 -0.2895  1.7431
15145SOL    HW250283   3.483   6.484   4.362  2.8672 -0.4605  0.4982
15146SOL     OW50284   3.444   7.041   3.679  0.3029 -0.2496  0.2449
15146SOL    HW150285   3.389   7.067   3.753  0.9147  1.9326  0.0135
15146SOL    HW250286   3.384   7.038   3.605  0.2571  1.0464  0.2024
15147SOL     OW50287   2.880   7.858   9.055  0.8124  0.0548 -0.1868
15147SOL    HW150288   2.878   7.921   9.127  2.0027  0.8139 -0.8012
15147SOL    HW250289   2.794   7.815   9.059  1.0540 -0.3396  2.0465
15148SOL     OW50290   6.818   8.202   6.278  0.7118  0.3622 -0.1436
15148SOL    HW150291   6.840   8.294   6.268 -1.5276  0.8791 -0.8187
15148SOL    HW250292   6.794   8.192   6.370 -0.2559  0.7768 -0.3369
15149SOL     OW50293   4.932   7.059   5.608 -0.3602 -0.5938 -0.0638
15149SOL    HW150294   4.983   7.089   5.533  0.2079 -1.5410 -0.0701
15149SOL    HW250295   4.939   7.131   5.672  1.8864 -1.1010  0.3574
15150SOL     OW50296   7.327   6.986   6.660  0.1024 -0.7598  0.8354
15150SOL    HW150297   7.294   6.972   6.571 -2.9942  0.4018  1.6771
15150SOL    HW250298   7.350   6.898   6.691 -1.5292 -1.5809 -0.1538
15151SOL     OW50299   4.707   8.155   7.556 -0.0635 -0.2739  0.4540
15151SOL    HW150300   4.677   8.085   7.498  0.4731 -1.0992  1.1502
15151SOL    HW250301   4.696   8.235   7.505 -0.1179 -0.9249 -0.5749
15152SOL     OW50302   5.130   9.702   7.313  0.1149  0.7939  0.1324
15152SOL    HW150303   5.114   9.754   7.234 -0.4046  1.6395  0.7707
15152SOL    HW250304   5.095   9.756   7.384 -1.0924 -0.7453  0.7604
15153SOL     OW50305   3.173   6.514   7.181  0.2482 -0.5653 -0.1675
15153SOL    HW150306   3.232   6.442   7.203  0.3235  0.1898  2.4096
15153SOL    HW250307   3.230   6.591   7.176  0.1305 -0.5524 -2.6390
15154SOL     OW50308   4.964   4.415   8.292 -0.6536  0.0184  0.6569
15154SOL    HW150309   5.059   4.425   8.283 -0.6828 -0.7471 -0.7994
15154SOL    HW250310   4.942   4.466   8.371  0.5339  2.8200 -0.6663
15155SOL     OW50311   6.463   7.234   6.224  0.0914 -0.2510 -0.3747
15155SOL    HW150312   6.505   7.303   6.173  0.5729 -1.1172 -1.1575
15155SOL    HW250313   6.527   7.212   6.292  0.0391 -0.1114 -0.2788
15156SOL     OW50314   6.169   6.283   0.194 -0.7546  0.3824 -0.2907
15156SOL    HW150315   6.088   6.264   0.242 -1.0051  1.1992 -0.3742
15156SOL    HW250316   6.182   6.377   0.205  1.0752  0.0305  1.1141
15157SOL     OW50317   3.537   4.258   7.976  0.4998  0.1810 -0.2427
15157SOL    HW150318   3.505   4.211   7.899 -1.6058  2.4669 -0.8962
15157SOL    HW250319   3.479   4.231   8.047  0.5889  0.2878 -0.1277
15158SOL     OW50320   5.603   6.519   7.068 -0.6037 -0.2566  0.1810
15158SOL    HW150321   5.645   6.571   7.135 -1.6163 -0.7020  1.1984
15158SOL    HW250322   5.667   6.451   7.046 -0.3489 -0.2533  0.8882
15159SOL     OW50323   2.421   6.105   6.962  0.4512  0.8472 -0.2221
15159SOL    HW150324   2.358   6.145   7.023 -1.0546 -1.0575 -0.4322
15159SOL    HW250325   2.416   6.158   6.883  1.1752  2.3421  0.7018
15160SOL     OW50326   5.873   7.930   4.752 -0.0772 -0.8833 -0.1212
15160SOL    HW150327   5.791   7.915   4.800  0.7194 -0.7552  1.3491
15160SOL    HW250328   5.929   7.975   4.815  2.0232 -3.1484 -0.2152
15161SOL     OW50329   2.205   7.843   6.722 -0.2970  0.0506  0.2711
15161SOL    HW150330   2.212   7.913   6.658 -0.0396  0.5989  0.8807
15161SOL    HW250331   2.295   7.814   6.737 -0.4784 -1.0999 -0.6978
15162SOL     OW50332   3.786   6.259   5.028 -0.4112  0.4146 -0.0495
15162SOL    HW150333   3.766   6.298   5.113 -0.6283 -0.7964  0.4730
15162SOL    HW250334   3.701   6.238   4.991 -0.2774 -1.8339  0.7876
15163SOL     OW50335   6.178   9.340   6.502 -0.1913  0.1005 -0.4117
15163SOL    HW150336   6.087   9.341   6.532  0.1473  0.5062  0.6514
15163SOL    HW250337   6.220   9.411   6.550  0.8997 -0.6606 -0.2008
15164SOL     OW50338   3.272   8.842   7.704  0.0458  0.1660 -0.6327
15164SOL    HW150339   3.259   8.802   7.618 -2.3148 -1.6695  0.4390
15164SOL    HW250340   3.197   8.899   7.716  0.5686  0.7271  0.0464
15165SOL     OW50341   4.455   7.365   5.932  0.6194 -0.0430  0.2688
15165SOL    HW150342   4.448   7.274   5.904 -0.3987 -0.0926  0.6417
15165SOL    HW250343   4.393   7.372   6.005 -0.1861  1.2392 -0.5074
15166SOL     OW50344   5.810   6.469   8.743 -0.4711  0.2024 -0.0136
15166SOL    HW150345   5.743   6.531   8.714  0.2524  1.3671  0.7544
15166SOL    HW250346   5.871   6.521   8.794 -0.7812 -1.4430  2.1821
15167SOL     OW50347   5.326   7.449   4.945 -0.0904 -0.1595  0.0150
15167SOL    HW150348   5.234   7.477   4.949  0.1387  1.4645 -3.1236
15167SOL    HW250349   5.373   7.516   4.994 -0.4766 -0.7915  1.3109
15168SOL     OW50350   6.054   6.561   7.254  0.4936 -0.2182  0.2284
15168SOL    HW150351   5.999   6.553   7.332  0.5571  0.4716  0.3468
15168SOL    HW250352   6.106   6.481   7.253  0.8406 -0.0086  1.1665
15169SOL     OW50353   3.458   6.782   4.606 -0.1226  0.1588 -0.2142
15169SOL    HW150354   3.501   6.863   4.634  1.0675 -0.5548  0.1076
15169SOL    HW250355   3.484   6.770   4.515  0.5834 -0.3835  0.0417
15170SOL     OW50356   4.440   8.090   5.994 -0.3478 -0.0367 -0.1603
15170SOL    HW150357   4.519   8.043   6.021  0.2735  1.9067  1.6686
15170SOL    HW250358   4.447   8.097   5.899  2.8808  1.9609  0.0627
15171SOL     OW50359   2.657   8.950   3.364 -0.0782  0.4060 -0.2987
15171SOL    HW150360   2.620   8.960   3.276  0.9035  1.9746 -0.5876
15171SOL    HW250361   2.590   8.983   3.423 -0.3450  0.3049 -0.5455
15172SOL     OW50362   1.677   8.207   9.598 -0.2257  0.1265 -0.3466
15172SOL    HW150363   1.742   8.269   9.565  1.6248 -1.9236 -0.7495
15172SOL    HW250364   1.641   8.166   9.519 -1.4548  0.6658 -0.0880
15173SOL     OW50365   4.085   7.015   7.976 -0.4438 -0.1980 -0.2775
15173SOL    HW150366   4.052   7.104   7.967 -0.3174 -0.2880 -1.9489
15173SOL    HW250367   4.172   7.025   8.015 -0.6138  0.3715 -0.0411
15174SOL     OW50368   5.618   6.668   5.790  0.8458 -0.0663 -0.9021
15174SOL    HW150369   5.555   6.665   5.718 -0.6037  0.4402  0.2903
15174SOL    HW250370   5.650   6.759   5.789  1.5072 -0.2997 -1.4525
15175SOL     OW50371   4.646   8.490   7.394  0.5377  0.7798 -0.3090
15175SOL    HW150372   4.600   8.551   7.337 -2.1440  0.9463  1.8256
15175SOL    HW250373   4.625   8.404   7.358  1.7636  0.9549 -1.5225
15176SOL     OW50374   4.748   7.478   5.889 -0.2514 -0.5108  0.5874
15176SOL    HW150375   4.796   7.552   5.851  0.4805 -1.5442 -0.5575
15176SOL    HW250376   4.659   7.511   5.901  0.3302  0.9401  1.2639
15177SOL     OW50377   4.511   6.200   8.281  0.1091  0.1655 -0.3036
15177SOL    HW150378   4.517   6.105   8.268 -0.8968  0.1298 -0.5334
15177SOL    HW250379   4.546   6.237   8.200  1.0215  0.0109  0.0008
15178SOL     OW50380   4.185   7.292   8.971  0.4780 -0.4055  0.4862
15178SOL    HW150381   4.240   7.300   9.050 -1.0035  0.8001  1.4682
15178SOL    HW250382   4.164   7.383   8.948 -0.9028 -0.8251  0.0195
15179SOL     OW50383   7.121   8.270   6.139 -0.2572  0.3409 -0.7848
15179SOL    HW150384   7.176   8.286   6.216 -0.7678  2.5439 -0.8248
15179SOL    HW250385   7.181   8.278   6.065 -0.2659  0.9307 -0.7350
15180SOL     OW50386   7.758   5.386   6.397  0.0994 -0.1370  0.6853
15180SOL    HW150387   7.781   5.319   6.461  1.3651 -0.3549  0.0450
15180SOL    HW250388   7.722   5.458   6.449  2.2194  0.1955  1.8409
15181SOL     OW50389   5.835   4.637   0.695  0.1657  0.4340 -0.2473
15181SOL    HW150390   5.860   4.635   0.602  1.0481  0.4466 -0.0215
15181SOL    HW250391   5.860   4.725   0.724 -1.2122  0.8535 -0.2804
15182SOL     OW50392   2.228   6.453   9.289  0.2821 -0.1811  0.0173
15182SOL    HW150393   2.263   6.541   9.276 -0.0482  0.0803  0.8304
15182SOL    HW250394   2.200   6.426   9.202 -1.2963  1.2655  0.0068
15183SOL     OW50395   8.014   6.999   3.552 -0.0578  0.4789  0.1013
15183SOL    HW150396   8.066   7.029   3.626  1.2301  0.4806 -0.7770
15183SOL    HW250397   7.942   7.061   3.546 -0.3222  0.3333  1.4941
15184SOL     OW50398   3.208   7.312   6.784 -0.1861 -0.5230 -0.2131
15184SOL    HW150399   3.301   7.294   6.772 -0.1647  0.3342 -1.4809
15184SOL    HW250400   3.170   7.227   6.806  0.8831 -0.8831  0.2946
15185SOL     OW50401   2.540   5.330   4.531 -0.0442 -0.3918 -0.0850
15185SOL    HW150402   2.617   5.274   4.534 -0.0039 -0.4442 -1.5814
15185SOL    HW250403   2.467   5.271   4.514 -0.3063 -0.2290  0.4310
15186SOL     OW50404   3.434   4.159   6.199  0.4208 -0.1572  0.2514
15186SOL    HW150405   3.505   4.108   6.160  1.9612  1.8545  0.3226
15186SOL    HW250406   3.375   4.178   6.127 -0.0447 -1.7595  0.1722
15187SOL     OW50407   7.090   9.712   6.285 -0.4344  1.0036  0.2858
15187SOL    HW150408   7.140   9.630   6.283  0.1196  1.3300  0.4561
15187SOL    HW250409   7.093   9.739   6.377 -0.3127  1.3995  0.1657
15188SOL     OW50410   3.712   8.235   7.557  0.2386  0.4895 -0.2283
15188SOL    HW150411   3.717   8.328   7.578 -0.7092  0.5347 -0.1611
15188SOL    HW250412   3.783   8.195   7.606 -0.4156  0.9357  1.1199
15189SOL     OW50413   1.388   5.378   8.683 -0.0298 -0.1689 -0.6187
15189SOL    HW150414   1.389   5.425   8.600 -0.6530  0.9420 -0.0115
15189SOL    HW250415   1.296   5.376   8.708 -0.0617 -1.8963 -0.7031
15190SOL     OW50416   6.032   7.356   2.615 -0.1849  0.1613  0.3582
15190SOL    HW150417   6.018   7.270   2.655 -1.8486  0.9622  1.6224
15190SOL    HW250418   6.123   7.354   2.587 -0.6341 -2.6419 -1.2672
15191SOL     OW50419   6.598   9.161   8.361  0.3778 -0.7349 -0.1815
15191SOL    HW150420   6.573   9.089   8.303  0.7953 -0.2384 -0.9888
15191SOL    HW250421   6.686   9.139   8.390  0.3693 -0.7181 -0.1432
15192SOL     OW50422   7.233   4.971   6.169  0.3445  0.5951 -0.0138
15192SOL    HW150423   7.230   5.032   6.095 -0.9396 -0.7004 -1.0944
15192SOL    HW250424   7.285   5.016   6.235  2.4993  1.3951 -2.0910
15193SOL     OW50425   4.178   7.345   7.872 -0.1712  0.0450 -0.1689
15193SOL    HW150426   4.154   7.415   7.933 -0.5516 -1.0127  0.9322
15193SOL    HW250427   4.264   7.316   7.902  0.4038  0.6398 -1.1952
15194SOL     OW50428   5.778   4.600   7.623 -0.4443  0.5173  0.5323
15194SOL    HW150429   5.689   4.620   7.593 -0.1795  0.3395 -0.4037
15194SOL    HW250430   5.822   4.686   7.626 -0.5513  0.5674  0.6655
15195SOL     OW50431   3.671   8.175   6.391  0.1862  0.0641  0.3413
15195SOL    HW150432   3.709   8.262   6.384  0.6201 -0.2347 -1.4069
15195SOL    HW250433   3.582   8.190   6.425 -0.6181  1.4596 -2.1228
15196SOL     OW50434   5.915   6.188   7.346 -0.1430 -0.2687 -0.1797
15196SOL    HW150435   5.965   6.125   7.294  0.5869  0.9086 -0.9356
15196SOL    HW250436   5.977   6.258   7.366 -0.4873 -0.5396  2.0620
15197SOL     OW50437   1.309   6.645   8.962  0.6237 -0.1196  0.4887
15197SOL    HW150438   1.329   6.737   8.979  2.1506 -0.1010 -1.1132
15197SOL    HW250439   1.354   6.626   8.880  0.8793 -2.4785  1.1063
15198SOL     OW50440   3.334   8.093   5.197 -0.7056 -0.3752 -0.4384
15198SOL    HW150441   3.362   8.125   5.112 -0.8128 -0.8518 -0.6580
15198SOL    HW250442   3.413   8.055   5.236  0.8092  4.4737  1.9781
15199SOL     OW50443   3.834   5.844   8.210  0.0261 -0.3161 -0.5891
15199SOL    HW150444   3.875   5.929   8.194  0.1579 -0.2104  0.2603
15199SOL    HW250445   3.902   5.791   8.252 -0.4644 -0.3805  0.1509
15200SOL     OW50446   7.215   7.755   6.595 -0.3846  0.5276  0.0220
15200SOL    HW150447   7.272   7.721   6.664  0.1561 -1.1593 -1.1916
15200SOL    HW250448   7.159   7.819   6.640 -0.6299 -1.0890  2.1950
15201SOL     OW50449   3.370   5.443   7.242  0.5017  0.3925  0.1988
15201SOL    HW150450   3.341   5.520   7.291 -0.2339  0.1878  0.1028
15201SOL    HW250451   3.295   5.383   7.246  1.1297 -0.3848  0.4126
15202SOL     OW50452   5.839   9.700   4.248  0.1959 -0.0593  0.1841
15202SOL    HW150453   5.800   9.652   4.320 -1.8106  0.8159 -0.2471
15202SOL    HW250454   5.809   9.791   4.260 -1.1582 -0.0685 -2.2836
15203SOL     OW50455   4.817   6.515   3.839 -0.4659 -1.1266  0.1943
15203SOL    HW150456   4.732   6.473   3.852  0.0595 -1.7558  1.8348
15203SOL    HW250457   4.880   6.443   3.841  0.1881 -0.5751 -0.0966
15204SOL     OW50458   5.347   7.447   6.135  0.2252 -0.0967  0.1459
15204SOL    HW150459   5.304   7.433   6.051  0.1049 -1.6602  0.4368
15204SOL    HW250460   5.316   7.533   6.164 -3.0598 -1.2955  0.5432
15205SOL     OW50461   3.493   6.940   6.260 -0.1411  0.2170  0.0906
15205SOL    HW150462   3.411   6.905   6.295 -1.1678  1.6860 -0.7385
15205SOL    HW250463   3.515   7.013   6.319 -1.2824  1.9872 -1.5376
15206SOL     OW50464   4.080   7.580   6.759 -0.3612 -0.0301  0.1898
15206SOL    HW150465   4.151   7.570   6.822  0.3925 -2.5386 -0.9272
15206SOL    HW250466   4.081   7.673   6.736  3.0501 -0.0657 -0.3104
15207SOL     OW50467   2.972   8.110   7.250  0.7162  0.2511 -0.1260
15207SOL    HW150468   2.966   8.145   7.339  0.1377 -0.6690  0.2107
15207SOL    HW250469   3.031   8.035   7.259 -2.3959 -2.3597  0.3560
15208SOL     OW50470   6.599   5.733   7.700  0.2940  0.4984  0.1469
15208SOL    HW150471   6.531   5.670   7.677  0.4784  0.3169  0.0903
15208SOL    HW250472   6.674   5.679   7.724  0.2911  0.6919  0.6018
15209SOL     OW50473   3.997   9.338   2.516  0.2105  0.1401  0.1347
15209SOL    HW150474   3.942   9.342   2.594  0.4606 -2.4000  0.5236
15209SOL    HW250475   3.936   9.334   2.442 -0.0998 -0.9141  0.4444
15210SOL     OW50476   3.937   5.450   7.217  0.0736  0.1611  0.1598
15210SOL    HW150477   4.015   5.485   7.174 -0.4614  1.0043 -0.1709
15210SOL    HW250478   3.871   5.520   7.207 -0.3484 -0.0036  1.5255
15211SOL     OW50479   4.218   7.595   8.006 -0.4971 -0.1642  0.2136
15211SOL    HW150480   4.215   7.691   8.000 -1.6665 -0.2263 -0.5640
15211SOL    HW250481   4.298   7.571   7.959 -0.0566  0.4366  0.6342
15212SOL     OW50482   6.552   4.293   9.621 -0.0385  0.2841 -0.3762
15212SOL    HW150483   6.508   4.322   9.700 -1.4605  1.5911 -1.5711
15212SOL    HW250484   6.495   4.224   9.585  0.6640 -0.3980 -0.2028
15213SOL     OW50485   4.545   7.152   6.124  0.2557 -0.3006 -0.2782
15213SOL    HW150486   4.601   7.143   6.201 -0.3740  0.1970  0.2519
15213SOL    HW250487   4.525   7.063   6.098  1.7132 -0.4971 -0.7972
15214SOL     OW50488   4.573   7.344   7.524 -0.2279 -0.1603 -0.3591
15214SOL    HW150489   4.505   7.403   7.557 -2.9577 -2.3006 -1.7390
15214SOL    HW250490   4.614   7.392   7.453 -0.9466  0.8512 -0.1102
15215SOL     OW50491   3.892   7.473   6.200  0.3115  0.7270 -0.2193
15215SOL    HW150492   3.858   7.516   6.278  1.3426 -2.4988  2.2373
15215SOL    HW250493   3.833   7.400   6.185  1.2256  0.1717 -1.2899
15216SOL     OW50494   5.772   7.316   8.768  0.2141 -0.4967  0.7412
15216SOL    HW150495   5.804   7.242   8.820  1.4999 -1.0799 -0.8166
15216SOL    HW250496   5.744   7.276   8.686  4.6763  0.9949 -1.8385
15217SOL     OW50497   3.143   8.588   5.012  0.9251 -0.2135  0.2692
15217SOL    HW150498   3.134   8.498   5.044 -0.0974 -0.3650 -0.4069
15217SOL    HW250499   3.171   8.637   5.089  0.4411 -0.9255  0.9250
15218SOL     OW50500   3.731   8.324   4.913 -0.2639  0.0345 -0.0167
15218SOL    HW150501   3.677   8.402   4.902 -0.6766 -0.3232 -0.5567
15218SOL    HW250502   3.724   8.304   5.007 -1.0185  0.0382 -0.0600
15219SOL     OW50503   6.538   6.740   7.539 -0.4799 -0.1792  0.8471
15219SOL    HW150504   6.508   6.797   7.609 -1.3006 -0.5805  0.8325
15219SOL    HW250505   6.464   6.682   7.521  0.0215 -0.6544  0.2448
15220SOL     OW50506   5.580   5.399   7.497  0.7822 -0.2005 -0.0952
15220SOL    HW150507   5.631   5.478   7.515  0.3270  0.9477 -3.1657
15220SOL    HW250508   5.641   5.340   7.453  0.8091 -1.1214  1.1241
15221SOL     OW50509   3.930   9.014   3.699  0.2575 -0.2448 -0.5254
15221SOL    HW150510   3.997   9.079   3.721  1.2992 -0.3042 -3.2234
15221SOL    HW250511   3.967   8.964   3.627 -0.4749 -3.9899  1.4186
15222SOL     OW50512   5.372   6.884   6.949  0.1012  0.5962  0.1395
15222SOL    HW150513   5.304   6.948   6.971  2.7193  2.4583  4.0567
15222SOL    HW250514   5.433   6.932   6.893 -0.8905 -0.5990 -2.1029
15223SOL     OW50515   6.465   4.823   7.416  0.0119  0.4700  0.0022
15223SOL    HW150516   6.503   4.900   7.373 -0.7618  2.3899  2.4990
15223SOL    HW250517   6.531   4.796   7.479  0.0765 -0.6633 -0.5323
15224SOL     OW50518   4.864   7.649   6.667 -0.4222  0.3606 -0.0762
15224SOL    HW150519   4.789   7.698   6.700  0.5955  1.7047  0.3296
15224SOL    HW250520   4.934   7.713   6.662  0.6346 -0.8006 -0.7260
15225SOL     OW50521   3.255   4.120   6.538 -0.2678  0.6309 -0.0886
15225SOL    HW150522   3.338   4.140   6.581 -0.3325  0.7194 -0.0068
15225SOL    HW250523   3.200   4.083   6.607 -0.4108  0.8773 -0.0694
15226SOL     OW50524   3.184   5.970   8.005  0.6054 -1.1427 -0.5045
15226SOL    HW150525   3.132   5.980   8.085  1.0084 -0.5825 -0.3063
15226SOL    HW250526   3.160   5.884   7.972  0.3828 -1.3556  0.1866
15227SOL     OW50527   5.578   6.829   7.145  0.4614  0.0425 -0.2411
15227SOL    HW150528   5.543   6.810   7.232  2.3754  0.9420  0.7925
15227SOL    HW250529   5.572   6.924   7.137  0.3983 -0.0205 -1.0520
15228SOL     OW50530   3.383   4.753   6.765 -0.6228 -0.1185  0.2661
15228SOL    HW150531   3.422   4.674   6.802 -0.2840  0.3009  0.8297
15228SOL    HW250532   3.368   4.732   6.673 -0.7345 -0.9066  0.4582
15229SOL     OW50533   6.063   3.154   7.857 -0.2709  0.0396  0.3285
15229SOL    HW150534   6.047   3.246   7.838 -4.1807 -0.4792  0.4760
15229SOL    HW250535   6.076   3.151   7.952 -5.1431  0.0982  1.2131
15230SOL     OW50536   1.232   5.646   8.617  0.0622 -0.7119 -0.4513
15230SOL    HW150537   1.242   5.667   8.524 -2.8066  1.0793 -0.4943
15230SOL    HW250538   1.301   5.696   8.660 -0.4903  0.9890 -1.4355
15231SOL     OW50539   5.492   9.253   4.641  0.4733 -0.1092 -0.2339
15231SOL    HW150540   5.398   9.257   4.661  0.2792  2.5704 -1.2152
15231SOL    HW250541   5.533   9.303   4.711  1.3971 -2.2520  0.8546
15232SOL     OW50542   5.967   7.772   3.844  0.2527  0.3341  0.1959
15232SOL    HW150543   5.881   7.732   3.849 -0.4475  1.7866  0.3645
15232SOL    HW250544   6.016   7.734   3.917 -0.3589 -0.2386  0.3171
15233SOL     OW50545   4.960   9.655   3.075 -0.8598  0.0433 -0.9129
15233SOL    HW150546   4.946   9.746   3.102 -1.9240 -0.3764  0.0218
15233SOL    HW250547   5.028   9.623   3.135 -0.7757  0.1001 -0.9774
15234SOL     OW50548   5.352   7.435   7.614 -0.7994  0.7096 -0.6733
15234SOL    HW150549   5.265   7.468   7.635 -1.6178 -2.3969  1.5246
15234SOL    HW250550   5.410   7.510   7.627 -2.8055  2.1130  0.7119
15235SOL     OW50551   3.429   7.545   8.374 -0.2288  0.4219 -0.3850
15235SOL    HW150552   3.436   7.640   8.381  0.3678  0.3802 -0.3247
15235SOL    HW250553   3.384   7.530   8.291 -0.5187  0.7617 -0.2900
15236SOL     OW50554   8.052   8.013   7.589  0.2196 -0.1737  0.3357
15236SOL    HW150555   8.027   8.064   7.666 -0.3599 -0.7265  0.5183
15236SOL    HW250556   8.006   8.054   7.516 -0.2049 -0.4017  0.4745
15237SOL     OW50557   3.488   7.400   7.293 -0.0974  0.2223  0.9539
15237SOL    HW150558   3.521   7.468   7.352  0.7372 -2.2377  3.6002
15237SOL    HW250559   3.443   7.338   7.351 -1.4236 -1.1573 -1.3958
15238SOL     OW50560   6.965   7.314   5.306  0.2247 -0.0039 -0.6818
15238SOL    HW150561   7.050   7.317   5.349 -0.1436 -0.7233  0.1316
15238SOL    HW250562   6.978   7.360   5.223  0.6508  2.5409  0.6781
15239SOL     OW50563   3.783   4.629   0.020  0.3366  0.2480  0.3192
15239SOL    HW150564   3.864   4.666   0.055  1.0596 -0.7372 -0.2520
15239SOL    HW250565   3.769   4.549   0.070  0.0729  0.0715 -0.0264
15240SOL     OW50566   5.091   7.758   9.684  0.5621 -0.4586  0.5167
15240SOL    HW150567   5.114   7.684   9.628  0.2483  0.2701 -0.5987
15240SOL    HW250568   5.006   7.787   9.651 -0.0266 -0.5285  1.9142
15241SOL     OW50569   5.436   5.907   9.301  0.1081  0.7065  0.1000
15241SOL    HW150570   5.473   5.821   9.280 -1.0030 -0.1738  1.5798
15241SOL    HW250571   5.450   5.917   9.395 -0.3971  1.8519  0.0724
15242SOL     OW50572   3.739   7.926   5.810  0.0614  0.4537 -0.1024
15242SOL    HW150573   3.649   7.896   5.798  0.1129  0.3746 -0.2894
15242SOL    HW250574   3.738   8.016   5.778 -0.0452  0.5878  0.2712
15243SOL     OW50575   3.707   6.489   8.885 -0.0238  0.1658  0.3245
15243SOL    HW150576   3.690   6.525   8.798  0.6718  0.5131  0.3298
15243SOL    HW250577   3.656   6.544   8.945  0.0853  0.3871  0.2129
15244SOL     OW50578   5.285   6.989   8.579  0.5623  0.2660 -0.0342
15244SOL    HW150579   5.246   6.935   8.648 -0.2809  1.5568  0.5378
15244SOL    HW250580   5.260   6.944   8.498 -0.2210 -0.1513  0.4170
15245SOL     OW50581   0.834   6.067   9.502 -0.2982  0.0891  0.5466
15245SOL    HW150582   0.908   6.101   9.552  2.4593  0.4723 -3.4007
15245SOL    HW250583   0.850   5.973   9.496  1.0500  0.4136 -1.8890
15246SOL     OW50584   3.420   7.023   9.172  0.0237 -0.0643 -0.2663
15246SOL    HW150585   3.326   7.004   9.177 -0.1889  0.6355 -1.2696
15246SOL    HW250586   3.453   7.005   9.260 -0.8100 -1.5327 -0.2137
15247SOL     OW50587   4.050   8.342   4.596  0.4670  0.4482 -0.2452
15247SOL    HW150588   3.979   8.388   4.551  0.2968 -0.9045 -1.4188
15247SOL    HW250589   4.005   8.282   4.655  0.6902  1.6850  1.2614
15248SOL     OW50590   5.609   7.413   6.168 -0.2257 -0.2348  0.2172
15248SOL    HW150591   5.516   7.403   6.148 -0.9247 -2.4112  3.5652
15248SOL    HW250592   5.653   7.353   6.108 -1.1197 -0.1186 -0.5731
15249SOL     OW50593   7.868   9.790   4.767 -0.2836  0.4669 -0.7401
15249SOL    HW150594   7.923   9.714   4.751  0.3949  0.6032  0.8237
15249SOL    HW250595   7.900   9.856   4.706  0.2932  0.0607 -0.8869
15250SOL     OW50596   3.442   8.518   6.885 -0.8548  0.2848  0.9624
15250SOL    HW150597   3.354   8.535   6.918 -1.2552 -1.8233  1.1561
15250SOL    HW250598   3.481   8.459   6.950  0.3899  0.5046  0.4456
15251SOL     OW50599   4.273   8.682   7.675  0.3256  0.4659  0.0125
15251SOL    HW150600   4.346   8.625   7.651  0.2077 -0.0808  0.8951
15251SOL    HW250601   4.291   8.765   7.630  0.4855 -0.2598 -1.2980
15252SOL     OW50602   6.301   5.464   8.442  0.1062 -0.4108  0.3702
15252SOL    HW150603   6.351   5.537   8.479  2.1000 -1.4554 -0.1495
15252SOL    HW250604   6.266   5.498   8.360  0.9609  0.0101  0.1691
15253SOL     OW50605   5.266   6.614   7.114 -0.2877  0.8499  0.4710
15253SOL    HW150606   5.266   6.653   7.201 -0.1145 -2.2889  2.0199
15253SOL    HW250607   5.173   6.607   7.091 -0.3175  2.2084  0.0893
15254SOL     OW50608   2.614   5.917   6.530  0.2620 -0.5102 -0.2051
15254SOL    HW150609   2.593   5.943   6.620 -0.5967  0.1167 -0.5705
15254SOL    HW250610   2.531   5.884   6.495  0.6509 -0.9902 -0.6875
15255SOL     OW50611   2.416   5.658   9.086  0.0332 -0.5043  0.0456
15255SOL    HW150612   2.422   5.568   9.054  0.2273 -1.0565  1.5597
15255SOL    HW250613   2.343   5.656   9.149  0.2237  0.3250  0.2986
15256SOL     OW50614   4.244   6.812   8.214 -0.1095  0.0249  0.2212
15256SOL    HW150615   4.207   6.892   8.253 -0.6219 -0.4200  0.6786
15256SOL    HW250616   4.236   6.746   8.284  0.8296 -0.2873  0.0488
15257SOL     OW50617   6.669   6.953   3.376  0.5001  0.3024 -0.0816
15257SOL    HW150618   6.722   6.911   3.444 -0.2187  0.0586  0.3391
15257SOL    HW250619   6.707   6.921   3.294  2.0712  1.4353  0.1473
15258SOL     OW50620   4.497   6.643   7.547  0.1747  0.1185 -0.0931
15258SOL    HW150621   4.559   6.572   7.530  0.6865  0.7195 -0.8094
15258SOL    HW250622   4.444   6.612   7.621  2.4144  0.3050  1.6800
15259SOL     OW50623   3.297   7.407   5.797  0.1071 -0.0872  0.1244
15259SOL    HW150624   3.359   7.339   5.822  1.0531  1.3027  1.8104
15259SOL    HW250625   3.296   7.404   5.701  1.4275 -1.3192  0.1065
15260SOL     OW50626   5.463   5.834   0.480 -0.1379 -0.1253  0.1572
15260SOL    HW150627   5.488   5.903   0.419 -0.0354  0.6550  1.0590
15260SOL    HW250628   5.473   5.753   0.431  1.1584  0.4001 -0.4648
15261SOL     OW50629   4.804   4.302   6.891 -0.1091 -0.1720  0.3673
15261SOL    HW150630   4.782   4.384   6.935 -0.1353 -0.3600  0.7055
15261SOL    HW250631   4.899   4.305   6.881 -0.0800 -0.2195  0.6198
15262SOL     OW50632   5.428   6.992   5.790 -0.1184 -0.1359 -0.5413
15262SOL    HW150633   5.370   6.933   5.838 -0.1670  0.0694 -0.3477
15262SOL    HW250634   5.428   7.073   5.841  1.3897 -0.5721  0.2022
15263SOL     OW50635   6.776   7.798   6.165  0.0453 -0.0906 -0.3534
15263SOL    HW150636   6.864   7.817   6.199 -0.1436 -1.0036  0.7155
15263SOL    HW250637   6.790   7.728   6.101 -0.1114 -1.8833  1.4859
15264SOL     OW50638   6.809   8.556   8.313  0.4607 -0.6672 -0.2599
15264SOL    HW150639   6.779   8.642   8.342 -0.4313 -1.0808  0.0604
15264SOL    HW250640   6.729   8.506   8.296  0.8844 -2.2493  1.9522
15265SOL     OW50641   4.072   6.088   7.858  0.0005 -0.1385 -0.4776
15265SOL    HW150642   4.087   6.083   7.764 -0.7325 -0.0268 -0.6095
15265SOL    HW250643   4.043   6.178   7.874 -0.5356 -0.3453 -0.2540
15266SOL     OW50644   7.742   7.606   5.526  0.0183  0.0415 -0.4603
15266SOL    HW150645   7.827   7.621   5.485 -0.1683 -2.7449 -2.1037
15266SOL    HW250646   7.732   7.511   5.527 -2.4221  0.2203  1.1693
15267SOL     OW50647   3.404   5.632   8.400 -0.1842 -0.1183 -0.5539
15267SOL    HW150648   3.315   5.612   8.369 -0.1636 -0.8537 -0.1842
15267SOL    HW250649   3.446   5.546   8.407 -0.7976 -0.2730  3.3298
15268SOL     OW50650   4.736   4.981   9.522 -0.0770 -0.4514  0.2051
15268SOL    HW150651   4.692   4.897   9.534  3.8589 -2.9612 -0.9457
15268SOL    HW250652   4.705   5.012   9.437 -1.2243 -0.9771  0.4173
15269SOL     OW50653   7.366   5.776   7.516  0.5118  0.0746 -0.1226
15269SOL    HW150654   7.450   5.821   7.510 -0.2907  1.6023 -0.4788
15269SOL    HW250655   7.343   5.779   7.609 -0.1595  1.6587 -0.3109
15270SOL     OW50656   3.453   5.972   8.192  0.3514 -0.0333  0.3582
15270SOL    HW150657   3.478   6.062   8.174  2.4491 -1.0408 -2.4394
15270SOL    HW250658   3.364   5.964   8.159  0.3298  0.8865  0.1707
15271SOL     OW50659   1.753   8.020   7.339 -0.9271  0.3614  0.6113
15271SOL    HW150660   1.771   7.967   7.417  1.2153 -0.1388 -0.1598
15271SOL    HW250661   1.837   8.061   7.318 -1.4102  0.3648 -1.5139
15272SOL     OW50662   4.546   7.152   6.998 -0.0650 -0.5151  0.4297
15272SOL    HW150663   4.586   7.168   6.913  1.1111  0.2036  1.0937
15272SOL    HW250664   4.492   7.230   7.014 -1.3697 -1.2454 -0.2259
15273SOL     OW50665   4.545   7.755   7.656 -0.3327  0.7119 -0.3407
15273SOL    HW150666   4.631   7.734   7.693 -0.3760  0.6584 -0.2688
15273SOL    HW250667   4.556   7.744   7.562 -1.0104 -2.2011 -0.1739
15274SOL     OW50668   3.988   5.145   7.883 -0.4998  0.1938  0.5213
15274SOL    HW150669   3.908   5.096   7.901 -1.3965  1.5765  0.4637
15274SOL    HW250670   4.047   5.081   7.843 -1.1577 -1.1185  1.5599
15275SOL     OW50671   2.446   6.298   8.088  0.1586  0.5761  0.0174
15275SOL    HW150672   2.455   6.388   8.055  0.5838  0.2389 -0.8126
15275SOL    HW250673   2.535   6.262   8.083 -0.3048 -0.4365 -1.2702
15276SOL     OW50674   6.442   6.322   6.237 -0.4338  0.2590 -0.4514
15276SOL    HW150675   6.525   6.370   6.228 -0.7875  0.5702 -2.5633
15276SOL    HW250676   6.467   6.236   6.269  0.5391  0.8332  0.3952
15277SOL     OW50677   4.042   9.745   7.424  0.4238  0.1429 -0.4555
15277SOL    HW150678   3.993   9.696   7.359  2.1014 -1.0557 -0.8869
15277SOL    HW250679   4.090   9.811   7.374  0.2783  0.4470 -0.1989
15278SOL     OW50680   8.370   7.463   4.343 -0.2066  0.7444 -0.3209
15278SOL    HW150681   8.433   7.483   4.413 -0.5509  0.8482 -0.0348
15278SOL    HW250682   8.327   7.382   4.372  1.7917 -0.9844 -1.8945
15279SOL     OW50683   3.752   5.248   9.479  0.1415 -0.4244  0.0881
15279SOL    HW150684   3.845   5.265   9.462 -0.0359  0.7049  0.1529
15279SOL    HW250685   3.747   5.230   9.572  0.1993  0.3064  0.2375
15280SOL     OW50686   2.221   6.723   6.139 -0.3971 -0.1974  0.1943
15280SOL    HW150687   2.286   6.683   6.197  1.5811  0.4831 -1.4392
15280SOL    HW250688   2.158   6.654   6.122  0.3536 -1.1515  1.1471
15281SOL     OW50689   5.945   6.121   8.363 -0.1486 -0.1677 -0.2256
15281SOL    HW150690   5.918   6.120   8.455  0.6576  1.1635  0.0572
15281SOL    HW250691   5.938   6.213   8.337  1.2215 -0.2663 -1.0089
15282SOL     OW50692   4.705   6.592   4.949 -0.1759  0.1111 -0.1487
15282SOL    HW150693   4.696   6.637   4.866  0.1312  1.0868  0.3376
15282SOL    HW250694   4.691   6.499   4.928  1.0503  0.1976 -1.4834
15283SOL     OW50695   5.465   6.149   7.844  0.8733 -0.1900 -0.5871
15283SOL    HW150696   5.419   6.222   7.884  2.4196  0.5005  0.0003
15283SOL    HW250697   5.454   6.077   7.906  2.1989  0.5255  0.5200
15284SOL     OW50698   3.000   6.742   9.021  0.2022 -0.2154  0.7281
15284SOL    HW150699   2.965   6.823   9.057  0.9540  1.0743 -1.2781
15284SOL    HW250700   2.962   6.736   8.933  1.2878 -1.2649  0.2938
15285SOL     OW50701   3.825   7.105   7.494 -0.2480 -0.6619  0.7469
15285SOL    HW150702   3.804   7.047   7.567 -0.1643 -0.6898  0.7492
15285SOL    HW250703   3.803   7.193   7.526 -0.9946 -0.7535  0.5152
15286SOL     OW50704   7.008   7.568   8.824 -0.4021  0.2157  0.4499
15286SOL    HW150705   7.039   7.560   8.914 -1.9241  0.3421  1.0236
15286SOL    HW250706   7.077   7.528   8.771  2.1418  3.1578  1.2941
15287SOL     OW50707   4.788   6.347   7.265  0.4333  0.0150  0.4267
15287SOL    HW150708   4.696   6.322   7.251  0.0008  1.9214 -0.5035
15287SOL    HW250709   4.837   6.267   7.247 -0.9267 -0.5622 -1.0492
15288SOL     OW50710   5.041   9.625   5.744  0.0998  0.6401  0.4870
15288SOL    HW150711   4.993   9.707   5.736  0.2712  0.9011  1.8489
15288SOL    HW250712   4.976   9.557   5.726  0.3627  1.0517 -2.4795
15289SOL     OW50713   4.721   8.778   7.489 -0.1695 -0.0111 -0.3141
15289SOL    HW150714   4.742   8.694   7.449  0.0563  0.7805 -1.9162
15289SOL    HW250715   4.722   8.760   7.583  0.2929 -1.6939 -0.6044
15290SOL     OW50716   5.824   6.610   6.521 -0.2525 -0.3938  0.4412
15290SOL    HW150717   5.802   6.574   6.435  1.8399 -1.2187  0.1970
15290SOL    HW250718   5.915   6.584   6.536 -0.0654  1.0539  2.2421
15291SOL     OW50719   5.215   7.196   4.933 -0.0867 -0.4658  0.1989
15291SOL    HW150720   5.154   7.178   4.862  0.7766 -1.6041 -0.2890
15291SOL    HW250721   5.257   7.278   4.910  1.0092 -1.3807 -1.2360
15292SOL     OW50722   5.259   5.458   7.047 -0.2725 -0.2082 -0.1646
15292SOL    HW150723   5.208   5.378   7.057 -0.1802 -0.2893 -0.3459
15292SOL    HW250724   5.340   5.431   7.005  0.7084 -0.3666  1.7004
15293SOL     OW50725   4.269   6.451   7.321 -0.3965  0.0442 -0.1975
15293SOL    HW150726   4.276   6.407   7.406 -0.9867 -0.2038 -0.2748
15293SOL    HW250727   4.240   6.540   7.342 -1.9003 -0.4202 -0.2228
15294SOL     OW50728   5.826   7.802   8.262 -0.1857  0.0567  0.1984
15294SOL    HW150729   5.871   7.736   8.314  0.6432  0.9572  0.6388
15294SOL    HW250730   5.763   7.842   8.323  0.9309  1.2564  0.6112
15295SOL     OW50731   5.106   9.581   3.832  0.3036  0.1924 -0.0400
15295SOL    HW150732   5.021   9.577   3.788 -0.1872 -0.2280  0.9330
15295SOL    HW250733   5.115   9.496   3.874  1.5162 -0.0169 -0.6709
15296SOL     OW50734   6.758   6.438   5.855 -0.0470  0.3752 -0.4329
15296SOL    HW150735   6.717   6.362   5.895  1.2349 -1.1617 -1.8709
15296SOL    HW250736   6.778   6.496   5.929  0.7576 -1.5917  1.0000
15297SOL     OW50737   3.387   6.758   7.336 -0.1709 -0.0281  0.0734
15297SOL    HW150738   3.392   6.834   7.395  0.0382 -0.8042  1.0920
15297SOL    HW250739   3.476   6.723   7.336 -0.7392 -1.5856  1.4313
15298SOL     OW50740   4.239   7.959   6.183 -0.1559  0.2888  0.2791
15298SOL    HW150741   4.180   8.027   6.215 -0.2506  1.6067 -2.4454
15298SOL    HW250742   4.282   7.998   6.107 -2.0222 -3.4349 -3.0100
15299SOL     OW50743   5.797   8.040   7.124 -0.0813 -0.0410 -0.1800
15299SOL    HW150744   5.790   8.080   7.211 -0.7273  0.4143 -0.4363
15299SOL    HW250745   5.885   8.063   7.095 -0.8733  2.3954 -0.8794
15300SOL     OW50746   3.335   9.821   4.274 -0.4728  0.2696 -0.0045
15300SOL    HW150747   3.384   9.739   4.276 -1.1272 -0.1228  0.1339
15300SOL    HW250748   3.260   9.806   4.332 -2.6380 -0.3508 -2.7606
15301SOL     OW50749   5.026   8.816   7.041  0.8786 -0.0279  0.0794
15301SOL    HW150750   4.970   8.891   7.022  0.2808 -0.2793  0.7629
15301SOL    HW250751   4.999   8.750   6.977 -2.8877 -1.7577  3.0010
15302SOL     OW50752   7.221   4.989   8.441  0.6205  0.0691 -0.1042
15302SOL    HW150753   7.254   4.917   8.494  1.3673  1.4411  1.3522
15302SOL    HW250754   7.286   5.058   8.449 -0.2114  1.0430 -1.2288
15303SOL     OW50755   1.146   5.423   6.110  0.2816  0.1358  0.4927
15303SOL    HW150756   1.231   5.381   6.118 -0.5030 -1.6139  0.1110
15303SOL    HW250757   1.117   5.403   6.021  0.8275  3.4788 -0.5636
15304SOL     OW50758   3.285   0.022   6.567 -0.5338  0.3861  0.5880
15304SOL    HW150759   3.323  -0.061   6.538 -1.7038  0.3503 -0.9908
15304SOL    HW250760   3.350   0.059   6.627  1.1910 -0.4631 -0.6788
15305SOL     OW50761   4.653   6.833   8.516  0.3163 -0.0797 -0.3738
15305SOL    HW150762   4.619   6.804   8.601  1.6206  0.2160  0.2819
15305SOL    HW250763   4.748   6.835   8.528  0.4276  2.1926 -1.1002
15306SOL     OW50764   5.552   8.757   5.898  0.0515  0.1104  0.0247
15306SOL    HW150765   5.544   8.785   5.989 -2.0412  2.4805 -0.7611
15306SOL    HW250766   5.607   8.824   5.857 -0.1405 -0.1657 -0.7101
15307SOL     OW50767   3.818   8.135   6.145  0.5806  0.2958 -0.1997
15307SOL    HW150768   3.747   8.123   6.208 -0.3593 -1.6880 -1.5393
15307SOL    HW250769   3.896   8.146   6.199 -0.6251  1.9530  1.3111
15308SOL     OW50770   4.136   8.724   6.175  0.1436  0.3325  0.5640
15308SOL    HW150771   4.074   8.792   6.147 -0.9660 -0.5043  0.9279
15308SOL    HW250772   4.221   8.757   6.147 -0.4076  1.7195  0.4354
15309SOL     OW50773   6.306   7.481   5.835  0.3166  0.3997 -0.5508
15309SOL    HW150774   6.243   7.434   5.889 -0.3267  0.2121 -1.4304
15309SOL    HW250775   6.286   7.574   5.850  1.4919  0.4279  1.0726
15310SOL     OW50776   4.104   4.463   7.804  0.4953  0.2929 -0.0240
15310SOL    HW150777   4.070   4.379   7.776  1.1027  0.0319  0.0105
15310SOL    HW250778   4.031   4.524   7.791  0.0421 -0.2409 -0.0055
15311SOL     OW50779   5.828   9.377   6.843 -0.0530  0.2329  0.1295
15311SOL    HW150780   5.807   9.466   6.872  3.0155  0.4917  2.0062
15311SOL    HW250781   5.846   9.329   6.924  2.7672 -0.8140 -0.9996
15312SOL     OW50782   1.799   3.610   7.364 -0.7626 -0.5643  0.1100
15312SOL    HW150783   1.837   3.578   7.446  0.5445 -1.2531 -0.7243
15312SOL    HW250784   1.775   3.531   7.316 -0.8781 -0.1953 -0.4492
15313SOL     OW50785   8.755   7.246   7.670  0.4668 -0.0452  0.1341
15313SOL    HW150786   8.741   7.246   7.575  1.5793 -0.1245 -0.0446
15313SOL    HW250787   8.802   7.328   7.687  1.6209 -0.7459  0.3928
15314SOL     OW50788   3.946   8.651   6.844  0.3419  0.1426  0.4130
15314SOL    HW150789   3.908   8.643   6.757 -0.7340 -1.2615  0.9747
15314SOL    HW250790   4.039   8.630   6.832  0.8071  2.6357 -0.8048
15315SOL     OW50791   2.201   7.236   4.394 -0.4066 -0.1877 -0.3317
15315SOL    HW150792   2.275   7.187   4.358 -0.9746 -1.0514 -0.3546
15315SOL    HW250793   2.235   7.275   4.475  0.4439  0.5256 -1.0216
15316SOL     OW50794   3.206   5.442   8.182 -0.1638  0.7632 -0.0387
15316SOL    HW150795   3.293   5.404   8.172 -0.1301  1.3904 -3.6056
15316SOL    HW250796   3.146   5.368   8.175  0.0307  0.5298  0.7105
15317SOL     OW50797   2.291   4.609   2.461 -0.1071 -0.8420  0.8896
15317SOL    HW150798   2.206   4.569   2.445 -0.3496 -0.1824  0.4963
15317SOL    HW250799   2.276   4.703   2.455  0.8259 -0.7267 -0.2026
15318SOL     OW50800   6.547   6.536   7.170  0.0292  0.5007  0.0078
15318SOL    HW150801   6.582   6.615   7.128 -0.1071  1.4358  1.5738
15318SOL    HW250802   6.622   6.499   7.217  0.1147 -0.3876 -0.7893
15319SOL     OW50803   3.516   6.043   1.358  0.5271  0.4479  0.1514
15319SOL    HW150804   3.459   6.114   1.328 -1.9668 -1.2204  0.5500
15319SOL    HW250805   3.577   6.084   1.419 -0.1094  2.4106 -0.4790
15320SOL     OW50806   4.853   6.586   4.637 -0.2438 -0.4770 -0.3377
15320SOL    HW150807   4.764   6.552   4.624 -0.7934  0.9479 -0.5224
15320SOL    HW250808   4.885   6.603   4.548  0.1723 -0.8709 -0.2664
15321SOL     OW50809   1.841   7.984   8.745  0.2118 -0.1943  0.3635
15321SOL    HW150810   1.782   7.971   8.670  0.1244  0.7316  0.2632
15321SOL    HW250811   1.786   8.022   8.813  0.2761 -1.0867  0.9439
15322SOL     OW50812   3.956   7.361   7.711 -0.0476 -0.7098  1.4979
15322SOL    HW150813   4.031   7.360   7.770  1.4729 -0.9605 -0.3106
15322SOL    HW250814   3.991   7.396   7.629 -2.1603  0.0611  0.8584
15323SOL     OW50815   2.003   7.499   8.308 -0.8446  0.1476  0.5189
15323SOL    HW150816   2.015   7.491   8.402 -0.1592  1.4541  0.5559
15323SOL    HW250817   1.959   7.583   8.296  1.4973  1.3468 -0.4516
15324SOL     OW50818   5.447   8.194   7.850 -0.0313 -0.0624  0.1086
15324SOL    HW150819   5.460   8.120   7.790  1.9662  0.0583  0.3555
15324SOL    HW250820   5.479   8.270   7.802  0.2580  0.2564  0.7990
15325SOL     OW50821   8.298   4.060   5.433  0.6509  0.9287 -0.0232
15325SOL    HW150822   8.287   4.102   5.518  0.2068 -0.2218  0.5170
15325SOL    HW250823   8.211   4.026   5.412  1.2964 -1.0728  0.3294
15326SOL     OW50824   4.881   7.680   8.000  0.3745  0.6530  0.0230
15326SOL    HW150825   4.853   7.590   8.017 -0.4423  1.3729  2.8535
15326SOL    HW250826   4.804   7.734   8.018  0.5618  1.9569 -2.5110
15327SOL     OW50827   5.877   5.582   6.652  0.4871  0.2537 -0.2677
15327SOL    HW150828   5.846   5.533   6.728  1.7576 -0.8580 -0.4256
15327SOL    HW250829   5.966   5.550   6.638  0.6924  1.3003 -1.5139
15328SOL     OW50830   7.725   4.199   7.148  0.0482 -0.0012  0.0806
15328SOL    HW150831   7.638   4.208   7.186  0.3077  2.3940  0.3161
15328SOL    HW250832   7.785   4.213   7.222  0.6848 -1.9647 -0.0069
15329SOL     OW50833   3.920   7.843   7.442  0.0688  0.1709 -0.2234
15329SOL    HW150834   3.826   7.857   7.451  0.1374  0.5429 -0.0427
15329SOL    HW250835   3.936   7.757   7.481  0.0943  0.9982  1.6864
15330SOL     OW50836   1.129   6.723   7.244 -0.3697  0.7185  0.1216
15330SOL    HW150837   1.137   6.755   7.154  1.0140  1.1674  0.3781
15330SOL    HW250838   1.208   6.670   7.258 -0.2883  1.1046  1.2467
15331SOL     OW50839   4.120   9.793   7.040 -0.4071  0.1665  0.7263
15331SOL    HW150840   4.155   9.794   6.952 -0.3352 -0.8115  0.7307
15331SOL    HW250841   4.071   9.710   7.046 -1.1205  0.6077  1.3279
15332SOL     OW50842   6.087   4.703   7.161  0.2820 -0.1808  0.1881
15332SOL    HW150843   6.147   4.777   7.174  1.2439 -0.8877 -0.0790
15332SOL    HW250844   6.140   4.626   7.182 -1.2093 -0.7388  2.3330
15333SOL     OW50845   1.951   6.701   7.367 -0.1482  0.1942 -0.0026
15333SOL    HW150846   1.962   6.694   7.462 -2.3806 -0.4784  0.2530
15333SOL    HW250847   1.917   6.615   7.341 -3.1117  1.5159 -0.8150
15334SOL     OW50848   3.147   7.923   5.640 -0.3465  0.3528 -0.5900
15334SOL    HW150849   3.057   7.891   5.649  0.4214 -1.7534  0.1221
15334SOL    HW250850   3.157   7.989   5.709 -0.9747 -0.2848  0.1195
15335SOL     OW50851   2.911   6.310   8.750 -0.2252  0.2505 -0.2067
15335SOL    HW150852   2.876   6.364   8.820 -1.2424  0.8608 -1.1350
15335SOL    HW250853   3.006   6.316   8.758 -0.3250  1.7274  0.0461
15336SOL     OW50854   4.809   6.580   8.143  0.1335 -0.5016  0.5010
15336SOL    HW150855   4.722   6.600   8.107 -0.4560 -0.6313  1.8122
15336SOL    HW250856   4.791   6.533   8.224  1.3178  2.5754  2.7186
15337SOL     OW50857   3.548   6.890   5.809  0.7365 -0.2915  0.2902
15337SOL    HW150858   3.532   6.984   5.822 -0.8967  0.0186 -2.9701
15337SOL    HW250859   3.578   6.884   5.718 -0.7879 -3.0795 -0.1168
15338SOL     OW50860   5.923   6.273   6.744 -0.2187 -0.1204  0.7114
15338SOL    HW150861   5.891   6.258   6.833  0.3836 -0.6270  0.8557
15338SOL    HW250862   5.927   6.185   6.705 -2.3174  0.2401 -0.4947
15339SOL     OW50863   3.856   7.523   8.209 -0.7787 -0.0226 -0.0183
15339SOL    HW150864   3.817   7.610   8.219  0.8094  0.8173 -0.7544
15339SOL    HW250865   3.859   7.509   8.114  1.2312  0.2428 -0.0445
15340SOL     OW50866   2.414   7.195   7.518 -1.2116 -0.1966  0.1029
15340SOL    HW150867   2.400   7.232   7.431 -2.6255  0.1660  0.4504
15340SOL    HW250868   2.441   7.269   7.572  0.1126 -0.5048 -0.0991
15341SOL     OW50869   1.907   5.643   8.480 -0.4460  0.1894  0.4254
15341SOL    HW150870   1.826   5.694   8.488 -1.0680 -0.6806 -0.1410
15341SOL    HW250871   1.976   5.709   8.472 -0.9412  0.9837  2.0828
15342SOL     OW50872   2.830   7.452   7.349  0.0810 -0.6340 -0.0779
15342SOL    HW150873   2.761   7.451   7.416  0.0093  0.3511 -0.1216
15342SOL    HW250874   2.862   7.362   7.347 -1.7170 -1.3089 -0.5862
15343SOL     OW50875   5.931   7.779   7.263 -0.0630 -0.5573  0.2737
15343SOL    HW150876   5.840   7.791   7.287 -0.0705 -0.6182  0.2751
15343SOL    HW250877   5.942   7.831   7.183 -1.6146 -5.0506 -3.2979
15344SOL     OW50878   9.386   5.164   6.329 -0.0418 -0.6252 -0.1343
15344SOL    HW150879   9.319   5.114   6.376 -0.8974  2.0283  1.7891
15344SOL    HW250880   9.465   5.154   6.382 -0.0692 -0.4476 -0.0564
15345SOL     OW50881   3.005   4.901   7.845  0.2379  0.3725 -0.2616
15345SOL    HW150882   2.951   4.979   7.861 -2.1115 -0.8591 -1.5899
15345SOL    HW250883   3.074   4.931   7.787  0.1261  1.7208  0.2676
15346SOL     OW50884   4.408   7.120   7.461  0.3579  0.3215  0.2285
15346SOL    HW150885   4.487   7.173   7.470  0.2727  0.4993 -0.0510
15346SOL    HW250886   4.347   7.158   7.524  0.1484  0.8376 -0.2730
15347SOL     OW50887   5.656   7.523   6.766 -0.2257  0.5406 -0.1989
15347SOL    HW150888   5.694   7.577   6.836  0.9081 -1.0719  0.4908
15347SOL    HW250889   5.562   7.527   6.781 -0.0245  0.5492  1.1717
15348SOL     OW50890   6.490   7.427   7.630 -0.3729 -0.3416 -0.4304
15348SOL    HW150891   6.454   7.515   7.642  0.1446 -0.1823 -0.0503
15348SOL    HW250892   6.581   7.433   7.658  0.0591 -0.6691 -1.6788
15349SOL     OW50893   3.474   7.374   9.300  0.3399 -0.6513  0.4657
15349SOL    HW150894   3.518   7.345   9.380 -1.4377 -1.0953  1.3385
15349SOL    HW250895   3.407   7.307   9.284 -0.6056  0.4352 -0.2866
15350SOL     OW50896   3.053   8.700   2.607 -0.3066  0.6659 -0.1908
15350SOL    HW150897   2.982   8.750   2.568  0.2710  0.7096 -1.2121
15350SOL    HW250898   3.129   8.758   2.603 -0.2362  0.6968  1.0675
15351SOL     OW50899   5.610   9.056   5.274  0.8483  0.3310  0.3256
15351SOL    HW150900   5.643   9.000   5.345  0.3101  0.5890  0.7886
15351SOL    HW250901   5.684   9.113   5.252  0.3131  1.8854  2.3320
15352SOL     OW50902   2.223   8.827   7.956 -0.2469  0.1718  0.3708
15352SOL    HW150903   2.165   8.779   8.016  0.9806  0.2980  1.7397
15352SOL    HW250904   2.287   8.868   8.014 -0.3602  2.2482 -0.8735
15353SOL     OW50905   3.616   4.663   7.727 -0.0441  0.1532  0.1044
15353SOL    HW150906   3.645   4.753   7.745 -0.4900  0.3564 -0.1764
15353SOL    HW250907   3.602   4.624   7.814 -0.5664  0.5948  0.2255
15354SOL     OW50908   2.413   7.054   0.829 -0.3701 -0.5456 -0.5638
15354SOL    HW150909   2.463   7.127   0.791 -0.6700 -0.4509 -0.7789
15354SOL    HW250910   2.447   7.047   0.918  0.2321 -0.6705 -0.7956
15355SOL     OW50911   4.058   7.180   6.454  0.3566 -0.1471  0.1254
15355SOL    HW150912   4.046   7.091   6.421  1.1453  0.2555 -1.3708
15355SOL    HW250913   4.036   7.175   6.547  0.4007 -1.8934  0.0720
15356SOL     OW50914   8.383   9.621   6.393 -0.1341 -0.1593  0.3846
15356SOL    HW150915   8.390   9.525   6.397  0.6459 -0.0779  3.1571
15356SOL    HW250916   8.441   9.646   6.322 -0.0318 -1.7340 -0.1225
15357SOL     OW50917   3.385   8.192   6.446  0.3714 -0.0966  0.1093
15357SOL    HW150918   3.351   8.209   6.534 -0.0668  0.1868 -0.1121
15357SOL    HW250919   3.361   8.101   6.428 -0.3956  0.1378 -0.0951
15358SOL     OW50920   4.511   6.942   1.082 -0.6456  0.1402 -1.1019
15358SOL    HW150921   4.554   6.896   1.010 -1.5642 -1.6393 -0.5818
15358SOL    HW250922   4.486   6.872   1.143 -1.1296  1.4630  0.2808
15359SOL     OW50923   3.469   7.759   8.686 -0.3638  0.2396  0.1766
15359SOL    HW150924   3.556   7.721   8.695 -0.8482 -1.0162 -0.1684
15359SOL    HW250925   3.430   7.753   8.773 -0.2273  0.4690  0.2519
15360SOL     OW50926   6.465   6.862   2.144  0.1312 -0.3856  0.1824
15360SOL    HW150927   6.534   6.809   2.103  0.8063  0.1641  0.5917
15360SOL    HW250928   6.412   6.894   2.071  0.1568 -1.0197 -0.1174
15361SOL     OW50929   3.964   7.888   7.109 -0.2188 -0.0175 -0.3648
15361SOL    HW150930   3.989   7.900   7.201 -0.0789  0.2674 -0.4379
15361SOL    HW250931   3.869   7.900   7.108 -0.4115 -1.3884 -0.0403
15362SOL     OW50932   5.612   6.637   1.018  0.3426  0.7242 -0.0800
15362SOL    HW150933   5.554   6.602   1.086  0.9431  0.9700  0.5598
15362SOL    HW250934   5.664   6.562   0.990 -0.5865  0.3858 -1.0014
15363SOL     OW50935   5.716   6.329   8.948  0.4010 -0.1074 -0.3844
15363SOL    HW150936   5.718   6.395   9.017  1.4962 -0.7842  0.2538
15363SOL    HW250937   5.725   6.379   8.867 -0.0715  0.6204 -0.0033
15364SOL     OW50938   6.978   5.640   7.442 -0.1415  0.2036 -0.3999
15364SOL    HW150939   7.033   5.713   7.413 -1.7655  1.1488 -1.2185
15364SOL    HW250940   7.033   5.563   7.432  1.9524  1.3502  1.3130
15365SOL     OW50941   5.673   4.831   8.482  0.5005 -0.1809 -0.2343
15365SOL    HW150942   5.579   4.817   8.496  0.1828  0.4316 -1.5904
15365SOL    HW250943   5.707   4.745   8.457 -0.1261  0.0219 -1.8588
15366SOL     OW50944   5.948   5.030   9.034  0.2482 -0.1401  0.2558
15366SOL    HW150945   6.026   4.987   8.999  1.9062  1.5385  1.7213
15366SOL    HW250946   5.981   5.096   9.094 -2.1530  2.8572 -1.4410
15367SOL     OW50947   1.690   8.692   9.681 -0.8192  0.0372 -0.3232
15367SOL    HW150948   1.687   8.785   9.704 -1.8989 -0.1366  0.2988
15367SOL    HW250949   1.601   8.661   9.695 -0.3632 -1.2145 -0.0619
15368SOL     OW50950   2.496   5.861   0.048  0.7100  0.3130  0.2840
15368SOL    HW150951   2.462   5.772   0.050  0.9545  0.2094 -0.1069
15368SOL    HW250952   2.476   5.892  -0.040  1.8676  0.1542 -0.0410
15369SOL     OW50953   3.579   6.284   6.567  0.3052  0.8750  0.2200
15369SOL    HW150954   3.495   6.324   6.588 -0.5019 -0.1506 -0.9293
15369SOL    HW250955   3.576   6.269   6.473  2.3032  1.9538 -0.0584
15370SOL     OW50956   3.524   8.098   9.090  0.0820  0.6753 -0.4336
15370SOL    HW150957   3.446   8.051   9.061  0.6607 -0.1006 -0.7615
15370SOL    HW250958   3.585   8.092   9.016  0.9001  0.2337  0.2606
15371SOL     OW50959   3.759   8.562   9.586 -0.0796 -0.3289  0.0774
15371SOL    HW150960   3.668   8.578   9.564 -0.9160 -3.4034  0.7250
15371SOL    HW250961   3.776   8.473   9.554  1.9081 -0.8017  2.1294
15372SOL     OW50962   4.028   5.283   7.434  0.0857 -0.2067  0.2081
15372SOL    HW150963   4.014   5.307   7.343 -1.0199 -1.6754 -0.0574
15372SOL    HW250964   4.034   5.366   7.481  1.7366  0.5864 -1.3209
15373SOL     OW50965   3.548   6.273   9.042  0.0100  0.5686 -0.2104
15373SOL    HW150966   3.508   6.195   9.081  0.7219  0.5004  0.4145
15373SOL    HW250967   3.537   6.262   8.948  0.8768 -0.7211 -0.1805
15374SOL     OW50968   6.972   7.749   8.571  0.5812 -0.4746  0.1524
15374SOL    HW150969   7.040   7.740   8.638  0.5981 -2.2392 -0.0545
15374SOL    HW250970   7.019   7.768   8.490  0.6229  0.7802  0.4512
15375SOL     OW50971   2.982   9.089   8.241  0.2002  0.3240  0.0184
15375SOL    HW150972   3.020   9.175   8.227 -2.6765  1.8492  0.7485
15375SOL    HW250973   2.985   9.077   8.336 -1.4007  0.6736  0.1349
15376SOL     OW50974   4.885   7.506   6.281  0.8012 -0.1704  0.1278
15376SOL    HW150975   4.971   7.531   6.315  0.4846  0.0054  0.8115
15376SOL    HW250976   4.826   7.573   6.316  0.3461 -0.4405 -0.1271
15377SOL     OW50977   5.346   5.538   8.016 -1.0765 -0.2102 -0.3811
15377SOL    HW150978   5.436   5.507   8.017 -1.1527 -0.6002 -2.1932
15377SOL    HW250979   5.347   5.617   8.070 -0.0596 -1.2038  1.1082
15378SOL     OW50980   3.078   6.582   8.418 -0.4243  0.3542 -0.0386
15378SOL    HW150981   3.058   6.595   8.325 -1.8477 -1.7527 -0.1061
15378SOL    HW250982   3.085   6.487   8.427  2.7677  0.6173  1.4671
15379SOL     OW50983   4.702   4.193   7.433  0.0847  0.6251 -0.5728
15379SOL    HW150984   4.786   4.238   7.445  0.9330 -0.6400 -1.4940
15379SOL    HW250985   4.659   4.241   7.363  1.0223 -0.0055 -1.6130
15380SOL     OW50986   5.821   7.173   7.496 -0.1325  0.2899  0.4246
15380SOL    HW150987   5.808   7.236   7.425 -1.1456 -0.1026  0.2427
15380SOL    HW250988   5.739   7.175   7.545 -0.1435 -0.8074  0.4747
15381SOL     OW50989   3.667   3.979   8.729  0.0407  0.0434 -0.3091
15381SOL    HW150990   3.689   4.051   8.788 -0.5295 -0.6968  0.8552
15381SOL    HW250991   3.730   3.986   8.657  1.0620  0.7000  0.6270
15382SOL     OW50992   2.948   8.383   7.054 -0.1563 -0.0283 -0.0171
15382SOL    HW150993   2.967   8.474   7.079 -1.4615  0.2388  0.0634
15382SOL    HW250994   2.971   8.331   7.131  0.2116  0.2834  0.0830
15383SOL     OW50995   6.421   6.327   7.515 -0.9011 -0.3978  0.4778
15383SOL    HW150996   6.468   6.376   7.447  1.0065 -1.9560  0.5981
15383SOL    HW250997   6.417   6.237   7.482  0.8699 -1.4079  2.7257
15384SOL     OW50998   5.965   8.452   7.933 -0.3521  0.5518 -0.1218
15384SOL    HW150999   5.960   8.359   7.910 -0.5614  0.2013  1.2179
15384SOL    HW251000   5.884   8.468   7.982  0.7519  0.8081  1.7214
15385SOL     OW51001   4.134   7.063   1.480  0.7403 -0.3325  0.2273
15385SOL    HW151002   4.120   6.969   1.497 -0.6971  0.2973  3.2251
15385SOL    HW251003   4.126   7.104   1.566 -0.8194  2.7925 -1.2401
15386SOL     OW51004   5.158   7.263   6.496  0.1838  0.1710 -0.3340
15386SOL    HW151005   5.178   7.265   6.403 -2.3153  0.5419 -0.9388
15386SOL    HW251006   5.133   7.353   6.518  3.1944  0.7326  1.3982
15387SOL     OW51007   6.054   8.502   6.523 -0.1493  0.0726 -0.6055
15387SOL    HW151008   6.143   8.514   6.490  0.3863  0.9168  1.0679
15387SOL    HW251009   6.008   8.457   6.452  1.2059  0.9369 -2.0899
15388SOL     OW51010   2.740   8.673   5.860 -0.2672 -0.3359 -0.4625
15388SOL    HW151011   2.734   8.583   5.892  0.0853 -0.9094 -1.9328
15388SOL    HW251012   2.820   8.707   5.900 -0.3592 -0.7017  0.0414
15389SOL     OW51013   5.399   7.563   8.842 -0.0748  0.0838 -0.5693
15389SOL    HW151014   5.362   7.560   8.930 -2.3780  2.4747 -1.3166
15389SOL    HW251015   5.346   7.500   8.792  0.7104 -0.6980 -0.4247
15390SOL     OW51016   4.556   3.291   6.700  0.1667 -0.6333 -0.3801
15390SOL    HW151017   4.625   3.259   6.758  0.3091 -0.0657 -0.2286
15390SOL    HW251018   4.482   3.309   6.758  0.2614 -0.2007 -0.3873
15391SOL     OW51019   5.148   6.331   7.665  0.6415  0.0881  0.0235
15391SOL    HW151020   5.212   6.400   7.680  1.1344 -0.4587  0.4749
15391SOL    HW251021   5.091   6.366   7.596  1.8236  0.3097 -0.8734
15392SOL     OW51022   5.194   5.700   9.361 -0.2636  0.2383  0.1454
15392SOL    HW151023   5.191   5.724   9.453 -2.3595 -1.0057  0.4713
15392SOL    HW251024   5.285   5.672   9.346  0.5231  1.9426  1.3731
15393SOL     OW51025   4.944   5.757   0.043 -0.6833 -0.1043 -0.2520
15393SOL    HW151026   5.011   5.691   0.063 -1.1725 -0.7592 -0.7511
15393SOL    HW251027   4.959   5.826   0.107  0.8649  0.0410 -0.7353
15394SOL     OW51028   2.987   4.811   6.392  0.2924 -0.0986 -0.5218
15394SOL    HW151029   2.961   4.721   6.375  0.9330 -0.3626 -0.1332
15394SOL    HW251030   2.924   4.864   6.343 -1.8869 -0.6480  1.5521
15395SOL     OW51031   2.005   4.209   7.051 -0.0559  0.7029  0.4434
15395SOL    HW151032   1.947   4.279   7.082 -1.5620 -1.5781  3.3124
15395SOL    HW251033   1.954   4.165   6.983  0.3993  1.6240 -0.5145
15396SOL     OW51034   5.588   5.709   7.059  1.1401  0.0043  0.2725
15396SOL    HW151035   5.667   5.703   7.113 -0.0084 -0.9300  1.9521
15396SOL    HW251036   5.536   5.633   7.084  0.5501 -0.5242 -2.2640
15397SOL     OW51037   6.723   6.263   8.836 -0.4743  0.0868  0.2766
15397SOL    HW151038   6.708   6.351   8.802 -1.6447 -0.1762  0.0692
15397SOL    HW251039   6.681   6.263   8.922 -0.1322 -0.1532  0.4458
15398SOL     OW51040   4.139   6.593   9.685 -0.0982  0.1297  0.7303
15398SOL    HW151041   4.207   6.587   9.751 -0.7569  0.4380  1.4609
15398SOL    HW251042   4.061   6.623   9.733 -0.6813  0.0351 -0.1191
15399SOL     OW51043   5.539   4.791   7.069 -0.6887 -0.0371 -0.0066
15399SOL    HW151044   5.586   4.717   7.031 -1.3845 -1.2110  1.3160
15399SOL    HW251045   5.604   4.861   7.075  0.1778 -0.7769 -0.6039
15400SOL     OW51046   2.754   5.341   7.402  0.0386  0.3561  0.2700
15400SOL    HW151047   2.781   5.309   7.316 -1.2132  4.2053 -1.7677
15400SOL    HW251048   2.836   5.364   7.446  0.7402 -2.2537  0.5363
15401SOL     OW51049   4.923   8.257   7.081  0.4056 -0.4828  0.0380
15401SOL    HW151050   4.958   8.171   7.059  0.1459 -0.6738  0.3664
15401SOL    HW251051   4.882   8.288   7.000  0.8813 -0.4730 -0.2081
15402SOL     OW51052   5.282   5.813   7.722 -0.2941 -0.0322 -0.5963
15402SOL    HW151053   5.216   5.882   7.709  0.7958  0.7674 -2.2244
15402SOL    HW251054   5.365   5.859   7.723  0.2929 -1.0650  1.1619
15403SOL     OW51055   4.704   7.155   8.519  0.3820  0.3784 -0.3787
15403SOL    HW151056   4.753   7.076   8.499 -1.4687 -1.3149  1.2772
15403SOL    HW251057   4.629   7.152   8.459  0.0590  0.6291  0.0091
15404SOL     OW51058   3.423   8.923   0.372 -0.0273  0.2632  0.0174
15404SOL    HW151059   3.339   8.891   0.341  1.0763 -0.6769 -2.3326
15404SOL    HW251060   3.419   9.018   0.358  0.1223 -0.0295 -2.5855
15405SOL     OW51061   3.297   6.317   8.196  0.4731 -0.3106 -0.3791
15405SOL    HW151062   3.322   6.303   8.288  0.1277  1.0058 -0.0646
15405SOL    HW251063   3.284   6.411   8.189  1.6116 -0.2493 -2.0918
15406SOL     OW51064   7.205   6.753   0.436  0.5781  0.3848  0.0261
15406SOL    HW151065   7.149   6.766   0.512  0.8329  1.5842  0.0358
15406SOL    HW251066   7.259   6.678   0.458 -0.7879 -0.5991  0.1506
15407SOL     OW51067   3.830   5.872   0.161 -0.3515  0.2257  0.0993
15407SOL    HW151068   3.903   5.934   0.153  2.3086 -2.6617  0.0841
15407SOL    HW251069   3.792   5.892   0.247  1.1517  1.1645  0.5924
15408SOL     OW51070   4.988   7.397   7.802  0.1131  0.6740 -0.5550
15408SOL    HW151071   5.055   7.462   7.822  0.6314  0.6409 -2.1056
15408SOL    HW251072   4.992   7.336   7.876  1.8328  0.6446 -0.6345
15409SOL     OW51073   2.896   5.273   0.453  0.0396 -0.1496  0.1126
15409SOL    HW151074   2.860   5.308   0.371 -0.5189 -0.4553  0.2216
15409SOL    HW251075   2.980   5.234   0.428 -0.5852 -1.1306 -0.5029
15410SOL     OW51076   7.382   5.596   9.532  0.6697  0.0085  0.4593
15410SOL    HW151077   7.471   5.609   9.564  0.7012 -1.2248  0.9401
15410SOL    HW251078   7.336   5.556   9.606 -0.1357  0.1468  0.0380
15411SOL     OW51079   3.385   7.568   9.588 -0.1610  0.3136 -0.1036
15411SOL    HW151080   3.383   7.648   9.642  1.4928  0.2515  0.0978
15411SOL    HW251081   3.451   7.513   9.630 -0.1560 -0.5112 -1.1661
15412SOL     OW51082   4.433   6.369   0.107 -0.5576 -0.1373 -0.5026
15412SOL    HW151083   4.465   6.347   0.020 -1.3451 -0.7015 -0.6626
15412SOL    HW251084   4.368   6.438   0.092  0.5761  1.0398 -0.1768
15413SOL     OW51085   2.914   0.099   7.411 -0.3095  0.0613 -0.5257
15413SOL    HW151086   2.853   0.168   7.386 -3.0553 -1.8172  0.5108
15413SOL    HW251087   2.897   0.084   7.504  0.0477 -2.0578 -0.7463
15414SOL     OW51088   4.306   9.237   8.684  0.1003  0.2598 -0.8397
15414SOL    HW151089   4.235   9.274   8.737  0.6530  0.1279  0.0005
15414SOL    HW251090   4.282   9.259   8.594  0.0107  1.9615 -0.4324
15415SOL     OW51091   3.897   6.114   9.226 -0.0611 -0.1037 -0.1768
15415SOL    HW151092   3.867   6.091   9.314 -0.7407 -2.2485 -0.9203
15415SOL    HW251093   3.979   6.162   9.241  0.8418 -2.0321  1.5702
15416SOL     OW51094   4.750   6.184   7.938 -0.2095  0.0170 -0.1489
15416SOL    HW151095   4.756   6.104   7.886  0.2171 -0.5258  0.7228
15416SOL    HW251096   4.839   6.219   7.940 -0.5803  1.1765 -1.5006
15417SOL     OW51097   4.606   5.791   6.951 -0.1136  0.3277 -0.3834
15417SOL    HW151098   4.536   5.819   6.892 -1.3391  0.3345  1.0122
15417SOL    HW251099   4.608   5.696   6.943 -1.0869  0.2217  0.3949
15418SOL     OW51100   4.616   6.951   0.049  0.2858 -0.4373  0.1238
15418SOL    HW151101   4.593   6.861   0.029  0.7156 -0.4558 -0.3100
15418SOL    HW251102   4.635   6.951   0.143 -0.9133 -0.5316  0.3719
15419SOL     OW51103   4.073   7.096   1.206 -0.4056  0.0730 -0.2917
15419SOL    HW151104   4.102   7.067   1.292 -0.3861 -0.1865 -0.3862
15419SOL    HW251105   4.147   7.079   1.148 -0.3828  0.3381 -0.3414
15420SOL     OW51106   4.677   5.841   9.214  0.1016  0.4333  0.4481
15420SOL    HW151107   4.704   5.929   9.190  1.6670 -0.3625 -0.9254
15420SOL    HW251108   4.708   5.829   9.304  1.4397  0.7070  0.0399
15421SOL     OW51109   4.995   6.424   7.472  0.2072  0.3143  0.2699
15421SOL    HW151110   4.906   6.437   7.504 -0.1582  1.0275 -1.0051
15421SOL    HW251111   5.010   6.495   7.410  1.2798 -0.4190 -0.3524
15422SOL     OW51112   6.878   6.610   7.191 -0.2414 -0.1437  0.2323
15422SOL    HW151113   6.866   6.701   7.164 -2.3292 -0.5157 -0.2443
15422SOL    HW251114   6.868   6.611   7.286  2.4070  0.4526  0.6020
15423SOL     OW51115   2.765   3.800   9.268 -0.5033 -0.2708 -0.3458
15423SOL    HW151116   2.686   3.784   9.217 -1.0362  1.1301 -0.0225
15423SOL    HW251117   2.768   3.895   9.279  0.4788 -0.4023  0.8278
15424SOL     OW51118   4.589   6.920   7.723  0.2143 -0.9698 -0.1908
15424SOL    HW151119   4.631   6.951   7.642 -0.8580 -0.4198 -0.5622
15424SOL    HW251120   4.535   6.846   7.694 -0.5396 -0.4749 -0.0790
15425SOL     OW51121   4.599   6.646   9.674 -0.2033 -0.5395 -0.0225
15425SOL    HW151122   4.688   6.631   9.707  0.9661  2.8594 -1.2503
15425SOL    HW251123   4.545   6.648   9.753  1.3064  0.1553  1.0396
15426SOL     OW51124   4.319   6.863   8.639 -0.1903  0.3458  0.1578
15426SOL    HW151125   4.382   6.921   8.681 -1.5839  0.1371  2.7349
15426SOL    HW251126   4.259   6.922   8.592  0.1322  0.7586  0.2618
15427SOL     OW51127   4.367   5.720   7.172  0.0426 -0.0196 -0.5232
15427SOL    HW151128   4.444   5.702   7.118  0.3843 -0.9752  0.2589
15427SOL    HW251129   4.381   5.809   7.205  0.5810 -0.0170 -0.7597
15428SOL     OW51130   2.848   8.245   8.109  0.2629 -0.3161  0.2797
15428SOL    HW151131   2.810   8.221   8.025  0.1873  2.7723 -0.6899
15428SOL    HW251132   2.942   8.249   8.093  0.3266 -0.5696  0.5857
15429SOL     OW51133   2.549   7.774   9.392  0.3966 -0.5749  0.1240
15429SOL    HW151134   2.636   7.736   9.409  0.0348 -1.2446  0.5152
15429SOL    HW251135   2.564   7.838   9.322  0.9692 -1.6671 -0.7930
15430SOL     OW51136   8.045   7.582   8.350  0.3220 -0.2780 -0.3803
15430SOL    HW151137   8.100   7.560   8.425 -0.6627  1.1349  0.8176
15430SOL    HW251138   8.034   7.677   8.355 -1.7462 -0.4387 -0.9059
15431SOL     OW51139   4.135   6.916   7.691 -0.0189 -0.4316  0.5187
15431SOL    HW151140   4.075   6.842   7.681 -0.1238 -0.1803 -0.9374
15431SOL    HW251141   4.130   6.938   7.784 -1.5964 -0.9067  0.5878
15432SOL     OW51142   3.719   5.985   7.875 -0.0500  0.3688 -0.2766
15432SOL    HW151143   3.745   5.894   7.859 -1.8095 -0.4978  1.4451
15432SOL    HW251144   3.628   5.989   7.845 -0.4176  1.1839  0.8959
15433SOL     OW51145   3.033   5.879   8.205  0.4913  0.3439  1.1438
15433SOL    HW151146   2.937   5.884   8.203  0.3331 -1.9413  0.0128
15433SOL    HW251147   3.053   5.833   8.287  0.7230  1.6876  1.8715
15434SOL     OW51148   6.427   3.376   1.126 -0.3355  0.1642  0.1364
15434SOL    HW151149   6.352   3.373   1.067  0.0831 -0.3690 -0.3889
15434SOL    HW251150   6.500   3.401   1.069 -0.3310  2.0351  0.8834
15435SOL     OW51151   4.180   6.687   8.453  0.2594  0.2071  0.0391
15435SOL    HW151152   4.215   6.600   8.473  0.9644  0.1329 -1.3624
15435SOL    HW251153   4.210   6.742   8.525 -1.0988 -0.9055  1.5121
15436SOL     OW51154   4.825   8.195   7.808  0.0174  0.2220  0.0994
15436SOL    HW151155   4.886   8.267   7.797  0.5337  0.0348  1.4532
15436SOL    HW251156   4.805   8.165   7.719  2.6333 -0.3119 -0.3759
15437SOL     OW51157   5.756   5.261   8.031  0.2699  0.4534 -0.3567
15437SOL    HW151158   5.686   5.202   8.060 -1.0908  1.6427 -1.0830
15437SOL    HW251159   5.715   5.348   8.029  1.4937  1.0495 -1.7388
15438SOL     OW51160   7.131   6.701   7.814  0.4989 -0.3421  0.2146
15438SOL    HW151161   7.153   6.638   7.745  0.0523 -1.4929  1.0921
15438SOL    HW251162   7.036   6.711   7.809  0.4356 -0.6029  0.7941
15439SOL     OW51163   5.534   7.829   8.408  0.2423  0.2377 -0.2576
15439SOL    HW151164   5.468   7.884   8.365  1.0061  0.6324 -0.9747
15439SOL    HW251165   5.509   7.829   8.500 -0.6019  0.5999 -0.4763
15440SOL     OW51166   5.552   6.614   9.654  0.4215  0.0885  0.7805
15440SOL    HW151167   5.555   6.612   9.750 -0.3373  3.2395  0.9853
15440SOL    HW251168   5.629   6.666   9.629  0.6223 -0.7219 -0.3555
15441SOL     OW51169   4.752   7.353   8.706  0.8984  0.5074 -0.3620
15441SOL    HW151170   4.677   7.413   8.702 -0.5833 -1.2639 -0.4125
15441SOL    HW251171   4.738   7.293   8.632  3.0387  0.8427 -1.1012
15442SOL     OW51172   4.265   5.421   8.296 -0.5238 -0.1507 -0.6125
15442SOL    HW151173   4.284   5.394   8.206 -0.4993 -2.9778  0.1463
15442SOL    HW251174   4.175   5.391   8.311  0.1732 -1.6528  0.9021
15443SOL     OW51175   4.297   6.314   7.964 -0.1323 -0.3515 -0.3234
15443SOL    HW151176   4.388   6.330   7.992 -0.2459  0.5821 -0.4641
15443SOL    HW251177   4.273   6.393   7.915 -1.1169 -0.4781 -0.0518
15444SOL     OW51178   4.379   7.101   9.629 -0.1728  0.3091  0.2516
15444SOL    HW151179   4.375   7.182   9.578 -0.2565  0.3544  0.3301
15444SOL    HW251180   4.371   7.130   9.720  1.4765  0.3780  0.4080
15445SOL     OW51181   4.829   7.387   7.071  0.3636 -0.1811  0.2925
15445SOL    HW151182   4.786   7.394   6.986  1.2025  0.3957 -0.1007
15445SOL    HW251183   4.795   7.306   7.109 -0.9085  0.1583 -0.0839
15446SOL     OW51184   4.730   6.514   8.396 -0.6819  0.7807  0.3919
15446SOL    HW151185   4.766   6.433   8.434  0.2134  1.1077  0.2740
15446SOL    HW251186   4.637   6.495   8.384 -0.4051 -0.4034 -0.0560
15447SOL     OW51187   3.157   8.379   7.357 -0.3568 -0.3371  0.4185
15447SOL    HW151188   3.137   8.421   7.441 -0.7895  0.0469  0.1241
15447SOL    HW251189   3.088   8.314   7.346 -0.4797 -0.1719  0.2117
15448SOL     OW51190   7.352   5.799   7.790  0.2868 -0.5014 -0.2961
15448SOL    HW151191   7.439   5.832   7.811  0.8757 -1.4633 -1.1186
15448SOL    HW251192   7.300   5.816   7.868  1.3550 -0.4000  0.4154
15449SOL     OW51193   4.135   5.826   9.120  0.2014  0.6646 -0.5157
15449SOL    HW151194   4.181   5.909   9.114  1.1498  0.1614 -0.5022
15449SOL    HW251195   4.183   5.768   9.061 -1.8653  0.7266 -2.3536
15450SOL     OW51196   4.329   5.693   8.984  0.1751  0.0235  0.5901
15450SOL    HW151197   4.367   5.777   8.956 -1.4452  0.4732 -0.4138
15450SOL    HW251198   4.403   5.645   9.022  1.4304  1.3702 -0.0200
15451SOL     OW51199   3.703   8.002   7.122 -0.3848 -0.3140 -0.1509
15451SOL    HW151200   3.725   8.071   7.186 -0.9602 -1.0467  0.8643
15451SOL    HW251201   3.720   8.043   7.037 -0.0383  0.8504  0.4450
15452SOL     OW51202   4.478   6.439   8.409 -0.5088  0.3100  0.3088
15452SOL    HW151203   4.487   6.349   8.378  0.4530  0.5021 -0.0100
15452SOL    HW251204   4.444   6.430   8.498 -0.0587 -0.3840  0.4204
15453SOL     OW51205   4.789   6.560   1.400 -0.0880  0.1259  0.2444
15453SOL    HW151206   4.698   6.569   1.427 -0.2353 -1.5686  0.4126
15453SOL    HW251207   4.839   6.611   1.464 -0.5992 -2.1705  2.6611
15454SOL     OW51208   3.676   6.190   8.354 -0.1806 -0.2194  0.4290
15454SOL    HW151209   3.758   6.237   8.339 -1.5923  2.3710  0.1667
15454SOL    HW251210   3.643   6.170   8.266  0.3710 -1.7413  0.5378
15455SOL     OW51211   4.990   4.340   0.905  0.2410  0.0140  0.0816
15455SOL    HW151212   5.056   4.407   0.926  0.1860  0.2398 -0.4534
15455SOL    HW251213   4.941   4.377   0.831  0.2036 -0.6133 -0.2091
15456SOL     OW51214   5.924   8.891   7.096 -0.1816  0.5109  0.3492
15456SOL    HW151215   5.973   8.884   7.178 -0.0207  1.6781  0.3670
15456SOL    HW251216   5.833   8.900   7.123 -0.0330  1.8695  0.4546
15457SOL     OW51217   4.581   7.564   8.627 -0.3286 -0.0831 -0.0995
15457SOL    HW151218   4.623   7.644   8.658  2.9298 -1.2591 -1.1454
15457SOL    HW251219   4.603   7.559   8.534 -0.9249 -1.9134 -0.1881
15458SOL     OW51220   5.443   8.105   9.523  0.1803  0.2552 -0.0807
15458SOL    HW151221   5.364   8.052   9.535  1.4994 -1.8913 -0.2257
15458SOL    HW251222   5.469   8.131   9.611  0.7127 -1.2737  0.2444
15459SOL     OW51223   5.160   7.442   8.195 -0.6874 -0.2392 -0.2021
15459SOL    HW151224   5.148   7.452   8.100  0.2690  1.0761 -0.2039
15459SOL    HW251225   5.210   7.519   8.221  0.4395 -1.3770  1.1223
15460SOL     OW51226   4.389   5.227   9.265 -0.0440  0.0892  0.2062
15460SOL    HW151227   4.483   5.227   9.279 -0.1484 -0.4941  0.9997
15460SOL    HW251228   4.360   5.141   9.297 -0.7510 -0.0360 -0.7078
15461SOL     OW51229   5.582   5.064   7.187  0.5403  0.1223  0.7410
15461SOL    HW151230   5.584   5.043   7.281  0.9505 -2.4245  0.2563
15461SOL    HW251231   5.490   5.056   7.162  0.6433 -0.9890  0.6363
15462SOL     OW51232   3.041   5.372   0.088 -0.2674  0.0376 -0.1715
15462SOL    HW151233   3.092   5.381   0.008 -0.7099 -0.5291 -0.5340
15462SOL    HW251234   2.988   5.452   0.093 -0.9968 -0.3727 -1.0118
15463SOL     OW51235   4.253   7.384   9.305  0.2274 -0.0942 -0.2004
15463SOL    HW151236   4.162   7.355   9.311  0.1022  0.5161  1.4429
15463SOL    HW251237   4.249   7.479   9.318  1.0184  0.0780 -1.1211
15464SOL     OW51238   5.874   5.881   8.256 -0.1754 -0.7136  0.7964
15464SOL    HW151239   5.911   5.959   8.298  1.0690 -1.1941  0.6129
15464SOL    HW251240   5.803   5.915   8.201  0.7354  0.3638  0.2606
15465SOL     OW51241   3.948   6.340   7.265  0.3055  0.1287  1.0174
15465SOL    HW151242   3.963   6.251   7.297  0.7690  0.4686  1.7822
15465SOL    HW251243   3.966   6.396   7.341 -0.4042  0.8489  0.6731
15466SOL     OW51244   2.803   7.272   7.833  0.1766  0.4170  0.4603
15466SOL    HW151245   2.880   7.324   7.856  0.2234  0.2210  0.7478
15466SOL    HW251246   2.763   7.249   7.917  2.0331 -2.9098  0.6076
15467SOL     OW51247   3.220   6.333   9.217 -0.2885  0.0091 -0.0525
15467SOL    HW151248   3.211   6.361   9.125 -0.4398  0.8338  0.2034
15467SOL    HW251249   3.178   6.403   9.267 -1.0798 -0.9066  0.5947
15468SOL     OW51250   4.851   9.368   6.926  0.0883 -0.2176  0.4446
15468SOL    HW151251   4.877   9.340   7.014 -0.5411 -0.0910  0.6741
15468SOL    HW251252   4.933   9.376   6.879  0.5832  1.2711  1.4760
15469SOL     OW51253   2.768   5.972   0.700  0.4214 -0.4812  0.0248
15469SOL    HW151254   2.752   5.988   0.793  1.3677  0.4802  0.0396
15469SOL    HW251255   2.712   6.035   0.655  0.3759 -0.5704 -0.0433
15470SOL     OW51256   2.424   7.412   6.407  0.2262  0.1600  0.3211
15470SOL    HW151257   2.382   7.363   6.477 -0.9963  1.7840  0.7842
15470SOL    HW251258   2.462   7.488   6.450 -0.0041  0.8591 -0.6693
15471SOL     OW51259   6.101   6.685   9.424 -0.1810 -0.1873  0.2243
15471SOL    HW151260   6.086   6.714   9.514  0.5075 -0.0199  0.2906
15471SOL    HW251261   6.036   6.733   9.372  0.8792  1.4532  0.3424
15472SOL     OW51262   5.560   8.621   8.931 -0.4134  0.2593  0.5123
15472SOL    HW151263   5.536   8.613   9.023  0.9962 -0.3479  0.8639
15472SOL    HW251264   5.554   8.715   8.912 -0.8665  0.3685  1.1766
15473SOL     OW51265   6.001   6.130   8.067 -0.0439 -0.1398 -0.2072
15473SOL    HW151266   5.916   6.085   8.068  0.2208 -0.6690 -0.7642
15473SOL    HW251267   5.996   6.191   8.140 -1.1104  0.2142 -0.5462
15474SOL     OW51268   5.375   6.518   0.198 -0.2983 -0.3774 -0.0991
15474SOL    HW151269   5.378   6.424   0.216  1.7405 -0.3581 -0.0894
15474SOL    HW251270   5.371   6.524   0.103  1.5376 -0.5281 -0.2278
15475SOL     OW51271   4.600   6.166   0.571 -0.1883 -0.1243  0.3717
15475SOL    HW151272   4.527   6.228   0.560 -0.3426 -0.6020 -1.8456
15475SOL    HW251273   4.669   6.200   0.513  0.5789 -0.7982  0.8747
15476SOL     OW51274   7.986   5.968   8.718  0.0630 -0.8161  0.2674
15476SOL    HW151275   8.061   5.909   8.726 -0.7878 -1.9040  0.5588
15476SOL    HW251276   8.005   6.022   8.642  2.8074  1.4335  2.3223
15477SOL     OW51277   4.026   8.245   7.299  0.0302 -0.4734 -0.7316
15477SOL    HW151278   4.074   8.179   7.250  1.6605 -0.1341  0.3401
15477SOL    HW251279   4.084   8.269   7.372 -0.3979  2.2375 -1.1615
15478SOL     OW51280   5.898   3.821   8.375  0.0086 -0.2073  0.3416
15478SOL    HW151281   5.942   3.754   8.427 -1.3962 -1.0335  0.5187
15478SOL    HW251282   5.888   3.782   8.288 -1.8144 -0.7221  0.7416
15479SOL     OW51283   2.847   7.254   8.399 -0.3291 -0.5255 -0.3985
15479SOL    HW151284   2.921   7.227   8.346 -0.0959 -0.8221  0.0686
15479SOL    HW251285   2.828   7.343   8.370 -0.1352 -0.6413 -0.8937
15480SOL     OW51286   3.671   6.576   6.382 -0.2832  0.6111  0.5671
15480SOL    HW151287   3.731   6.505   6.408 -0.2972  0.3014 -0.1972
15480SOL    HW251288   3.715   6.616   6.306 -1.2106  0.1295 -0.2480
15481SOL     OW51289   5.482   5.145   7.936  0.1614 -0.2102 -0.4954
15481SOL    HW151290   5.485   5.176   8.027  0.7323  0.1015 -0.6150
15481SOL    HW251291   5.402   5.185   7.900  1.1026  1.5242 -0.7698
15482SOL     OW51292   1.067   4.341   6.952  0.9667  0.5600 -0.1286
15482SOL    HW151293   1.136   4.403   6.927  0.8300  0.4333 -0.8396
15482SOL    HW251294   0.995   4.360   6.892  0.4262  0.6042  0.5312
15483SOL     OW51295   3.807   6.050   9.490 -0.0203 -0.2754  0.0054
15483SOL    HW151296   3.728   6.081   9.533 -0.9676  0.4642 -2.1506
15483SOL    HW251297   3.879   6.094   9.536 -1.0718  1.6175 -0.0933
15484SOL     OW51298   3.227   7.477   7.481 -0.3897 -0.0043  0.8364
15484SOL    HW151299   3.227   7.395   7.530 -0.0150 -0.2634  0.4020
15484SOL    HW251300   3.274   7.539   7.537 -0.1179 -0.2533  0.8853
15485SOL     OW51301   4.740   5.160   7.250  0.2732 -0.7369  0.1195
15485SOL    HW151302   4.674   5.104   7.293 -1.4721 -0.5989 -2.1790
15485SOL    HW251303   4.815   5.159   7.310 -2.0526 -0.2500  3.3037
15486SOL     OW51304   3.039   5.209   0.868  0.1961 -0.4146  0.5415
15486SOL    HW151305   3.124   5.180   0.903  0.7192  0.9435  0.4782
15486SOL    HW251306   3.061   5.257   0.788 -0.5239  0.7759  1.0272
15487SOL     OW51307   4.076   6.874   8.937 -0.6268  0.7404 -0.2479
15487SOL    HW151308   4.076   6.938   8.865 -0.5752  0.3779 -0.5718
15487SOL    HW251309   4.153   6.896   8.988  1.3147 -1.0889 -2.1818
15488SOL     OW51310   6.392   5.797   9.790 -0.3053  0.0587  0.6235
15488SOL    HW151311   6.406   5.873   9.734 -0.9497  0.5678  1.1283
15488SOL    HW251312   6.332   5.741   9.740 -2.2524  1.2899  1.4226
15489SOL     OW51313   1.981   6.053   8.218  0.2111 -0.1928 -0.6370
15489SOL    HW151314   1.920   6.031   8.149 -0.1951 -3.8325  0.6539
15489SOL    HW251315   2.067   6.028   8.183  0.3964  0.6598 -0.8151
15490SOL     OW51316   7.029   7.063   6.698  0.1175  0.1183 -0.5998
15490SOL    HW151317   7.007   7.073   6.790 -3.2495 -0.5805 -1.1943
15490SOL    HW251318   7.109   7.010   6.698 -0.5402 -1.0416  1.9258
15491SOL     OW51319   4.418   7.532   0.418  0.2181  0.1920 -0.2786
15491SOL    HW151320   4.483   7.544   0.349  0.5409 -1.0868 -0.2307
15491SOL    HW251321   4.420   7.614   0.467  1.1275  0.5222 -0.8323
15492SOL     OW51322   4.328   7.149   6.321  0.1845  0.0220 -0.3558
15492SOL    HW151323   4.289   7.205   6.253 -0.7585 -0.4525 -0.2178
15492SOL    HW251324   4.264   7.149   6.392  0.4007 -0.8071 -0.1460
15493SOL     OW51325   7.008   6.289   8.050  0.4450 -0.2263  0.2264
15493SOL    HW151326   6.983   6.381   8.036 -0.8527 -0.6078 -0.0630
15493SOL    HW251327   6.935   6.239   8.015  0.7540 -1.3677  1.1679
15494SOL     OW51328   3.870   6.825   7.012  0.1817 -0.5205 -0.1389
15494SOL    HW151329   3.838   6.752   6.959  0.9832 -0.8017 -0.2478
15494SOL    HW251330   3.964   6.812   7.016  0.3420  0.5866 -0.2586
15495SOL     OW51331   2.142   9.177   9.176 -0.1032  0.3463  0.5080
15495SOL    HW151332   2.177   9.174   9.087 -1.0338  1.3177  0.0906
15495SOL    HW251333   2.162   9.266   9.206 -1.5684  0.6948  0.5078
15496SOL     OW51334   3.419   5.505   7.756 -0.2884 -0.0108 -0.4590
15496SOL    HW151335   3.418   5.601   7.759 -0.6964 -0.0221 -0.0571
15496SOL    HW251336   3.507   5.481   7.784 -1.0633  0.1913  2.4649
15497SOL     OW51337   6.239   5.632   0.178 -0.1982 -0.2218  0.5020
15497SOL    HW151338   6.255   5.554   0.232  0.6020 -1.7753 -1.8039
15497SOL    HW251339   6.154   5.615   0.137 -1.9565  2.0364  2.9064
15498SOL     OW51340   3.328   8.909   8.407 -0.4369 -0.2219 -0.2719
15498SOL    HW151341   3.268   8.913   8.332 -1.3919  1.6405  0.5299
15498SOL    HW251342   3.399   8.969   8.383 -0.2320 -0.3986 -0.1045
15499SOL     OW51343   6.633   8.374   1.579 -0.0634  0.4624  0.1744
15499SOL    HW151344   6.705   8.348   1.522 -0.4685  1.9787 -1.1054
15499SOL    HW251345   6.668   8.449   1.628  0.2829 -0.8159  2.0138
15500SOL     OW51346   5.281   7.669   8.274 -0.0964  0.0518 -0.0179
15500SOL    HW151347   5.227   7.690   8.350  0.5619 -2.3258  1.2136
15500SOL    HW251348   5.325   7.751   8.252 -1.4657  1.1628  1.2063
15501SOL     OW51349   3.589   7.188   8.200  0.1910  0.0610 -0.3425
15501SOL    HW151350   3.541   7.251   8.147  0.4856  0.4121 -0.1995
15501SOL    HW251351   3.589   7.107   8.148 -0.3574  0.1198 -0.4370
15502SOL     OW51352   5.296   9.580   6.986  0.8042 -0.1058 -0.1424
15502SOL    HW151353   5.273   9.630   6.908 -0.8764  0.1679  0.4813
15502SOL    HW251354   5.257   9.494   6.971  0.7730 -0.1590  0.2319
15503SOL     OW51355   4.703   6.126   9.252  0.0137  0.4320  0.8113
15503SOL    HW151356   4.618   6.097   9.285  0.1293  0.3292  1.0191
15503SOL    HW251357   4.687   6.146   9.160 -0.1217 -0.0623  0.7245
15504SOL     OW51358   4.149   7.478   0.286 -0.6712 -0.4352  0.5808
15504SOL    HW151359   4.121   7.471   0.377  1.0750 -1.5128  1.0729
15504SOL    HW251360   4.244   7.477   0.289 -0.5608 -0.1461 -1.2453
15505SOL     OW51361   4.553   6.869   8.249 -0.8284 -0.1140 -0.0629
15505SOL    HW151362   4.583   6.842   8.336  0.5756  0.6846 -0.2629
15505SOL    HW251363   4.531   6.787   8.205 -1.0767 -0.5614  0.8696
15506SOL     OW51364   4.811   5.767   8.247  0.0565  0.2266  0.1869
15506SOL    HW151365   4.851   5.837   8.196  0.6579 -0.5903 -0.4888
15506SOL    HW251366   4.736   5.739   8.194  0.0476  0.0956  0.2674
15507SOL     OW51367   3.764   7.126   9.284  0.0821  0.4901 -0.0157
15507SOL    HW151368   3.675   7.101   9.309  0.2262  0.8664  0.9468
15507SOL    HW251369   3.819   7.091   9.354  0.8833 -0.9674 -1.3040
15508SOL     OW51370   5.410   8.034   0.714 -0.0225 -0.4314  0.6334
15508SOL    HW151371   5.440   8.066   0.628  0.6742 -0.9907  0.6617
15508SOL    HW251372   5.448   8.095   0.777  0.4423 -0.7023  0.6181
15509SOL     OW51373   8.015   7.735   7.604  0.0844 -0.6264 -0.0300
15509SOL    HW151374   8.088   7.710   7.548  0.3627 -1.0438  0.5175
15509SOL    HW251375   8.024   7.830   7.614  1.6498 -0.8909  1.5431
15510SOL     OW51376   2.063   5.099   9.160 -0.0286  0.7670  0.3097
15510SOL    HW151377   2.036   5.069   9.073 -1.3195  0.7201  0.7025
15510SOL    HW251378   2.105   5.183   9.144 -1.5288  1.4609 -0.2606
15511SOL     OW51379   2.562   5.531   7.303  0.3630  0.1874  0.3550
15511SOL    HW151380   2.648   5.507   7.266  0.8238  1.9081  0.2228
15511SOL    HW251381   2.554   5.477   7.381  2.1357  0.8316  1.0470
15512SOL     OW51382   6.836   8.304   9.027 -0.5256  0.0109  0.4792
15512SOL    HW151383   6.837   8.219   8.982 -2.0142 -0.2456  0.8998
15512SOL    HW251384   6.905   8.296   9.092 -0.3772 -0.7322  0.2489
15513SOL     OW51385   4.939   7.133   6.644  0.3981  0.3546  0.2742
15513SOL    HW151386   5.029   7.136   6.611  0.3626 -0.6830  0.0260
15513SOL    HW251387   4.893   7.202   6.597  0.4056 -0.9272 -1.7033
15514SOL     OW51388   5.087   7.642   8.560  0.6227  0.4409  0.3084
15514SOL    HW151389   5.110   7.661   8.651 -1.0459  1.4855  0.5662
15514SOL    HW251390   5.049   7.723   8.527 -1.6770 -0.7808 -0.3161
15515SOL     OW51391   2.524   7.911   8.612  0.2887  0.2673 -0.0977
15515SOL    HW151392   2.583   7.839   8.588  0.8396  0.8363 -0.4847
15515SOL    HW251393   2.571   7.990   8.586  0.0377  0.8161  1.0542
15516SOL     OW51394   6.045   7.466   7.671 -0.4769 -0.2784 -0.4526
15516SOL    HW151395   5.969   7.462   7.614 -0.6215  0.5541 -0.3344
15516SOL    HW251396   6.068   7.559   7.674  0.1701 -0.4419  0.0025
15517SOL     OW51397   5.462   5.943   8.065  0.1545 -0.2651 -0.7440
15517SOL    HW151398   5.422   6.005   8.125  0.1709  0.1552 -1.1602
15517SOL    HW251399   5.399   5.872   8.058  0.7449 -0.9720  0.8207
15518SOL     OW51400   3.913   8.140   8.904 -0.3965  0.2746  0.0214
15518SOL    HW151401   3.921   8.220   8.956  1.4595  0.4754 -0.5116
15518SOL    HW251402   3.914   8.171   8.813  0.2711 -0.3349 -0.1877
15519SOL     OW51403   6.763   6.859   0.110 -0.2952 -0.2981  0.0326
15519SOL    HW151404   6.749   6.853   0.015  1.6448  0.2365 -0.3330
15519SOL    HW251405   6.800   6.947   0.123 -1.3714 -0.0246  1.4177
15520SOL     OW51406   3.009   7.897   4.421 -0.2041  0.2782  0.1423
15520SOL    HW151407   3.028   7.896   4.327 -0.2282 -1.5330  0.1199
15520SOL    HW251408   2.937   7.834   4.432  1.3312 -1.3317  1.6468
15521SOL     OW51409   5.583   6.121   7.030 -0.0781  0.0577 -0.2502
15521SOL    HW151410   5.591   6.040   7.082 -0.3870  0.7274  0.8842
15521SOL    HW251411   5.667   6.165   7.041 -0.9646  1.4145  1.8605
15522SOL     OW51412   6.485   7.142   7.641  0.3467 -0.2293 -0.1485
15522SOL    HW151413   6.475   7.237   7.628 -1.4816 -0.4812 -0.8917
15522SOL    HW251414   6.510   7.109   7.555  1.0516 -0.4171  0.1287
15523SOL     OW51415   2.117   6.019   7.785  0.1975 -0.4651  0.4845
15523SOL    HW151416   2.125   6.037   7.691  1.2035 -0.0871  0.6334
15523SOL    HW251417   2.196   5.970   7.806 -0.0381 -0.5663  1.1388
15524SOL     OW51418   4.776   7.175   9.059  0.3931  0.0355 -0.1884
15524SOL    HW151419   4.766   7.269   9.043  0.7357  0.0937 -0.0615
15524SOL    HW251420   4.772   7.166   9.155 -1.8556 -0.3298 -0.2555
15525SOL     OW51421   2.290   6.315   5.286  0.6787  0.0207  0.6030
15525SOL    HW151422   2.238   6.388   5.251  0.6054 -0.4249 -0.2365
15525SOL    HW251423   2.276   6.244   5.224  1.5306 -0.4114  0.8948
15526SOL     OW51424   4.249   9.264   7.861  0.5199  0.2113 -0.3702
15526SOL    HW151425   4.161   9.247   7.892 -0.1781  0.8274 -1.8932
15526SOL    HW251426   4.256   9.359   7.857  1.1288  0.1646 -0.5459
15527SOL     OW51427   4.306   6.093   8.783  0.1714  0.0564  0.4299
15527SOL    HW151428   4.324   6.174   8.833 -0.8133  0.7301 -0.2826
15527SOL    HW251429   4.211   6.088   8.778  0.2414 -0.0982 -1.2159
15528SOL     OW51430   6.963   8.282   7.974 -0.8451 -0.3936  0.1531
15528SOL    HW151431   6.987   8.246   7.888 -1.2250  0.3593 -0.2743
15528SOL    HW251432   6.881   8.328   7.959  0.1659  1.6052  0.4197
15529SOL     OW51433   4.464   6.049   7.327  0.3954 -0.5652  0.0516
15529SOL    HW151434   4.531   6.004   7.276 -0.8070 -1.6127 -0.6715
15529SOL    HW251435   4.415   6.100   7.262  0.5560  0.2934  0.5864
15530SOL     OW51436   3.479   5.587   9.355 -0.4347  0.4691  0.2957
15530SOL    HW151437   3.565   5.625   9.373  0.7086 -1.3424 -1.0191
15530SOL    HW251438   3.462   5.531   9.430  0.3679 -0.5033 -0.2272
15531SOL     OW51439   4.729   7.282   0.188 -0.1676 -0.1747 -0.0593
15531SOL    HW151440   4.720   7.300   0.282  1.0967 -2.9375  0.6608
15531SOL    HW251441   4.709   7.189   0.179  2.1838 -0.5814 -2.1201
15532SOL     OW51442   7.032   8.571   7.671 -0.0116 -0.1256  0.1474
15532SOL    HW151443   7.018   8.589   7.764  2.4042 -0.2635  0.6017
15532SOL    HW251444   7.124   8.591   7.656 -0.2403 -0.5011 -2.1429
15533SOL     OW51445   3.416   8.132   8.407 -0.0598 -0.3234 -0.2168
15533SOL    HW151446   3.387   8.195   8.341 -0.1854  1.0844  1.0980
15533SOL    HW251447   3.506   8.160   8.429  0.4938 -1.6149 -0.7494
15534SOL     OW51448   4.069   6.619   9.040 -0.1325 -0.4014  0.3215
15534SOL    HW151449   4.089   6.693   8.983 -0.9114  0.0641  0.6488
15534SOL    HW251450   4.041   6.658   9.122 -1.2333 -1.0370  0.2706
15535SOL     OW51451   5.096   6.358   8.140  0.2306 -0.2226  0.3105
15535SOL    HW151452   5.013   6.326   8.176  0.8166 -1.0703  0.9536
15535SOL    HW251453   5.091   6.337   8.046 -0.1101 -0.6580  0.4235
15536SOL     OW51454   4.805   0.654   6.382  0.5565 -0.4451 -0.2412
15536SOL    HW151455   4.859   0.643   6.460 -0.8937  0.8154  0.9958
15536SOL    HW251456   4.861   0.622   6.311  1.6508 -2.3761  1.3471
15537SOL     OW51457   4.817   7.668   7.089  0.4905  0.4862 -0.0191
15537SOL    HW151458   4.849   7.579   7.076  0.9630  0.5638  0.5590
15537SOL    HW251459   4.731   7.670   7.046 -0.2100 -0.6831  1.2466
15538SOL     OW51460   3.217   9.506   8.318  0.3613  0.2775  0.0926
15538SOL    HW151461   3.208   9.594   8.356 -0.2255  0.0390  0.5219
15538SOL    HW251462   3.129   9.481   8.293  0.8909  0.9884 -2.7984
15539SOL     OW51463   4.532   8.335   8.225  0.2003  0.5713 -0.4875
15539SOL    HW151464   4.462   8.270   8.237  3.2057 -2.7358  1.0290
15539SOL    HW251465   4.555   8.328   8.132  0.0122 -0.0236 -0.4964
15540SOL     OW51466   5.716   4.402   8.198  0.1239 -0.2426  0.0653
15540SOL    HW151467   5.690   4.310   8.211  1.0643 -0.5659 -0.2753
15540SOL    HW251468   5.807   4.397   8.169  0.2872  0.8236  0.3720
15541SOL     OW51469   3.815   4.739   9.470  0.4917 -0.6441  0.0329
15541SOL    HW151470   3.742   4.794   9.442 -0.1841 -2.7212 -2.7008
15541SOL    HW251471   3.863   4.793   9.533 -1.8693  1.8004 -0.0905
15542SOL     OW51472   6.339   7.386   1.243  0.0844  0.8080  0.6036
15542SOL    HW151473   6.371   7.340   1.321 -2.2519 -0.3188  1.0048
15542SOL    HW251474   6.252   7.350   1.229  0.3080  1.2128 -2.3954
15543SOL     OW51475   6.295   7.475   8.542 -0.1231 -0.1118 -0.7400
15543SOL    HW151476   6.208   7.446   8.513  0.0233 -0.6665 -0.6294
15543SOL    HW251477   6.291   7.471   8.638 -0.2738  0.7448 -0.7067
15544SOL     OW51478   2.054   4.797   7.604  0.1113  0.3336  0.2363
15544SOL    HW151479   2.006   4.830   7.527 -1.3773 -0.2664  0.8635
15544SOL    HW251480   2.049   4.869   7.667 -0.5089  0.0497  0.5184
15545SOL     OW51481   3.398   8.311   8.820 -0.6730 -0.2560 -0.2561
15545SOL    HW151482   3.373   8.395   8.859 -3.1378 -0.5494 -0.9885
15545SOL    HW251483   3.451   8.334   8.744 -1.4288  0.6585 -0.5263
15546SOL     OW51484   4.553   4.153   6.788 -0.2564  0.6166  0.0248
15546SOL    HW151485   4.477   4.176   6.842 -1.4648  2.3774 -2.2187
15546SOL    HW251486   4.622   4.212   6.818 -0.6526  0.9928  0.2172
15547SOL     OW51487   7.015   5.209   7.748  0.2477  0.1782 -0.3561
15547SOL    HW151488   7.025   5.171   7.661  0.5297 -0.5901  0.0038
15547SOL    HW251489   6.937   5.264   7.742 -0.2953 -0.6314 -0.8232
15548SOL     OW51490   5.249   4.719   8.368 -0.1293 -0.3308 -0.1912
15548SOL    HW151491   5.289   4.639   8.332  1.5120  0.7804 -0.9223
15548SOL    HW251492   5.202   4.757   8.294  1.0120  0.5519 -0.4930
15549SOL     OW51493   4.654   7.913   9.038 -0.2582  0.6117  0.3729
15549SOL    HW151494   4.675   7.858   9.113 -0.7970 -2.1910 -1.3938
15549SOL    HW251495   4.566   7.947   9.057 -0.2559  0.1987  1.1490
15550SOL     OW51496   5.149   6.047   7.649  0.6182 -0.0607  0.1113
15550SOL    HW151497   5.053   6.041   7.653  0.5206  1.5030  1.1841
15550SOL    HW251498   5.167   6.140   7.661  2.2070  0.0795 -2.6882
15551SOL     OW51499   5.589   8.369   9.827  0.4537  0.0442  0.0821
15551SOL    HW151500   5.498   8.346   9.843  0.1853  1.1373  0.1918
15551SOL    HW251501   5.639   8.307   9.880 -0.3271  1.8254  3.1760
15552SOL     OW51502   4.557   7.396   6.515 -0.7723 -0.0547 -0.3199
15552SOL    HW151503   4.533   7.419   6.425  0.1566 -1.1078 -0.8633
15552SOL    HW251504   4.551   7.479   6.563 -0.9757  0.5886 -1.4166
15553SOL     OW51505   6.786   4.456   9.494  0.7208  0.4937 -0.7781
15553SOL    HW151506   6.736   4.375   9.501 -0.2691  1.0298 -1.4414
15553SOL    HW251507   6.862   4.443   9.551  0.1952 -0.6070 -0.3168
15554SOL     OW51508   6.890   6.451   7.799 -0.1064 -0.7484  0.2510
15554SOL    HW151509   6.895   6.542   7.769  1.0563 -0.4867  1.1588
15554SOL    HW251510   6.884   6.399   7.719  1.0940  0.0293 -0.3710
15555SOL     OW51511   2.839   6.406   8.523  0.0987  0.0832 -0.0117
15555SOL    HW151512   2.903   6.364   8.464 -0.8866 -0.7189 -0.5465
15555SOL    HW251513   2.872   6.387   8.611  0.4914 -0.5206 -0.2759
15556SOL     OW51514   6.636   4.735   7.027  0.2592  0.6032 -0.4115
15556SOL    HW151515   6.690   4.682   7.085  0.6449  0.5208 -0.8378
15556SOL    HW251516   6.698   4.776   6.967  0.1829  2.8475  0.9025
15557SOL     OW51517   3.945   6.148   6.963  0.2469 -0.0748  0.4321
15557SOL    HW151518   3.901   6.119   7.042  0.0601 -0.3921  0.2139
15557SOL    HW251519   3.875   6.185   6.909 -0.1353 -2.3981 -0.7786
15558SOL     OW51520   8.885   4.941   8.028  0.2372  0.0824  0.9837
15558SOL    HW151521   8.979   4.935   8.045  0.3176  1.9896  1.4047
15558SOL    HW251522   8.874   5.024   7.982 -1.0623 -0.9480 -0.6722
15559SOL     OW51523   1.855   4.827   9.642  0.1770 -0.4290  0.4669
15559SOL    HW151524   1.773   4.874   9.657 -0.7400 -1.8070 -0.0017
15559SOL    HW251525   1.896   4.822   9.728 -0.2863  0.1520  0.7310
15560SOL     OW51526   2.731   4.770   0.352  0.0142  0.3876 -0.9809
15560SOL    HW151527   2.687   4.764   0.437 -0.2025  0.1059 -1.1078
15560SOL    HW251528   2.760   4.680   0.334  1.7360  0.7883 -0.3310
15561SOL     OW51529   3.400   8.249   1.979 -0.3677 -0.3507  0.0295
15561SOL    HW151530   3.474   8.202   2.018  0.4111 -0.9386 -2.0175
15561SOL    HW251531   3.434   8.337   1.963  0.4400 -0.9735 -2.1259
15562SOL     OW51532   4.323   7.809   9.524  0.0809  0.2107 -0.0371
15562SOL    HW151533   4.347   7.777   9.611  2.7281 -0.8595 -1.0672
15562SOL    HW251534   4.348   7.902   9.525 -0.1907  0.2809  0.4422
15563SOL     OW51535   3.505   6.028   6.738 -0.8556  0.1228 -0.4457
15563SOL    HW151536   3.535   6.082   6.665 -1.3660 -0.8139 -1.3802
15563SOL    HW251537   3.409   6.028   6.729 -0.8211 -2.1339 -1.3961
15564SOL     OW51538   6.629   7.728   8.092  0.6015  0.2790  0.4584
15564SOL    HW151539   6.592   7.745   8.006  2.0971  1.5415  0.0100
15564SOL    HW251540   6.711   7.681   8.074  0.7112  0.1613  1.2243
15565SOL     OW51541   4.903   6.472   0.582  0.2650 -0.2861 -0.4382
15565SOL    HW151542   4.820   6.487   0.625  0.1508  0.6717 -0.9733
15565SOL    HW251543   4.883   6.409   0.512 -0.1185  0.3279 -0.8889
15566SOL     OW51544   5.185   5.802   9.646 -0.1692 -0.1144 -0.1935
15566SOL    HW151545   5.122   5.735   9.672 -1.9359  1.7142  0.5267
15566SOL    HW251546   5.235   5.820   9.726 -0.2321 -0.0393 -0.1701
15567SOL     OW51547   6.545   6.136   9.040  0.0953 -0.2345  0.0078
15567SOL    HW151548   6.489   6.060   9.028  0.2737 -0.7457  2.0459
15567SOL    HW251549   6.573   6.131   9.131  3.6236 -0.1119 -0.9143
15568SOL     OW51550   3.734   5.563   9.603  0.0198  0.2521 -0.4079
15568SOL    HW151551   3.639   5.575   9.604 -0.1281 -0.8332  0.7821
15568SOL    HW251552   3.753   5.518   9.521 -0.4061  1.0309 -0.9435
15569SOL     OW51553   6.195   7.183   8.519 -0.1827  0.1130  0.1365
15569SOL    HW151554   6.235   7.201   8.605 -1.0045 -0.8991  0.7506
15569SOL    HW251555   6.264   7.139   8.470 -0.4065 -1.4145  1.1123
15570SOL     OW51556   5.708   5.867   1.152 -0.3662  0.1564 -0.1381
15570SOL    HW151557   5.683   5.957   1.171 -0.0541 -0.2299  2.4548
15570SOL    HW251558   5.747   5.871   1.065  0.4416  2.6804  0.2529
15571SOL     OW51559   2.495   5.875   0.541 -0.3335 -0.5905 -0.0253
15571SOL    HW151560   2.572   5.822   0.521  0.5169 -0.0303  1.5870
15571SOL    HW251561   2.526   5.966   0.531 -1.3057 -0.3605 -1.1320
15572SOL     OW51562   4.499   5.741   0.192  0.0372 -0.3047  0.1056
15572SOL    HW151563   4.447   5.686   0.250 -0.5234 -1.7354 -1.6790
15572SOL    HW251564   4.586   5.702   0.194 -0.2513 -1.0244 -0.8192
15573SOL     OW51565   4.881   6.189   8.196 -0.1909 -0.0332  0.3267
15573SOL    HW151566   4.789   6.196   8.172 -0.6226 -3.2385  0.5367
15573SOL    HW251567   4.915   6.118   8.141  1.9625  0.5775  0.7635
15574SOL     OW51568   4.491   8.835   1.111  0.6448 -0.2593  0.0645
15574SOL    HW151569   4.494   8.739   1.114 -1.0830 -0.3254  1.4045
15574SOL    HW251570   4.470   8.861   1.201  1.1385  1.4082 -0.2572
15575SOL     OW51571   3.191   7.038   8.192 -0.1062  0.0209  0.3060
15575SOL    HW151572   3.110   6.989   8.179 -1.1716  1.4737  1.1839
15575SOL    HW251573   3.167   7.108   8.253  2.1263 -0.2718  1.6014
15576SOL     OW51574   3.324   7.941   0.397 -0.7315  0.2546 -0.0245
15576SOL    HW151575   3.275   8.019   0.423  0.0884  1.2049 -1.2323
15576SOL    HW251576   3.357   7.962   0.310  2.5643  0.0414  1.0389
15577SOL     OW51577   4.794   6.904   9.045  0.1554 -0.4377  0.2010
15577SOL    HW151578   4.760   6.864   8.965  0.7821 -0.9535  0.1805
15577SOL    HW251579   4.786   6.998   9.031 -1.2167 -0.5465  0.1843
15578SOL     OW51580   5.154   8.254   7.951  0.2100  0.1036  0.4825
15578SOL    HW151581   5.241   8.243   7.913  0.2742  0.2566  0.5856
15578SOL    HW251582   5.100   8.287   7.878  0.0318 -0.8029  0.1890
15579SOL     OW51583   3.106   7.267   8.338  0.3070 -0.1091 -0.0821
15579SOL    HW151584   3.158   7.304   8.409  0.8127  1.7421 -1.3599
15579SOL    HW251585   3.139   7.309   8.259 -1.6551 -0.5206 -1.1831
15580SOL     OW51586   4.763   3.767   2.365 -0.0011  0.0028  0.6453
15580SOL    HW151587   4.687   3.826   2.366 -0.5398 -0.6805  1.9260
15580SOL    HW251588   4.778   3.746   2.457  0.4301 -1.5481  0.2372
15581SOL     OW51589   5.097   7.451   1.040  0.2489  0.5047  0.1766
15581SOL    HW151590   5.128   7.499   0.963 -1.1371 -2.3558 -2.3933
15581SOL    HW251591   5.174   7.403   1.072  0.1916 -0.9742 -1.7058
15582SOL     OW51592   4.931   4.532   9.056  0.5596  1.0964 -0.3579
15582SOL    HW151593   5.007   4.551   9.112 -0.6094  0.3032  1.6260
15582SOL    HW251594   4.857   4.570   9.104 -0.8417 -1.7806 -0.0116
15583SOL     OW51595   3.167   6.334   8.835 -0.4699  0.3754  0.0749
15583SOL    HW151596   3.215   6.259   8.869 -0.7022  0.4213  0.5139
15583SOL    HW251597   3.148   6.387   8.913 -1.3758  0.2735 -0.0630
15584SOL     OW51598   5.182   7.996   9.563  0.7605 -0.2265  0.4335
15584SOL    HW151599   5.090   7.975   9.577  0.3858  0.8827 -0.2381
15584SOL    HW251600   5.216   7.923   9.511 -0.6297  0.9176 -2.2716
15585SOL     OW51601   3.032   7.730   0.415 -0.1007 -0.3459  0.0532
15585SOL    HW151602   2.940   7.704   0.417 -0.6616  1.5039  1.4596
15585SOL    HW251603   3.030   7.823   0.390  1.4367 -0.4229 -0.4554
15586SOL     OW51604   3.817   5.518   0.269 -0.1652 -0.3435 -0.1119
15586SOL    HW151605   3.785   5.533   0.180  0.7257  2.7593 -0.0153
15586SOL    HW251606   3.750   5.555   0.326 -0.2486 -1.4008  0.5111
15587SOL     OW51607   5.748   5.372   1.590 -0.2870  0.0168  0.4470
15587SOL    HW151608   5.809   5.301   1.567 -0.8697  0.0410 -1.3168
15587SOL    HW251609   5.663   5.342   1.559 -0.7988  0.8960  0.9613
15588SOL     OW51610   5.576   6.687   0.042  0.1577  0.2936  0.1417
15588SOL    HW151611   5.632   6.765   0.042 -0.1358  0.5143 -0.9289
15588SOL    HW251612   5.516   6.701   0.115  0.3766  0.8712  0.2161
15589SOL     OW51613   3.721   7.148   5.931 -0.3724 -0.0272 -0.3815
15589SOL    HW151614   3.808   7.109   5.916  0.4342  1.4508  0.1997
15589SOL    HW251615   3.677   7.142   5.846 -0.3594 -2.2641 -0.2947
15590SOL     OW51616   3.715   4.994   2.151 -0.3569  0.4023  0.2674
15590SOL    HW151617   3.673   5.040   2.079  0.0230 -1.8999 -1.5620
15590SOL    HW251618   3.808   4.994   2.128  0.2404  2.1502  2.3328
15591SOL     OW51619   4.729   4.758   9.786 -0.7685 -0.2760 -0.1115
15591SOL    HW151620   4.817   4.787   9.809 -1.1829  0.8989  0.0414
15591SOL    HW251621   4.700   4.709   9.862 -0.6692  0.3086  0.3102
15592SOL     OW51622   4.542   7.898   8.759 -0.0692 -0.1097  0.3253
15592SOL    HW151623   4.479   7.966   8.784  0.3114  0.2322  0.3630
15592SOL    HW251624   4.587   7.933   8.682  1.6935  0.6927  1.6445
15593SOL     OW51625   6.383   5.882   9.028  0.2940  0.7315  0.0312
15593SOL    HW151626   6.465   5.834   9.040 -0.4758 -1.1039 -1.6585
15593SOL    HW251627   6.332   5.861   9.107  0.3452 -0.5008 -0.2385
15594SOL     OW51628   7.522   6.188   9.201 -0.1194  0.2233  0.3867
15594SOL    HW151629   7.553   6.201   9.291 -0.4124  1.2658  0.3482
15594SOL    HW251630   7.433   6.154   9.211 -0.8400  2.0421  0.5243
15595SOL     OW51631   5.075   7.480   6.619 -0.0242 -0.8051  0.0824
15595SOL    HW151632   5.123   7.550   6.663  1.4679 -1.0687 -1.0402
15595SOL    HW251633   4.989   7.517   6.602  0.3496  0.3375  0.5585
15596SOL     OW51634   3.201   5.772   9.445 -0.2579  0.0068 -0.0005
15596SOL    HW151635   3.139   5.728   9.387 -3.3685  1.2936  2.0994
15596SOL    HW251636   3.209   5.713   9.520 -0.9713  0.9500  0.8453
15597SOL     OW51637   4.419   6.764   8.996 -0.5497  0.6106  0.4313
15597SOL    HW151638   4.383   6.718   8.920 -0.6709  2.3057 -0.5736
15597SOL    HW251639   4.434   6.695   9.061  1.2390 -1.1850 -1.7275
15598SOL     OW51640   4.935   5.947   8.064  0.6316  0.2167  0.1829
15598SOL    HW151641   4.889   5.948   7.980 -0.6421 -0.1962  0.8515
15598SOL    HW251642   5.020   5.907   8.044  0.2888 -0.0354 -0.8653
15599SOL     OW51643   2.931   6.157   9.792  0.0636 -0.2814 -0.1704
15599SOL    HW151644   3.018   6.191   9.815 -0.1712 -0.2024  0.6356
15599SOL    HW251645   2.946   6.101   9.717  0.5939  0.9371 -1.0128
15600SOL     OW51646   4.030   5.192   1.312 -0.1088  0.3612  0.1024
15600SOL    HW151647   4.121   5.193   1.341  0.6274 -1.0739 -1.9375
15600SOL    HW251648   3.980   5.178   1.392  1.5693 -0.3057  1.0863
15601SOL     OW51649   8.263   4.923   9.418 -0.2373 -0.7992  0.4709
15601SOL    HW151650   8.287   4.845   9.368 -0.5822 -0.2492 -0.5672
15601SOL    HW251651   8.316   4.993   9.381  0.6880 -0.6670  1.9489
15602SOL     OW51652   5.187   5.687   8.565 -0.1432  0.2853  0.2129
15602SOL    HW151653   5.114   5.748   8.571 -1.7394 -1.5365  0.6747
15602SOL    HW251654   5.212   5.671   8.656 -0.1198 -0.1453  0.1336
15603SOL     OW51655   4.702   6.540   8.904  0.5710  0.2499  0.0527
15603SOL    HW151656   4.688   6.484   8.827 -0.2092  0.6993 -0.1466
15603SOL    HW251657   4.688   6.629   8.871 -1.4164  0.3582  1.0476
15604SOL     OW51658   3.745   7.711   0.275 -0.5972 -0.1441  0.6238
15604SOL    HW151659   3.658   7.702   0.313  0.1421  0.3347  2.5322
15604SOL    HW251660   3.760   7.627   0.232 -2.1792 -0.0478 -0.1970
15605SOL     OW51661   2.673   6.736   7.246 -0.5420 -0.0123 -0.4604
15605SOL    HW151662   2.641   6.736   7.156  1.6838 -1.2959 -1.3373
15605SOL    HW251663   2.763   6.703   7.240 -0.9441 -2.1189  2.4493
15606SOL     OW51664   1.844   5.110   0.704 -0.2351  0.4084 -0.1906
15606SOL    HW151665   1.924   5.062   0.725 -1.5172 -2.4150 -1.2291
15606SOL    HW251666   1.787   5.097   0.780 -1.8079 -2.7979 -1.7033
15607SOL     OW51667   7.237   6.483   8.646 -0.0554 -0.4477  0.1117
15607SOL    HW151668   7.272   6.416   8.704  2.3102  0.9677  0.4554
15607SOL    HW251669   7.191   6.435   8.578 -1.8772 -2.2207  2.4314
15608SOL     OW51670   6.065   6.608   0.624 -0.0967  0.3281  0.9365
15608SOL    HW151671   6.155   6.624   0.596  0.2078  0.3782  1.8968
15608SOL    HW251672   6.035   6.692   0.658 -0.0748  0.0259  1.7370
15609SOL     OW51673   4.498   7.989   8.490 -0.0840  0.2103 -0.3093
15609SOL    HW151674   4.449   8.042   8.428  1.3351 -0.6150 -2.2309
15609SOL    HW251675   4.553   7.933   8.436 -0.7788 -2.5494  1.6222
15610SOL     OW51676   6.360   6.087   0.179 -0.4444  0.1645  0.1429
15610SOL    HW151677   6.411   6.133   0.245  1.1815  0.3764 -1.1897
15610SOL    HW251678   6.279   6.136   0.172  0.3779  1.5971  0.2647
15611SOL     OW51679   5.804   6.876   0.318  0.1456 -0.2943 -0.2309
15611SOL    HW151680   5.866   6.949   0.315  3.5351 -2.8570  1.1130
15611SOL    HW251681   5.767   6.880   0.405 -0.4740  0.3801 -0.5164
15612SOL     OW51682   3.652   3.588   1.460  0.3211 -0.0832  0.0929
15612SOL    HW151683   3.572   3.631   1.430  1.0587  0.6524 -0.8635
15612SOL    HW251684   3.636   3.495   1.444 -1.1285 -0.2076  1.8088
15613SOL     OW51685   5.381   4.717   1.202 -0.2337  0.4013  0.6828
15613SOL    HW151686   5.384   4.641   1.145  0.1960  0.5718  0.4738
15613SOL    HW251687   5.292   4.717   1.238 -1.2749  1.4878 -1.6530
15614SOL     OW51688   4.455   7.486   9.065  0.1072  0.7410 -0.8754
15614SOL    HW151689   4.424   7.510   9.152  0.0173  0.4830 -0.8335
15614SOL    HW251690   4.424   7.556   9.007  0.9761  1.4002 -0.5569
15615SOL     OW51691   5.241   5.984   0.564 -0.5659  0.1796  0.2517
15615SOL    HW151692   5.317   5.940   0.526 -1.8686 -0.9232 -1.2375
15615SOL    HW251693   5.180   5.995   0.490 -1.0090  3.0301  0.9139
15616SOL     OW51694   4.589   5.321   1.671 -0.2915  0.8608  0.2687
15616SOL    HW151695   4.584   5.229   1.645 -2.2511  1.1769 -0.6582
15616SOL    HW251696   4.590   5.369   1.589  0.4638  1.7029  0.7519
15617SOL     OW51697   4.972   8.030   6.950  0.2217  0.3874  0.1001
15617SOL    HW151698   5.050   7.991   6.908 -0.0920  0.2111 -0.3271
15617SOL    HW251699   4.910   8.041   6.878 -1.0631 -1.7073  0.8236
15618SOL     OW51700   5.295   4.940   9.343 -0.2226  0.2219  0.5013
15618SOL    HW151701   5.294   4.974   9.432  0.9583 -0.8272  0.9512
15618SOL    HW251702   5.203   4.921   9.323 -0.5511  0.9329  1.2983
15619SOL     OW51703   3.960   6.381   1.997  0.0673  0.3190 -0.2493
15619SOL    HW151704   3.944   6.410   1.907 -0.2412  0.3054 -0.2015
15619SOL    HW251705   3.920   6.448   2.052 -2.0887 -0.9269 -0.1484
15620SOL     OW51706   4.329   7.624   0.681  0.2017 -1.0301 -0.6372
15620SOL    HW151707   4.332   7.712   0.719  0.5798 -0.5928 -1.6449
15620SOL    HW251708   4.242   7.591   0.705 -1.3813  0.9783 -3.1256
15621SOL     OW51709   5.276   4.179   0.812 -0.0515  0.4007 -0.4783
15621SOL    HW151710   5.201   4.223   0.853 -1.8761 -0.7485 -2.4126
15621SOL    HW251711   5.266   4.196   0.719  1.8195 -0.2773 -0.8416
15622SOL     OW51712   3.581   6.837   9.714  0.4206  0.6331 -0.2485
15622SOL    HW151713   3.652   6.856   9.652 -0.5855 -0.7177 -1.9164
15622SOL    HW251714   3.626   6.818   9.796  1.9930  0.0285 -1.1981
15623SOL     OW51715   4.238   9.048   0.088  0.1617 -0.0944  0.0758
15623SOL    HW151716   4.158   9.055   0.140 -0.2295  1.2805 -0.6765
15623SOL    HW251717   4.294   8.989   0.139  0.1606  1.8502  2.5238
15624SOL     OW51718   3.405   7.900   1.766 -0.0122  0.1366 -0.3399
15624SOL    HW151719   3.399   7.890   1.861 -1.4843 -0.6968 -0.4893
15624SOL    HW251720   3.383   7.992   1.750 -0.1831  0.1754  0.1115
15625SOL     OW51721   3.777   7.251   1.197 -0.6268 -0.2804 -0.1741
15625SOL    HW151722   3.714   7.199   1.248 -0.4720 -1.3828 -1.0697
15625SOL    HW251723   3.755   7.232   1.106 -0.1855  0.7971 -0.5190
15626SOL     OW51724   2.910   1.555   0.843 -0.0792  0.7798  0.1848
15626SOL    HW151725   2.891   1.648   0.846 -0.2578  0.7319  0.5362
15626SOL    HW251726   2.825   1.512   0.844  0.0082  0.5488  2.3655
15627SOL     OW51727   5.902   8.128   8.518  0.1457 -0.4592 -0.5592
15627SOL    HW151728   5.829   8.188   8.529 -0.7872 -1.7114  0.2862
15627SOL    HW251729   5.864   8.041   8.527  1.6993 -1.1551 -0.3271
15628SOL     OW51730   3.868   7.101   8.494  0.0388 -0.0036 -0.8287
15628SOL    HW151731   3.796   7.089   8.432  0.8592 -1.7776 -1.5039
15628SOL    HW251732   3.828   7.082   8.579 -0.9177  1.7322 -0.8458
15629SOL     OW51733   4.749   7.677   8.891 -0.2475 -0.1765  0.3015
15629SOL    HW151734   4.804   7.691   8.969 -0.2234 -1.6546  0.5897
15629SOL    HW251735   4.724   7.585   8.897 -1.8328  0.1842 -0.4447
15630SOL     OW51736   4.454   6.636   1.392  0.2902 -0.1371 -0.3136
15630SOL    HW151737   4.463   6.553   1.439 -0.8015 -0.4125 -0.5713
15630SOL    HW251738   4.482   6.702   1.455 -0.6021 -0.5518  0.5357
15631SOL     OW51739   5.659   5.782   3.203 -0.3313  0.2981  0.2360
15631SOL    HW151740   5.750   5.767   3.175 -0.4426  2.1717 -1.2985
15631SOL    HW251741   5.610   5.708   3.166  0.2245  0.4859 -0.9127
15632SOL     OW51742   5.256   8.288   0.328  0.2441 -0.2802  0.6220
15632SOL    HW151743   5.226   8.341   0.402  0.1202 -0.4096  0.6672
15632SOL    HW251744   5.189   8.220   0.319 -1.4337  1.5019 -1.5885
15633SOL     OW51745   5.286   8.490   0.997  0.3805  0.2212 -0.3701
15633SOL    HW151746   5.337   8.570   0.986  1.2483  0.1985  2.6046
15633SOL    HW251747   5.251   8.497   1.086 -3.2631 -0.6963 -1.5783
15634SOL     OW51748   4.768   9.186   9.734 -0.2416  0.2998 -0.3046
15634SOL    HW151749   4.784   9.264   9.788 -1.2701 -0.0555  0.5575
15634SOL    HW251750   4.723   9.220   9.657  0.8063  0.7553 -0.7334
15635SOL     OW51751   6.157   7.517   0.997 -0.1221  0.6401  0.1808
15635SOL    HW151752   6.127   7.523   0.906 -0.5386  1.6900  0.3808
15635SOL    HW251753   6.193   7.429   1.004  2.3012  1.3530 -1.7545
15636SOL     OW51754   2.573   6.094   2.556 -0.6212  0.6738  0.0112
15636SOL    HW151755   2.544   6.164   2.615 -0.3757  0.6508  0.1610
15636SOL    HW251756   2.622   6.034   2.612 -0.5523  0.5511 -0.1789
15637SOL     OW51757   2.605   6.991   1.059 -0.4993 -0.2453 -0.5641
15637SOL    HW151758   2.663   7.067   1.059 -0.0424 -0.5954 -0.7573
15637SOL    HW251759   2.557   6.999   1.142  1.8228 -1.4564  1.0236
15638SOL     OW51760   5.224   7.714   7.739 -0.5218 -0.6479  0.0800
15638SOL    HW151761   5.182   7.730   7.655 -0.1344 -1.8320 -0.3547
15638SOL    HW251762   5.231   7.801   7.779 -2.3623 -0.2892 -0.3007
15639SOL     OW51763   4.331   7.686   1.231 -0.2646  0.4241 -0.3363
15639SOL    HW151764   4.361   7.709   1.144 -1.3557  1.7494 -0.4013
15639SOL    HW251765   4.410   7.657   1.277  0.1852 -1.1036 -1.9793
15640SOL     OW51766   5.121   9.717   9.701 -0.2597  0.7315  0.5230
15640SOL    HW151767   5.089   9.684   9.617 -0.4353  0.4939  0.6816
15640SOL    HW251768   5.193   9.658   9.724  0.9519  1.8454 -0.3017
15641SOL     OW51769   5.994   9.221   0.452 -0.3365  0.4485 -0.2077
15641SOL    HW151770   6.088   9.229   0.435 -0.2907 -0.3930 -0.3611
15641SOL    HW251771   5.975   9.129   0.438 -1.2256  0.6498 -0.3433
15642SOL     OW51772   5.149   9.432   3.597  0.3306 -0.0564 -0.0752
15642SOL    HW151773   5.083   9.499   3.618 -0.2307 -0.6697  0.1498
15642SOL    HW251774   5.180   9.456   3.510 -0.9756 -0.3644 -0.6466
15643SOL     OW51775   3.262   6.573   1.507 -0.0806  0.1498 -0.0053
15643SOL    HW151776   3.210   6.578   1.587 -0.8250 -0.9813 -0.4003
15643SOL    HW251777   3.199   6.587   1.436  0.9761  4.2627 -0.4265
15644SOL     OW51778   6.873   7.724   0.482  0.5083  0.5219  0.1440
15644SOL    HW151779   6.873   7.694   0.573 -0.5021 -0.1749 -0.0744
15644SOL    HW251780   6.822   7.805   0.483 -0.3223  0.0067  0.0477
15645SOL     OW51781   2.527   7.210   1.512 -0.4207 -0.3112 -1.0707
15645SOL    HW151782   2.440   7.246   1.527  0.4114  0.6340  2.1582
15645SOL    HW251783   2.546   7.156   1.589  0.7449 -2.9976 -3.0511
15646SOL     OW51784   6.585   8.294   9.668 -0.3806 -0.1214  0.4318
15646SOL    HW151785   6.527   8.224   9.698 -1.0165  0.8332  1.5372
15646SOL    HW251786   6.673   8.263   9.685 -0.6551 -0.6951  0.7992
15647SOL     OW51787   4.532   7.945   1.442  0.0612  0.5274  0.3902
15647SOL    HW151788   4.437   7.935   1.435  0.1727  0.2336 -1.0607
15647SOL    HW251789   4.565   7.923   1.355  1.3895  1.5106  0.6103
15648SOL     OW51790   4.793   8.001   0.089  0.5332 -0.1833  0.0135
15648SOL    HW151791   4.844   7.959   0.158  0.7631 -0.7577 -0.5078
15648SOL    HW251792   4.824   7.962   0.008  0.9240  1.1607 -0.5099
15649SOL     OW51793   5.404   7.844   0.940  0.2136  0.0001  0.3510
15649SOL    HW151794   5.341   7.911   0.912  0.0853 -0.3931 -0.3323
15649SOL    HW251795   5.480   7.894   0.971 -0.1060  0.4666  0.3939
15650SOL     OW51796   3.810   0.535   0.281 -0.7048  0.1883  0.0452
15650SOL    HW151797   3.769   0.452   0.303 -0.1128  0.1320  1.0342
15650SOL    HW251798   3.858   0.559   0.360  1.3558  0.1200 -1.0990
15651SOL     OW51799   3.252   8.694   4.538 -0.5444  0.0197 -0.1526
15651SOL    HW151800   3.212   8.607   4.530  0.3048 -0.4168  0.2482
15651SOL    HW251801   3.191   8.752   4.493 -0.1912 -1.0445 -2.0959
15652SOL     OW51802   2.717   6.062   9.171  0.2521  1.0137 -0.1401
15652SOL    HW151803   2.735   6.141   9.222 -0.0571 -0.2435  2.0670
15652SOL    HW251804   2.621   6.060   9.164  0.2407  0.6998  0.0740
15653SOL     OW51805   3.239   7.477   8.167  0.0878 -0.1193  0.3062
15653SOL    HW151806   3.289   7.532   8.106  0.5737 -1.5726 -0.6476
15653SOL    HW251807   3.154   7.521   8.175  0.9415  1.5676  0.7547
15654SOL     OW51808   5.335   7.636   1.128  0.3160  0.0242  0.0277
15654SOL    HW151809   5.283   7.600   1.055  2.0309  0.1879 -1.3373
15654SOL    HW251810   5.341   7.729   1.109  0.4536  0.1347  0.6018
15655SOL     OW51811   4.348   6.080   9.812  0.3132 -0.1579  0.0697
15655SOL    HW151812   4.409   6.106   9.743 -0.0273  0.6149  0.0369
15655SOL    HW251813   4.401   6.075   9.891  0.7012 -1.0135 -0.2372
15656SOL     OW51814   5.367   0.991   3.979 -0.6304  0.2194  0.1093
15656SOL    HW151815   5.415   1.011   4.059 -1.4364  1.7178  0.2530
15656SOL    HW251816   5.408   1.046   3.911 -2.5094  2.1028  0.3861
15657SOL     OW51817   2.115   6.595   1.616  0.0026  0.0027  0.2386
15657SOL    HW151818   2.159   6.654   1.678 -0.3835  0.1938  0.3349
15657SOL    HW251819   2.023   6.622   1.619 -0.1654 -0.5631  0.2334
15658SOL     OW51820   2.727   5.572   2.633  0.7197 -0.0029 -0.6009
15658SOL    HW151821   2.635   5.548   2.620  0.5691  0.5745 -0.6439
15658SOL    HW251822   2.745   5.636   2.564  1.0636  0.1177 -0.4034
15659SOL     OW51823   3.989   9.320   1.414 -0.6165  0.0048  0.3273
15659SOL    HW151824   3.945   9.347   1.495 -0.0983 -0.0486  0.6339
15659SOL    HW251825   4.043   9.395   1.390 -2.0539  0.6822 -0.9234
15660SOL     OW51826   2.911   7.923   2.153  0.0689 -0.1531  0.4249
15660SOL    HW151827   2.934   7.993   2.214  1.8167 -0.5222  0.2318
15660SOL    HW251828   2.995   7.891   2.120 -0.7059 -1.9960  0.1198
15661SOL     OW51829   3.619   7.484   1.662  0.5749  0.4488  0.1472
15661SOL    HW151830   3.577   7.545   1.602 -2.1179  0.2615  1.6850
15661SOL    HW251831   3.576   7.401   1.646  1.5992 -0.2014  0.6381
15662SOL     OW51832   5.607   8.075   3.408 -0.2756  0.0214  0.1053
15662SOL    HW151833   5.629   7.982   3.417 -0.2314 -0.1294 -1.4434
15662SOL    HW251834   5.516   8.075   3.379 -0.2306  0.4716 -0.0346
15663SOL     OW51835   3.587   8.850   0.574 -0.1113  0.3106  0.1900
15663SOL    HW151836   3.644   8.922   0.550  0.1378  0.3881  0.9777
15663SOL    HW251837   3.505   8.867   0.528  0.1781  0.7135 -0.1810
15664SOL     OW51838   2.500   6.851   1.667  0.0086  0.4798  0.2949
15664SOL    HW151839   2.536   6.940   1.661  1.0735 -0.0145 -1.5608
15664SOL    HW251840   2.495   6.821   1.577 -0.1027 -1.4451  0.8927
15665SOL     OW51841   5.747   6.480   0.112 -0.2788 -0.7866 -0.4992
15665SOL    HW151842   5.682   6.550   0.113 -0.2210 -0.6991  1.7949
15665SOL    HW251843   5.792   6.490   0.028 -0.4862  1.7222 -0.3687
15666SOL     OW51844   3.661   8.818   9.348  0.0617 -0.3156  0.3112
15666SOL    HW151845   3.618   8.888   9.398  0.5208 -0.2279  0.5882
15666SOL    HW251846   3.631   8.737   9.389 -0.2936 -0.2707  0.1355
15667SOL     OW51847   7.123   6.938   3.514  0.2949 -0.0317  0.7243
15667SOL    HW151848   7.147   6.920   3.423 -1.2500  0.0051  0.2776
15667SOL    HW251849   7.198   6.985   3.549  1.3234 -0.9043 -0.2418
15668SOL     OW51850   5.916   0.417   0.134  0.3210  0.3163  0.8245
15668SOL    HW151851   5.843   0.444   0.190 -1.3675  0.7759 -1.4569
15668SOL    HW251852   5.892   0.330   0.104  1.5056 -0.1781  1.2340
15669SOL     OW51853   0.785   9.539   0.913 -0.6964  0.1382 -0.1104
15669SOL    HW151854   0.860   9.491   0.947  0.4906  1.2616 -1.0541
15669SOL    HW251855   0.788   9.624   0.959 -1.2221  0.2998 -0.3691
15670SOL     OW51856   4.786   9.372   8.813  0.4760  0.4186 -0.6490
15670SOL    HW151857   4.833   9.408   8.737  0.3262  1.4369 -0.2703
15670SOL    HW251858   4.701   9.415   8.811  0.6888  0.9281  0.4408
15671SOL     OW51859   3.161   8.473   9.448  0.2143  0.2055  0.1516
15671SOL    HW151860   3.089   8.426   9.406  0.4517  0.0012 -0.0311
15671SOL    HW251861   3.178   8.424   9.528  0.1007  0.2968  0.2308
15672SOL     OW51862   3.438   5.124   3.553  0.4764 -0.3565  0.3177
15672SOL    HW151863   3.358   5.167   3.584 -0.7585 -1.0786 -1.6792
15672SOL    HW251864   3.418   5.097   3.463  2.9010 -0.7726 -0.1803
15673SOL     OW51865   5.166   9.370   0.299 -0.2517 -0.5987  0.3419
15673SOL    HW151866   5.214   9.337   0.375  0.6010 -0.4487 -0.1228
15673SOL    HW251867   5.191   9.311   0.228  0.0401  0.0864 -0.1304
15674SOL     OW51868   4.312   7.865   9.247  0.1345 -0.6888 -0.1912
15674SOL    HW151869   4.347   7.881   9.335  0.3004 -0.7705 -0.2410
15674SOL    HW251870   4.366   7.919   9.190  1.2570 -2.0401 -0.4637
15675SOL     OW51871   2.716   7.677   2.138  0.5395  0.2235  0.1572
15675SOL    HW151872   2.763   7.758   2.161  0.7512  0.3424 -0.6725
15675SOL    HW251873   2.781   7.624   2.092  0.5331 -0.6249  1.0942
15676SOL     OW51874   5.645   9.159   9.447  0.3800  0.3016 -0.0946
15676SOL    HW151875   5.559   9.169   9.487 -0.5990  0.4452 -2.1150
15676SOL    HW251876   5.629   9.109   9.367  2.1211  0.5985 -0.6816
15677SOL     OW51877   2.710   7.937   1.925  0.0745  0.0953  0.2179
15677SOL    HW151878   2.718   7.908   2.016 -1.8711 -1.3715 -0.0092
15677SOL    HW251879   2.616   7.952   1.913  0.4559  1.6380 -1.1787
15678SOL     OW51880   4.283   8.302   9.680 -0.0051  0.1784  0.3527
15678SOL    HW151881   4.372   8.312   9.646  1.3547 -3.2879  2.3587
15678SOL    HW251882   4.271   8.377   9.738  1.1568  1.2384 -0.7078
15679SOL     OW51883   2.647   8.787   1.199  0.0196 -0.1274  0.3869
15679SOL    HW151884   2.599   8.721   1.150  0.2045 -1.0042  1.3645
15679SOL    HW251885   2.724   8.741   1.233  1.1902  1.0643 -0.5315
15680SOL     OW51886   4.785   6.582   0.009  0.2416  0.1877  0.4162
15680SOL    HW151887   4.788   6.504   0.065 -0.8074  0.4916  0.9209
15680SOL    HW251888   4.811   6.654   0.066 -0.1735  0.4064  0.3305
15681SOL     OW51889   3.573   8.589   0.616  0.5967  0.4187 -0.2030
15681SOL    HW151890   3.501   8.581   0.678 -1.3859 -0.3169 -2.4378
15681SOL    HW251891   3.580   8.683   0.599  0.6798  0.5591  0.5650
15682SOL     OW51892   3.727   0.607   1.212  0.1465  0.7285 -0.1001
15682SOL    HW151893   3.719   0.702   1.226  0.8091  1.0922 -1.9645
15682SOL    HW251894   3.663   0.569   1.272  0.3900  2.3049  1.2201
15683SOL     OW51895   4.007   7.884   1.192 -0.1927  0.2634  0.5563
15683SOL    HW151896   3.924   7.889   1.239 -0.5573  2.9376 -0.1834
15683SOL    HW251897   3.999   7.950   1.123  1.9039 -0.6316 -0.6317
15684SOL     OW51898   4.660   8.277   0.041 -0.2210 -0.0548 -0.3600
15684SOL    HW151899   4.746   8.248   0.012  1.3777  3.0629  0.8650
15684SOL    HW251900   4.640   8.354  -0.013 -0.4096  1.5704  1.8711
15685SOL     OW51901   2.842   7.900   1.523  0.5014 -0.3711  0.0068
15685SOL    HW151902   2.753   7.877   1.551  0.2175 -0.2208 -0.7692
15685SOL    HW251903   2.840   7.995   1.512  0.2272 -0.5648 -1.8174
15686SOL     OW51904   4.940   8.555   0.245  0.0128 -0.4958 -0.0301
15686SOL    HW151905   4.965   8.572   0.154 -1.1079  1.8416  0.0242
15686SOL    HW251906   4.845   8.560   0.246 -0.0712 -1.7096  1.0862
15687SOL     OW51907   6.025   8.318   0.727 -0.1204 -0.2438  0.3035
15687SOL    HW151908   6.079   8.244   0.700  0.5344  0.2672  0.2145
15687SOL    HW251909   6.086   8.383   0.760 -0.4727  1.0999 -1.4969
15688SOL     OW51910   4.193   9.778   1.225 -0.0502  0.3626 -0.1222
15688SOL    HW151911   4.263   9.774   1.160 -0.0310 -0.1027 -0.0731
15688SOL    HW251912   4.210   9.859   1.274 -1.0647  1.6855 -1.8323
15689SOL     OW51913   4.647   7.050   2.072  0.6094 -0.0196  0.5922
15689SOL    HW151914   4.706   7.114   2.032  1.4362 -0.5591  0.9117
15689SOL    HW251915   4.560   7.075   2.041  1.0314  0.6315 -0.1147
15690SOL     OW51916   7.106   6.986   6.953  0.0489  0.5444 -0.8513
15690SOL    HW151917   7.123   6.897   6.923 -0.2483 -0.1216  0.8427
15690SOL    HW251918   7.158   6.995   7.032 -2.6152  0.5540  1.0485
15691SOL     OW51919   2.482   7.744   2.963 -0.0616 -0.3138 -0.0042
15691SOL    HW151920   2.516   7.832   2.973 -0.7897  0.1919 -1.7019
15691SOL    HW251921   2.474   7.711   3.053 -0.5140  1.6200  0.7120
15692SOL     OW51922   4.465   6.639   0.347  0.0334 -0.5116  0.4861
15692SOL    HW151923   4.388   6.683   0.309 -0.0520 -2.0996 -1.3015
15692SOL    HW251924   4.437   6.614   0.435 -0.9955  0.1802  0.3748
15693SOL     OW51925   5.194   9.283   0.961 -0.0166 -0.1258 -0.1172
15693SOL    HW151926   5.217   9.193   0.983  2.3197  0.1592 -1.1181
15693SOL    HW251927   5.170   9.280   0.868 -2.0588 -0.0178  0.3551
15694SOL     OW51928   6.723   0.866   0.731  0.6746  0.1444 -0.0158
15694SOL    HW151929   6.809   0.851   0.692  0.5924 -1.5394  0.3606
15694SOL    HW251930   6.739   0.925   0.804  1.1105  1.8050 -1.3800
15695SOL     OW51931   4.525   8.311   9.560 -0.4050 -0.1148  0.0130
15695SOL    HW151932   4.591   8.344   9.620  0.6685 -2.8731  0.4843
15695SOL    HW251933   4.570   8.306   9.475 -0.7176  0.0695 -0.1673
15696SOL     OW51934   2.895   8.136   9.540  0.4525 -0.0696 -0.5672
15696SOL    HW151935   2.858   8.214   9.500  0.0870 -0.6225 -1.3327
15696SOL    HW251936   2.957   8.169   9.605 -2.0220  0.9128  1.4361
15697SOL     OW51937   7.108   7.526   3.876 -0.0759 -0.2916  0.3804
15697SOL    HW151938   7.158   7.534   3.957 -0.2082 -1.5573  0.6079
15697SOL    HW251939   7.019   7.508   3.904 -0.1814 -0.4504 -0.0404
15698SOL     OW51940   2.700   5.132   3.709 -0.6913  0.1390 -0.1177
15698SOL    HW151941   2.618   5.093   3.739 -1.9380  1.7572 -1.2272
15698SOL    HW251942   2.712   5.209   3.763 -0.0255  0.0622 -0.1405
15699SOL     OW51943   6.888   8.411   2.419  0.0114 -0.0186 -0.3624
15699SOL    HW151944   6.944   8.472   2.372 -0.6395 -1.0095 -2.5466
15699SOL    HW251945   6.799   8.437   2.395 -0.3547 -0.3996  0.5359
15700SOL     OW51946   4.268   7.054   1.019  0.0167  0.1592 -0.5510
15700SOL    HW151947   4.283   7.094   0.933  1.0657 -0.3658 -0.6218
15700SOL    HW251948   4.351   7.012   1.041 -0.7274 -1.0794 -0.0058
15701SOL     OW51949   4.560   9.047   4.040 -0.4706  0.8492 -0.4507
15701SOL    HW151950   4.646   9.086   4.050 -1.0422  2.2985 -0.9357
15701SOL    HW251951   4.574   8.971   3.983  0.3696  1.4939 -1.1186
15702SOL     OW51952   5.487   7.061   1.159  0.4224  0.3237 -0.4499
15702SOL    HW151953   5.447   6.976   1.140  0.9161  0.3381 -1.6194
15702SOL    HW251954   5.513   7.095   1.073  0.4320  1.5559  0.0292
15703SOL     OW51955   4.150   1.979   2.595  0.3963 -0.3289 -0.3235
15703SOL    HW151956   4.229   1.958   2.544  0.3663  0.2306 -0.6089
15703SOL    HW251957   4.158   1.926   2.674 -0.0194 -1.9418 -1.3263
15704SOL     OW51958   4.492   7.389   2.395 -0.4227 -0.0323  0.2899
15704SOL    HW151959   4.544   7.470   2.395  1.2178 -1.0043 -1.0754
15704SOL    HW251960   4.402   7.419   2.401  0.1945  1.8230  1.2122
15705SOL     OW51961   6.316   0.049   0.377 -0.0323  0.0755 -0.3033
15705SOL    HW151962   6.387   0.107   0.350 -0.4185  1.8706  2.1597
15705SOL    HW251963   6.357  -0.037   0.386  1.3834  0.6862 -0.7022
15706SOL     OW51964   3.678   9.837   2.525  0.0506  0.5790 -0.1771
15706SOL    HW151965   3.771   9.861   2.523 -0.0131  0.9127 -2.7855
15706SOL    HW251966   3.632   9.920   2.522 -0.3575  0.4000  0.8094
15707SOL     OW51967   4.847   6.756   1.755  0.2056 -0.0519 -0.0729
15707SOL    HW151968   4.896   6.771   1.674  0.9218 -0.7872  0.2133
15707SOL    HW251969   4.761   6.792   1.738  0.0931 -0.9108 -1.4610
15708SOL     OW51970   5.043   0.018   0.033 -0.4045  0.7966 -0.0284
15708SOL    HW151971   5.122  -0.036   0.030 -1.3628 -0.8835  2.1669
15708SOL    HW251972   5.054   0.074   0.110 -1.1095  0.9414 -0.0219
15709SOL     OW51973   4.409   8.160   0.212 -0.1542 -0.3920  0.8464
15709SOL    HW151974   4.340   8.220   0.184 -1.5013 -1.0939  2.4754
15709SOL    HW251975   4.419   8.176   0.306  0.3149 -1.8525  1.0757
15710SOL     OW51976   5.271   6.791   4.172  0.0853  0.1817  1.0040
15710SOL    HW151977   5.353   6.771   4.126 -0.5619  1.0067 -0.6016
15710SOL    HW251978   5.242   6.874   4.133 -0.2693  1.2083  3.3049
15711SOL     OW51979   3.100   1.444   2.932 -0.3010 -0.0422 -0.1407
15711SOL    HW151980   3.099   1.371   2.870 -1.5053 -0.5614  0.4581
15711SOL    HW251981   3.038   1.507   2.896 -0.3861  0.0252  0.1267
15712SOL     OW51982   3.968   6.675   7.319  0.0816  0.5214  0.1757
15712SOL    HW151983   4.052   6.664   7.365 -0.0120 -0.1530  0.1956
15712SOL    HW251984   3.984   6.641   7.232 -0.4601 -0.5971  0.4954
15713SOL     OW51985   3.419   8.633   1.647  0.2045 -0.0162 -0.1810
15713SOL    HW151986   3.452   8.619   1.736  0.6885  2.4443  0.0857
15713SOL    HW251987   3.350   8.568   1.637  0.8851 -1.0944  1.5676
15714SOL     OW51988   3.314   8.033   4.002 -0.1623  0.0520  0.0416
15714SOL    HW151989   3.275   8.011   3.918 -1.6189 -0.1742  0.7405
15714SOL    HW251990   3.399   7.988   4.002 -0.4906 -0.5964 -0.9620
15715SOL     OW51991   2.503   8.987   1.041  0.6622  0.4044 -0.4214
15715SOL    HW151992   2.425   8.946   1.004  0.4467  1.5171 -1.2504
15715SOL    HW251993   2.522   8.936   1.120 -0.7933  0.0079 -0.3099
15716SOL     OW51994   4.081   5.291   0.119 -0.5990  0.6095  1.4124
15716SOL    HW151995   4.141   5.364   0.133  1.3543 -0.9612  1.6735
15716SOL    HW251996   4.028   5.317   0.043  2.4206  0.9210 -0.7531
15717SOL     OW51997   6.795   7.615   1.065  0.2685  0.1052  0.1943
15717SOL    HW151998   6.723   7.559   1.038  2.2083 -2.0397 -0.8477
15717SOL    HW251999   6.775   7.701   1.028 -2.0224 -0.2430  0.5223
15718SOL     OW52000   3.799   8.035   1.014 -0.0408  0.0219  0.0013
15718SOL    HW152001   3.861   8.011   0.946 -0.4549  2.0991 -1.2020
15718SOL    HW252002   3.726   8.075   0.967 -0.3087  1.5950  1.6393
15719SOL     OW52003   4.653   7.356   1.489 -0.6506  0.6271  0.0910
15719SOL    HW152004   4.703   7.275   1.473 -2.2542 -0.6881  1.3190
15719SOL    HW252005   4.571   7.343   1.440 -0.5958  1.9188 -0.3874
15720SOL     OW52006   5.641   7.262   9.712  0.3482 -0.1716 -0.4003
15720SOL    HW152007   5.684   7.211   9.643  1.0781  1.6551 -1.3496
15720SOL    HW252008   5.712   7.288   9.770 -0.2863 -1.8812  1.2407
15721SOL     OW52009   3.761   1.202   0.684 -0.4152  0.0385 -0.4931
15721SOL    HW152010   3.842   1.186   0.732  0.6830 -1.3356 -2.6275
15721SOL    HW252011   3.692   1.166   0.739  0.0841  2.8355  2.2242
15722SOL     OW52012   2.794   7.693   0.527  0.3730 -0.2601  0.3328
15722SOL    HW152013   2.779   7.618   0.471  2.9698 -2.4556  2.2651
15722SOL    HW252014   2.766   7.664   0.614  2.4744  0.5132  1.3363
15723SOL     OW52015   2.920   8.912   1.216 -0.5671 -0.4568 -0.0002
15723SOL    HW152016   2.893   8.858   1.142  0.9474 -0.4599 -0.6062
15723SOL    HW252017   2.859   8.986   1.216  0.6073  0.6803 -2.6540
15724SOL     OW52018   5.798   7.625   5.924  0.0100 -0.3484  0.2304
15724SOL    HW152019   5.824   7.694   5.984  0.5555 -1.6609  1.5843
15724SOL    HW252020   5.702   7.629   5.922  0.0407  0.4026  0.3405
15725SOL     OW52021   7.063   6.166   3.386  0.2299 -0.3306  0.5628
15725SOL    HW152022   7.087   6.171   3.293 -1.6373  3.7099  0.1020
15725SOL    HW252023   7.001   6.094   3.391 -0.1160 -0.2264 -1.4801
15726SOL     OW52024   4.848   6.290   0.826 -0.1495  0.5130 -0.3562
15726SOL    HW152025   4.943   6.294   0.819 -0.0816 -1.6320 -1.3610
15726SOL    HW252026   4.816   6.318   0.740 -0.4893  2.0753  0.2538
15727SOL     OW52027   3.374   7.900   2.995 -0.8395  0.5695  0.3645
15727SOL    HW152028   3.291   7.883   2.951 -0.0967 -0.3706 -0.7358
15727SOL    HW252029   3.384   7.827   3.057 -0.9596  0.8323  0.6963
15728SOL     OW52030   4.584   6.837   3.684  0.5187  0.0406 -0.0207
15728SOL    HW152031   4.502   6.790   3.696  0.3282  0.7013  1.3535
15728SOL    HW252032   4.599   6.834   3.589 -0.7003 -0.7073 -0.2149
15729SOL     OW52033   2.513   6.388   2.690 -0.6893  0.2515 -0.1899
15729SOL    HW152034   2.446   6.424   2.631  1.1238  0.6515 -2.1099
15729SOL    HW252035   2.536   6.462   2.746 -0.6513  0.6160 -0.6749
15730SOL     OW52036   6.067   7.618   3.295 -0.4725  0.1432 -0.5136
15730SOL    HW152037   6.034   7.645   3.209 -1.2511 -0.1223 -0.3042
15730SOL    HW252038   6.161   7.637   3.291 -0.9596  3.1985 -0.2972
15731SOL     OW52039   5.364   7.743   1.956 -0.1514  0.6374  0.1214
15731SOL    HW152040   5.386   7.824   1.910  0.8902  0.1095 -0.3572
15731SOL    HW252041   5.432   7.681   1.929  0.3247  0.2168  2.1443
15732SOL     OW52042   2.813   6.628   2.054 -0.3480  0.3503  0.8024
15732SOL    HW152043   2.837   6.719   2.071  0.7081 -0.0977  1.8381
15732SOL    HW252044   2.814   6.586   2.140 -1.3262 -0.5412  0.4066
15733SOL     OW52045   5.625   9.133   9.154 -0.2056 -0.5028  0.7032
15733SOL    HW152046   5.608   9.227   9.153  0.2186 -0.4239  0.7077
15733SOL    HW252047   5.559   9.096   9.094  1.1633  0.0638 -1.2645
15734SOL     OW52048   5.838   8.064   1.636  0.4370 -0.2182  0.7724
15734SOL    HW152049   5.870   8.040   1.723  0.1172  0.4021  1.0703
15734SOL    HW252050   5.765   8.123   1.653  0.8698  0.5372  0.0802
15735SOL     OW52051   5.698   7.757   9.514 -0.0517  0.1558  0.1547
15735SOL    HW152052   5.602   7.757   9.514 -0.1232  1.6278 -2.3023
15735SOL    HW252053   5.722   7.668   9.489 -0.7224 -0.3162  1.1070
15736SOL     OW52054   4.453   7.625   9.306 -0.5974  0.0358 -0.3752
15736SOL    HW152055   4.518   7.696   9.302  0.3211 -0.7630 -0.2237
15736SOL    HW252056   4.370   7.667   9.287  0.0166  1.0427 -0.9455
15737SOL     OW52057   3.202   4.769   3.833  0.7849 -0.4099 -0.3972
15737SOL    HW152058   3.229   4.833   3.767 -0.1761 -0.1974 -0.5969
15737SOL    HW252059   3.279   4.758   3.889  2.1401 -1.6328 -2.3455
15738SOL     OW52060   5.320   6.868   2.651 -0.8933  0.3554  0.0225
15738SOL    HW152061   5.297   6.919   2.574  0.0411  1.3090  0.3597
15738SOL    HW252062   5.291   6.921   2.725  1.7366  1.3210  0.4438
15739SOL     OW52063   3.875   8.977   0.005 -0.1516 -0.5048  0.0635
15739SOL    HW152064   3.899   8.936  -0.078 -1.3506  0.3948 -0.7884
15739SOL    HW252065   3.779   8.972   0.006 -0.2629  1.1633  0.4736
15740SOL     OW52066   2.282   8.914   1.243 -0.3393  0.1076 -0.3471
15740SOL    HW152067   2.363   8.926   1.292  1.0920 -0.1861 -2.4705
15740SOL    HW252068   2.273   8.819   1.235  1.0603  0.0992 -2.9623
15741SOL     OW52069   3.393   1.769   0.769  0.2446 -0.1885 -0.1679
15741SOL    HW152070   3.415   1.714   0.844  0.6167 -0.0167 -0.1498
15741SOL    HW252071   3.469   1.763   0.711  0.1818  0.1035 -0.2826
15742SOL     OW52072   4.796   9.005   1.955  0.2465  0.1452 -0.3439
15742SOL    HW152073   4.790   9.096   1.983  0.6603 -0.1221  0.6665
15742SOL    HW252074   4.796   8.954   2.036  3.3982 -0.5755 -0.6526
15743SOL     OW52075   4.247   7.512   1.607  0.1179  0.1733 -0.1356
15743SOL    HW152076   4.314   7.581   1.610  0.4637 -0.0598 -1.5846
15743SOL    HW252077   4.177   7.550   1.553  1.1633 -1.2674 -2.6611
15744SOL     OW52078   3.548   8.095   3.026 -0.0801 -0.5067 -0.2059
15744SOL    HW152079   3.478   8.157   3.007 -0.6426 -0.9843  0.2412
15744SOL    HW252080   3.510   8.009   3.003  1.2263 -0.5853 -2.3803
15745SOL     OW52081   2.971   7.481   4.218 -0.3860  0.0136  0.5418
15745SOL    HW152082   3.041   7.536   4.254 -1.1239  1.3633 -0.0134
15745SOL    HW252083   2.950   7.521   4.134 -2.6622  0.4090  1.2353
15746SOL     OW52084   5.828   9.418   1.392  0.4454 -0.8287  0.0086
15746SOL    HW152085   5.827   9.328   1.359 -1.3925 -0.1289 -2.0789
15746SOL    HW252086   5.751   9.425   1.448  0.0894 -0.3393 -0.5298
15747SOL     OW52087   5.072   6.324   2.238  0.3537 -0.1036  0.5174
15747SOL    HW152088   5.033   6.397   2.284  0.2661 -0.6107  1.2686
15747SOL    HW252089   5.163   6.349   2.225  0.2919  0.1885  0.6454
15748SOL     OW52090   4.434   7.772   1.643  0.3381 -0.2256  0.1006
15748SOL    HW152091   4.452   7.822   1.564 -1.4804  0.4300  0.0582
15748SOL    HW252092   4.377   7.829   1.695 -1.2642 -1.9753  0.3561
15749SOL     OW52093   4.395   8.417   3.325  0.1130 -0.0326  0.0960
15749SOL    HW152094   4.322   8.357   3.311  1.8383 -2.4249  0.6046
15749SOL    HW252095   4.394   8.475   3.249 -1.0880 -1.3273 -0.9245
15750SOL     OW52096   5.845   1.701   1.219 -0.2773  0.0124  0.2209
15750SOL    HW152097   5.775   1.766   1.216 -0.3876 -0.1050  0.2502
15750SOL    HW252098   5.922   1.747   1.184 -1.1594 -0.9013 -3.3137
15751SOL     OW52099   6.460   7.861   0.074  0.0719  0.2558 -0.3969
15751SOL    HW152100   6.478   7.816   0.156  1.0430  1.1121 -0.1200
15751SOL    HW252101   6.539   7.912   0.055 -0.4173  0.6727 -1.4654
15752SOL     OW52102   4.999   1.762   3.212 -0.6799 -0.2996  0.1943
15752SOL    HW152103   5.040   1.690   3.259  1.9482  1.7112  1.2654
15752SOL    HW252104   4.931   1.794   3.272 -0.1277 -0.3215  0.8489
15753SOL     OW52105   4.774   7.837   2.460 -0.2611 -0.3517 -0.2515
15753SOL    HW152106   4.769   7.805   2.549 -0.5843  0.9532  0.2262
15753SOL    HW252107   4.866   7.825   2.435 -0.2459 -1.0439  0.1193
15754SOL     OW52108   3.053   9.757   0.635  0.0076  0.0294  0.4474
15754SOL    HW152109   3.135   9.778   0.680  0.4658 -2.7386  1.0796
15754SOL    HW252110   3.027   9.839   0.592  1.7018  1.6926  2.3813
15755SOL     OW52111   5.935   9.124   1.113 -0.5731  0.3329  0.5080
15755SOL    HW152112   5.893   9.191   1.059  0.1846  0.0298 -0.4797
15755SOL    HW252113   5.895   9.042   1.086 -0.1003  0.1641  0.3123
15756SOL     OW52114   5.698   8.040   9.410 -0.6872  0.1072  0.0978
15756SOL    HW152115   5.776   8.047   9.465 -0.7414  1.5616  0.0165
15756SOL    HW252116   5.629   8.083   9.461 -1.4733 -1.2269  0.1976
15757SOL     OW52117   4.657   8.368   3.428 -0.1991  0.1994  0.1602
15757SOL    HW152118   4.586   8.398   3.373  0.5146  0.8855 -0.4152
15757SOL    HW252119   4.674   8.278   3.399 -0.2248  0.3517 -0.3348
15758SOL     OW52120   4.057   6.480   2.621  0.4409  0.0573 -0.0259
15758SOL    HW152121   4.130   6.529   2.584 -0.0098  0.1895 -0.7617
15758SOL    HW252122   4.097   6.400   2.655  1.4709  1.6453  2.8266
15759SOL     OW52123   3.899   8.476   1.838  0.7160  0.2243  0.2772
15759SOL    HW152124   3.951   8.517   1.769 -0.5581  0.1675 -0.7469
15759SOL    HW252125   3.898   8.541   1.908 -2.7823  2.9656 -1.9681
15760SOL     OW52126   4.402   0.459   1.965 -0.7315  0.0900 -0.1064
15760SOL    HW152127   4.361   0.495   1.886 -0.7918  0.6261  0.1585
15760SOL    HW252128   4.341   0.482   2.036 -0.1439  0.5962  0.2465
15761SOL     OW52129   3.489   7.041   2.612  0.6526 -0.3901 -0.3984
15761SOL    HW152130   3.398   7.057   2.634  0.6414  0.3105 -0.9071
15761SOL    HW252131   3.538   7.064   2.691  0.3396 -1.5339  0.1444
15762SOL     OW52132   6.639   8.968   1.771  0.7047 -0.0200  0.0449
15762SOL    HW152133   6.603   8.991   1.857  0.6338  2.3909 -0.5569
15762SOL    HW252134   6.573   8.998   1.709  1.0543 -1.1391 -0.9094
15763SOL     OW52135   4.054   7.780   3.392 -0.6381 -0.4183 -0.0315
15763SOL    HW152136   3.998   7.759   3.317 -0.5300 -2.3711  0.3727
15763SOL    HW252137   3.997   7.770   3.468 -1.0787  2.7444  0.1588
15764SOL     OW52138   5.092   8.079   9.149  0.0433 -0.3265  0.0777
15764SOL    HW152139   5.149   8.005   9.127 -1.1627 -0.7347 -1.9234
15764SOL    HW252140   5.024   8.041   9.205  0.2042 -0.4406  0.1955
15765SOL     OW52141   3.861   9.345   2.301 -0.2066 -0.4003  0.6075
15765SOL    HW152142   3.938   9.358   2.245 -0.0772  0.8349  1.0529
15765SOL    HW252143   3.787   9.369   2.246 -0.1709 -0.2814  0.6119
15766SOL     OW52144   5.334   8.204   9.286  0.5476 -0.2856 -0.5989
15766SOL    HW152145   5.330   8.250   9.371 -2.6025  0.3763 -0.9805
15766SOL    HW252146   5.314   8.113   9.307 -2.5912  0.2798 -0.7750
15767SOL     OW52147   4.694   0.440   0.747  0.2283  0.7026  0.2745
15767SOL    HW152148   4.705   0.512   0.686 -1.1311  2.2694  1.7574
15767SOL    HW252149   4.599   0.427   0.751  0.4531 -1.7933 -0.5795
15768SOL     OW52150   5.087   9.246   0.687  0.2497 -0.0751 -0.2433
15768SOL    HW152151   5.043   9.327   0.714  0.9365  0.2012  0.0727
15768SOL    HW252152   5.030   9.176   0.718 -2.2279  0.2109 -3.5243
15769SOL     OW52153   3.088   6.361   0.855 -0.6905  0.2050 -0.0411
15769SOL    HW152154   3.140   6.401   0.784 -0.6262 -0.8194 -0.5827
15769SOL    HW252155   3.006   6.336   0.812 -0.4795 -0.8192  0.1356
15770SOL     OW52156   4.208   7.419   1.245 -0.0602  0.2858 -0.1181
15770SOL    HW152157   4.275   7.358   1.275  1.0549 -0.5246 -3.7182
15770SOL    HW252158   4.250   7.505   1.249 -0.7054  0.5383  2.4624
15771SOL     OW52159   6.027   9.533   9.647 -0.5693  0.6574  0.0652
15771SOL    HW152160   6.116   9.501   9.630 -0.8460  0.0561 -0.2689
15771SOL    HW252161   5.981   9.518   9.564 -0.8565  1.4129  0.0803
15772SOL     OW52162   5.680   7.408   9.030  0.0208 -0.1455 -0.4597
15772SOL    HW152163   5.711   7.499   9.031  3.0047 -1.0602 -0.9970
15772SOL    HW252164   5.677   7.385   8.937  1.4443 -1.2269 -0.2618
15773SOL     OW52165   3.746   8.066   1.291 -0.2534  0.3683  0.7228
15773SOL    HW152166   3.672   8.127   1.287  0.1613  0.8261 -0.9841
15773SOL    HW252167   3.782   8.066   1.202 -0.3521 -2.5469  0.5832
15774SOL     OW52168   3.487   7.703   0.374 -0.3813 -0.7140 -0.5124
15774SOL    HW152169   3.467   7.794   0.396 -0.9608 -0.8744 -0.3656
15774SOL    HW252170   3.447   7.652   0.444  1.7036 -0.9918  0.5592
15775SOL     OW52171   4.464   7.468   3.441  0.8824  0.5319 -0.2825
15775SOL    HW152172   4.417   7.550   3.448  1.8306  0.9657  1.8027
15775SOL    HW252173   4.400   7.400   3.463  0.9718  1.0607  1.8361
15776SOL     OW52174   3.169   8.850   9.609 -0.5166  0.1617 -0.3013
15776SOL    HW152175   3.216   8.779   9.652  0.8607  0.7888 -0.6896
15776SOL    HW252176   3.150   8.816   9.521  0.5300  0.4031 -0.6370
15777SOL     OW52177   4.132   6.991   0.331 -0.2513 -0.2040  0.0054
15777SOL    HW152178   4.139   6.932   0.406  1.4430  0.3559  0.3406
15777SOL    HW252179   4.177   6.944   0.260  0.2937  0.2778  0.0239
15778SOL     OW52180   3.584   8.254   2.447  0.2776 -0.1663 -1.2518
15778SOL    HW152181   3.629   8.171   2.436 -0.1801 -0.4707 -0.8310
15778SOL    HW252182   3.654   8.319   2.446  0.9178 -0.7498  0.9539
15779SOL     OW52183   5.841   0.114   1.403 -0.1728 -0.1153  0.0465
15779SOL    HW152184   5.756   0.090   1.366 -1.1908 -1.4603  2.9079
15779SOL    HW252185   5.897   0.039   1.385 -0.7683 -0.9236  1.3507
15780SOL     OW52186   5.401   9.176   9.579  0.2031 -0.3946 -0.4140
15780SOL    HW152187   5.437   9.137   9.658  1.9617 -0.5175 -1.2233
15780SOL    HW252188   5.312   9.202   9.603  1.1198  0.8117  2.0103
15781SOL     OW52189   5.105   5.557   0.985  0.1335  0.1517  0.0697
15781SOL    HW152190   5.159   5.500   1.040  0.4646  0.4158  0.0252
15781SOL    HW252191   5.072   5.624   1.046  2.1606  1.6574 -0.3713
15782SOL     OW52192   4.429   8.623   1.910  0.3094  0.1212  0.2910
15782SOL    HW152193   4.451   8.590   1.823  0.6147 -0.1122  0.4561
15782SOL    HW252194   4.341   8.659   1.900  0.7193  0.9731 -0.3484
15783SOL     OW52195   6.175   7.243   0.653  0.1555 -0.7151  0.1290
15783SOL    HW152196   6.237   7.212   0.586 -0.4136  0.0299 -0.7837
15783SOL    HW252197   6.091   7.207   0.625 -0.4056  1.0573 -0.6103
15784SOL     OW52198   4.013   4.825   7.835 -0.9423 -0.3919  0.0149
15784SOL    HW152199   3.965   4.751   7.798 -1.1646 -0.8742  1.2117
15784SOL    HW252200   4.054   4.789   7.914  1.9647 -0.1718 -1.2999
15785SOL     OW52201   3.957   8.642   0.665 -0.4411  0.5147 -0.0447
15785SOL    HW152202   4.019   8.698   0.618 -1.0405  1.5071  0.3109
15785SOL    HW252203   3.921   8.699   0.733 -1.3917 -0.1847  0.0481
15786SOL     OW52204   4.217   7.976   1.665 -0.1671 -0.0354 -0.1018
15786SOL    HW152205   4.201   7.954   1.573  0.3196 -0.3773 -0.1108
15786SOL    HW252206   4.229   8.071   1.666 -0.2169 -0.0257 -0.3836
15787SOL     OW52207   4.840   8.388   0.657  0.5510  0.0386  0.1633
15787SOL    HW152208   4.838   8.348   0.744  0.0442  0.6547  0.4441
15787SOL    HW252209   4.834   8.315   0.596  1.4137 -0.4396  0.6354
15788SOL     OW52210   7.433   9.537   7.401 -0.7809 -0.5078  0.4505
15788SOL    HW152211   7.414   9.505   7.313 -0.7079  0.3138  0.1264
15788SOL    HW252212   7.460   9.628   7.388 -2.1980  0.0836  1.4723
15789SOL     OW52213   5.153   8.072   0.660  0.1718 -0.5245 -0.5773
15789SOL    HW152214   5.234   8.027   0.683  0.5230 -1.0329 -2.6410
15789SOL    HW252215   5.110   8.089   0.744  1.5389 -1.8766  0.4350
15790SOL     OW52216   5.024   7.477   9.702  0.1042  0.3669 -0.4621
15790SOL    HW152217   5.118   7.463   9.704 -0.0623 -0.7707  0.8668
15790SOL    HW252218   5.000   7.463   9.610  1.2617  1.0607 -0.8890
15791SOL     OW52219   3.025   9.573   8.976 -0.1116 -0.1734  0.1179
15791SOL    HW152220   3.012   9.650   8.921  0.6092 -0.1546 -0.0420
15791SOL    HW252221   3.103   9.530   8.939  1.1621  0.5058  1.8794
15792SOL     OW52222   5.639   8.615   3.695 -1.0956 -0.4304  0.2401
15792SOL    HW152223   5.554   8.649   3.667 -0.7577 -0.8991 -1.5015
15792SOL    HW252224   5.673   8.570   3.617  0.6429 -0.4486  0.9707
15793SOL     OW52225   4.456   8.632   1.619 -0.0542  0.4356  0.1586
15793SOL    HW152226   4.367   8.667   1.624 -0.8738 -1.5628  0.4999
15793SOL    HW252227   4.457   8.580   1.538  0.7745  0.3287  0.2282
15794SOL     OW52228   6.550   7.127   1.066  0.3999  0.1352 -0.1086
15794SOL    HW152229   6.588   7.138   1.154 -0.8616  0.5083  0.4094
15794SOL    HW252230   6.479   7.064   1.078  0.6573 -0.3463 -1.0121
15795SOL     OW52231   6.005   8.900   2.705 -0.6065 -0.2028 -0.3067
15795SOL    HW152232   5.912   8.901   2.684 -0.5316  0.1591 -0.6398
15795SOL    HW252233   6.043   8.837   2.644 -0.4937  0.3498 -0.8250
15796SOL     OW52234   3.501   6.761   0.166  0.3929  0.3744 -0.6268
15796SOL    HW152235   3.521   6.755   0.259  1.4785  0.4986 -0.8341
15796SOL    HW252236   3.582   6.735   0.122  0.3479  1.6279 -1.5268
15797SOL     OW52237   4.279   9.822   0.066 -0.1278 -0.1545 -0.4679
15797SOL    HW152238   4.339   9.749   0.078 -0.1033 -0.2205 -0.9691
15797SOL    HW252239   4.216   9.791   0.001 -0.7526 -0.1181  0.1172
15798SOL     OW52240   2.063   7.366   1.248  0.1789 -0.0446 -0.6764
15798SOL    HW152241   2.147   7.332   1.218  0.4380  1.8749 -2.3278
15798SOL    HW252242   2.050   7.446   1.198 -2.6396 -0.2595 -0.4769
15799SOL     OW52243   6.272   7.970   9.739  0.7814  0.6902 -0.4029
15799SOL    HW152244   6.297   8.017   9.660  1.1004 -1.5616 -1.7331
15799SOL    HW252245   6.321   7.888   9.735 -0.6102 -0.2963  1.1836
15800SOL     OW52246   5.635   8.328   9.394  0.4507  0.0216 -0.4361
15800SOL    HW152247   5.573   8.262   9.363  2.7776 -2.2386 -0.6221
15800SOL    HW252248   5.659   8.378   9.316  0.7950 -0.8393 -0.8998
15801SOL     OW52249   3.565   6.236   0.213 -0.0600 -0.0585 -0.1301
15801SOL    HW152250   3.501   6.235   0.141 -0.0658 -0.7317 -0.1147
15801SOL    HW252251   3.551   6.321   0.255 -0.4941  0.0741 -0.5299
15802SOL     OW52252   3.718   9.790   1.619 -0.7126  0.5279  0.2083
15802SOL    HW152253   3.813   9.798   1.622 -0.6124 -0.1354 -0.7592
15802SOL    HW252254   3.696   9.738   1.697 -0.2036  0.0514  0.0437
15803SOL     OW52255   2.965   0.004   2.087  0.8990  0.3002  0.1063
15803SOL    HW152256   2.945  -0.049   2.164  1.6276  0.5068  0.4362
15803SOL    HW252257   2.887   0.059   2.075 -0.2945 -1.4737 -0.7980
15804SOL     OW52258   5.176   4.965   1.084  0.0294  0.0052 -0.0010
15804SOL    HW152259   5.213   5.007   1.161 -2.2859 -0.3291  1.3701
15804SOL    HW252260   5.082   4.959   1.102 -1.0120  1.9397 -3.8077
15805SOL     OW52261   3.668   8.314   9.826  0.2126 -0.0640 -0.1098
15805SOL    HW152262   3.708   8.307   9.740  1.1154 -1.0295  0.3538
15805SOL    HW252263   3.723   8.377   9.873  2.3302 -2.5213  1.0383
15806SOL     OW52264   5.926   5.928   1.439 -0.5125  0.2948 -0.3511
15806SOL    HW152265   5.953   5.977   1.516  0.5286 -0.6259 -0.0945
15806SOL    HW252266   5.845   5.884   1.466  0.1680 -0.5207  0.4738
15807SOL     OW52267   4.216   9.169   1.831 -0.3949  0.4047 -0.3597
15807SOL    HW152268   4.287   9.204   1.778 -0.0916  0.2676 -0.0457
15807SOL    HW252269   4.243   9.080   1.852 -0.3245  0.5855  0.3519
15808SOL     OW52270   4.082   9.106   8.303  0.4807 -0.5516  0.2772
15808SOL    HW152271   4.086   9.014   8.279  0.7448 -0.2992 -0.7152
15808SOL    HW252272   4.121   9.152   8.228 -0.9842  0.4629  0.0799
15809SOL     OW52273   2.961   8.734   2.166 -0.1611  0.6251 -0.2694
15809SOL    HW152274   3.004   8.800   2.220 -1.6349 -0.9797  3.2017
15809SOL    HW252275   2.874   8.723   2.206 -0.3942 -2.6055 -1.3111
15810SOL     OW52276   3.307   4.287   3.042  0.4847 -0.4116  0.5115
15810SOL    HW152277   3.287   4.295   3.136  0.0113 -2.3455  0.6314
15810SOL    HW252278   3.222   4.267   3.002  0.9265 -1.1242 -0.0864
15811SOL     OW52279   3.368   5.277   4.633  0.3255  0.3131  0.0541
15811SOL    HW152280   3.384   5.183   4.639  1.7551  0.4680 -0.9386
15811SOL    HW252281   3.440   5.317   4.682 -0.1683  0.8956  0.3159
15812SOL     OW52282   3.198   9.699   1.381 -0.1857  0.8779  0.4220
15812SOL    HW152283   3.253   9.635   1.336 -1.3001 -0.6789  1.1774
15812SOL    HW252284   3.217   9.686   1.474 -1.8826  0.2199  0.7021
15813SOL     OW52285   4.942   0.646   3.039 -0.0994  0.0575 -0.0523
15813SOL    HW152286   4.935   0.678   2.950 -2.3407  1.4226  0.5216
15813SOL    HW252287   5.003   0.572   3.034  0.4266  0.5836 -2.5331
15814SOL     OW52288   5.011   6.934   5.242 -0.2550 -0.4297  0.4918
15814SOL    HW152289   5.069   6.953   5.169  0.0124 -0.1231  0.7811
15814SOL    HW252290   4.986   6.842   5.230  1.5617 -1.0682  1.2269
15815SOL     OW52291   6.000   0.254   2.939 -0.3338  0.4163 -0.7381
15815SOL    HW152292   5.951   0.174   2.957  1.4045 -1.7421 -4.3414
15815SOL    HW252293   5.961   0.288   2.858  1.0932  1.2526 -1.1105
15816SOL     OW52294   3.767   9.023   2.652 -0.0745  0.2161  0.2257
15816SOL    HW152295   3.761   9.071   2.734  1.1128  0.0609  0.4269
15816SOL    HW252296   3.679   9.024   2.617 -0.9480 -0.9558  2.2096
15817SOL     OW52297   4.872   7.295   4.931 -0.0338 -0.1357 -0.2717
15817SOL    HW152298   4.928   7.307   5.007  0.9200 -1.2073 -0.7805
15817SOL    HW252299   4.931   7.264   4.862 -0.7967  1.1503 -1.5658
15818SOL     OW52300   3.719   7.708   4.064 -0.2890  0.5618 -0.1036
15818SOL    HW152301   3.744   7.797   4.037 -0.5690  0.4895 -0.6014
15818SOL    HW252302   3.663   7.676   3.994  0.5858 -0.3773 -0.4019
15819SOL     OW52303   5.461   6.352   1.030  0.4616  0.1138  0.4688
15819SOL    HW152304   5.510   6.395   0.959 -0.0268  0.4423  0.3325
15819SOL    HW252305   5.373   6.386   1.023  0.7346  1.2668  2.1581
15820SOL     OW52306   3.995   7.091   3.421  0.0844 -0.5750 -0.4645
15820SOL    HW152307   4.015   7.171   3.372 -0.3127  0.3815  0.8576
15820SOL    HW252308   4.077   7.042   3.422 -0.9201 -3.1800 -6.2641
15821SOL     OW52309   4.480   8.544   1.073 -0.4075  0.0238  0.5527
15821SOL    HW152310   4.391   8.578   1.066 -0.3588  0.5110  1.8887
15821SOL    HW252311   4.515   8.547   0.984 -0.8092  2.4185  0.4131
15822SOL     OW52312   7.346   7.480   2.981 -0.5890  0.2059 -0.0665
15822SOL    HW152313   7.251   7.477   2.992 -0.5698  1.8187  0.8386
15822SOL    HW252314   7.359   7.539   2.906 -0.2811  1.3684  0.8751
15823SOL     OW52315   7.034   9.479   1.437  0.1696 -0.1723  0.7855
15823SOL    HW152316   7.034   9.498   1.344  0.3320 -1.4120  0.5160
15823SOL    HW252317   6.946   9.505   1.467 -0.5584 -1.4973 -0.1022
15824SOL     OW52318   4.385   9.638   4.387  0.6875 -0.0164  0.1495
15824SOL    HW152319   4.441   9.715   4.399  2.8773 -1.6464  1.1062
15824SOL    HW252320   4.332   9.634   4.467  0.4991  0.5149  0.0570
15825SOL     OW52321   3.683   8.945   5.645 -0.1020 -1.3182  0.2992
15825SOL    HW152322   3.754   8.913   5.590 -0.2892 -1.3264  0.0648
15825SOL    HW252323   3.725   8.960   5.731  0.0890 -1.7252  0.2787
15826SOL     OW52324   3.596   8.973   1.612 -0.0384  0.4457 -0.5705
15826SOL    HW152325   3.556   9.049   1.653  1.5180  0.9285  0.1542
15826SOL    HW252326   3.598   8.993   1.519 -2.1569  0.0448 -0.7465
15827SOL     OW52327   3.645   8.632   3.236 -0.0788 -0.1681  0.6113
15827SOL    HW152328   3.655   8.538   3.225  0.8730 -0.1797  1.4489
15827SOL    HW252329   3.551   8.648   3.226 -0.0624 -0.9711 -1.1178
15828SOL     OW52330   2.369   7.554   3.681 -0.0647 -0.1561  0.2311
15828SOL    HW152331   2.409   7.511   3.757 -1.0821  1.3766  1.6949
15828SOL    HW252332   2.389   7.647   3.693 -2.4127  0.4235 -0.0153
15829SOL     OW52333   3.484   8.972   3.078  0.4625  0.2585 -0.1634
15829SOL    HW152334   3.390   8.962   3.092  0.5477  1.1020  1.1931
15829SOL    HW252335   3.523   8.960   3.164  1.5571  0.3955 -0.6222
15830SOL     OW52336   4.409   7.003   2.988 -0.1346 -0.0667 -0.6376
15830SOL    HW152337   4.327   7.048   3.009 -0.2704 -0.2865 -0.7016
15830SOL    HW252338   4.444   7.052   2.913  0.2321  0.5713 -0.0637
15831SOL     OW52339   2.656   8.736   4.872  0.7410 -0.2168  0.4631
15831SOL    HW152340   2.673   8.718   4.779 -0.4327 -0.2639  0.2470
15831SOL    HW252341   2.671   8.830   4.881  0.3270 -0.1154  0.1035
15832SOL     OW52342   4.253   0.427   2.671  0.0791  0.3934 -0.0884
15832SOL    HW152343   4.302   0.356   2.630  0.8572 -0.0419  1.5198
15832SOL    HW252344   4.305   0.505   2.652  0.8436  0.0883  0.6671
15833SOL     OW52345   4.492   9.195   2.097 -0.4917 -0.3743  0.8609
15833SOL    HW152346   4.470   9.278   2.054  2.1485 -0.6399 -1.3035
15833SOL    HW252347   4.564   9.218   2.155  1.6658 -1.3201 -1.2526
15834SOL     OW52348   6.988   6.801   4.185  0.4289  0.2695 -0.2359
15834SOL    HW152349   7.029   6.819   4.101  1.0979  1.4543  0.3162
15834SOL    HW252350   7.058   6.761   4.238  0.8954  2.1930  0.6732
15835SOL     OW52351   5.711   7.981   9.739 -0.2073  0.2471 -0.6352
15835SOL    HW152352   5.756   7.929   9.673  0.7138 -0.4438  0.5058
15835SOL    HW252353   5.621   7.947   9.740 -0.0634 -0.1567 -1.0851
15836SOL     OW52354   3.086   8.541   4.128  0.5647 -0.0921 -0.3875
15836SOL    HW152355   3.152   8.534   4.059  0.5072 -1.4765 -0.3354
15836SOL    HW252356   3.049   8.628   4.117  2.4245  0.7666 -0.3811
15837SOL     OW52357   3.969   0.226   3.157 -0.0311 -0.6064 -0.0806
15837SOL    HW152358   3.919   0.184   3.226 -1.5900 -0.9145 -1.3212
15837SOL    HW252359   4.004   0.306   3.197 -0.4877 -1.0185  1.1724
15838SOL     OW52360   5.253   1.515   3.029  0.4738  0.1516  0.4305
15838SOL    HW152361   5.240   1.538   3.121  0.3021 -1.3182  0.7958
15838SOL    HW252362   5.167   1.529   2.989  0.9919  2.7187 -0.0110
15839SOL     OW52363   6.101   6.911   2.304 -0.1471 -0.3490 -0.8532
15839SOL    HW152364   6.132   6.981   2.246 -0.0390 -0.6140 -1.1169
15839SOL    HW252365   6.021   6.946   2.344 -0.2059 -0.1564 -1.1421
15840SOL     OW52366   5.097   6.039   2.241 -0.0448 -0.1258 -0.4577
15840SOL    HW152367   5.109   6.134   2.240  1.0469 -0.2531 -0.7057
15840SOL    HW252368   5.099   6.016   2.334 -1.5183  0.2132 -0.3165
15841SOL     OW52369   4.103   9.814   3.880  0.3374  0.2249 -0.0995
15841SOL    HW152370   4.067   9.758   3.812  4.0074 -0.5849 -1.5975
15841SOL    HW252371   4.034   9.819   3.947 -2.2197 -1.4673 -2.4225
15842SOL     OW52372   3.244   9.595   2.254  0.0623 -0.0153  0.6696
15842SOL    HW152373   3.210   9.678   2.286  0.5663  0.6412 -0.4543
15842SOL    HW252374   3.325   9.582   2.302 -0.6183 -0.4730  1.7234
15843SOL     OW52375   2.483   9.067   5.561 -0.1875 -0.3894  0.0038
15843SOL    HW152376   2.428   9.121   5.503  0.2001  0.4130  0.3673
15843SOL    HW252377   2.424   9.042   5.632 -0.0152  0.7601  0.5729
15844SOL     OW52378   4.819   8.017   5.318 -0.0908 -0.0790  0.1140
15844SOL    HW152379   4.756   8.047   5.252  0.0129  0.7445  0.3752
15844SOL    HW252380   4.859   7.940   5.279  0.2455  0.6132 -0.9656
15845SOL     OW52381   4.171   7.564   2.801  0.0235  0.1556  0.5010
15845SOL    HW152382   4.174   7.645   2.852  0.4426  0.9167 -0.6737
15845SOL    HW252383   4.126   7.590   2.720  2.1649 -0.1993 -0.8660
15846SOL     OW52384   4.266   8.685   3.657 -0.0960 -0.0512  0.1789
15846SOL    HW152385   4.249   8.776   3.680 -0.4171 -0.4262  1.4850
15846SOL    HW252386   4.221   8.672   3.573 -0.2052  0.9273  0.0852
15847SOL     OW52387   7.526   8.569   4.349  0.0976  0.5136  0.6637
15847SOL    HW152388   7.534   8.605   4.438 -0.3530 -0.0289  0.9277
15847SOL    HW252389   7.449   8.513   4.353  0.0161  0.5717 -0.1064
15848SOL     OW52390   6.430   1.146   1.002 -0.4122 -0.5491  0.4751
15848SOL    HW152391   6.390   1.094   0.932 -0.5898 -0.3174  0.4026
15848SOL    HW252392   6.420   1.237   0.973 -0.5721 -0.4489  0.8486
15849SOL     OW52393   0.836   7.672   1.917 -0.1023  0.1093 -0.3264
15849SOL    HW152394   0.826   7.725   1.838 -0.5810 -1.5933 -1.4725
15849SOL    HW252395   0.825   7.734   1.989  0.7770  1.7995 -1.5708
15850SOL     OW52396   4.420   6.488   1.730  0.7905  0.1175  0.9205
15850SOL    HW152397   4.412   6.429   1.805 -1.3293 -0.4310  0.3358
15850SOL    HW252398   4.482   6.444   1.672  2.2931  0.4461  2.2337
15851SOL     OW52399   4.149   6.207   2.638 -0.5916  0.2826  0.1977
15851SOL    HW152400   4.155   6.151   2.560 -0.2501  0.4584  0.0967
15851SOL    HW252401   4.145   6.145   2.711 -2.1431  0.0844 -0.0229
15852SOL     OW52402   6.365   8.323   3.633  0.5487  0.6503 -0.2046
15852SOL    HW152403   6.417   8.312   3.713 -0.3182  0.3721  0.3390
15852SOL    HW252404   6.395   8.253   3.575 -1.3718 -1.5946  1.3002
15853SOL     OW52405   3.208   7.713   3.594  0.2188 -0.8474  0.1442
15853SOL    HW152406   3.193   7.766   3.516 -1.0399 -2.2111 -0.5800
15853SOL    HW252407   3.275   7.650   3.566 -0.4078 -1.4887  0.0835
15854SOL     OW52408   6.054   8.173   4.559  0.0681 -0.2602 -0.4946
15854SOL    HW152409   6.069   8.080   4.574 -1.5746 -0.5127 -0.1362
15854SOL    HW252410   6.017   8.205   4.641 -3.2296 -0.2569 -1.8038
15855SOL     OW52411   4.294   7.274   5.601  0.6815  0.0964  0.0052
15855SOL    HW152412   4.359   7.334   5.564  1.2297 -0.2910  0.3130
15855SOL    HW252413   4.246   7.326   5.665  0.6861  0.3901 -0.2301
15856SOL     OW52414   4.056   8.079   2.972  0.8059  0.2422  0.5434
15856SOL    HW152415   4.130   8.102   3.028  1.7272  1.1945 -0.9966
15856SOL    HW252416   4.054   8.147   2.904 -0.8540 -0.3280 -0.0517
15857SOL     OW52417   3.901   6.146   3.896  0.2403  0.1550  0.4564
15857SOL    HW152418   3.952   6.075   3.858  1.3719  0.4821  1.3325
15857SOL    HW252419   3.959   6.222   3.895 -0.7337  0.9145  0.1234
15858SOL     OW52420   5.211   7.344   1.747 -0.1887  0.2871  0.0397
15858SOL    HW152421   5.179   7.407   1.681 -1.8763 -0.4368  0.1118
15858SOL    HW252422   5.283   7.298   1.703  2.2343  3.2601  0.5174
15859SOL     OW52423   4.971   1.088   9.826 -0.0276  0.7028  0.3387
15859SOL    HW152424   4.914   1.069   9.752 -0.6069 -1.1181  1.2022
15859SOL    HW252425   5.025   1.010   9.836 -0.1235  0.8034  1.9808
15860SOL     OW52426   7.330   6.537   1.722 -0.6070 -0.3284  0.0736
15860SOL    HW152427   7.390   6.475   1.762  0.4098 -0.5065 -1.6174
15860SOL    HW252428   7.253   6.485   1.699  0.0459 -0.9002 -0.9063
15861SOL     OW52429   6.446   9.555   3.399 -0.1853  0.1310 -0.7791
15861SOL    HW152430   6.527   9.603   3.382 -1.1915  1.1117 -3.2450
15861SOL    HW252431   6.396   9.612   3.457  0.3441  0.1131 -0.2966
15862SOL     OW52432   5.908   7.563   5.127  0.3123  0.1321  0.0225
15862SOL    HW152433   5.993   7.592   5.093 -0.2607 -0.1686 -1.8279
15862SOL    HW252434   5.884   7.630   5.191  0.5970  1.9248 -1.6408
15863SOL     OW52435   4.949   6.812   4.778  0.0134  0.2250 -0.8562
15863SOL    HW152436   5.039   6.841   4.794  0.1611  0.2512 -1.6917
15863SOL    HW252437   4.955   6.717   4.772  0.4374  0.3502 -3.4240
15864SOL     OW52438   4.797   6.220   2.251 -0.0795 -0.1195  0.0877
15864SOL    HW152439   4.882   6.259   2.267  0.6399 -1.5649 -0.0687
15864SOL    HW252440   4.740   6.294   2.229  1.2707  0.7939 -0.4226
15865SOL     OW52441   1.027   9.271   2.940  0.0242  0.0693  0.1952
15865SOL    HW152442   0.939   9.236   2.927 -0.9406  2.2196  0.3972
15865SOL    HW252443   1.065   9.275   2.853 -0.2616 -0.4158  0.0455
15866SOL     OW52444   6.144   8.426   3.900 -0.2866  0.3277 -0.3581
15866SOL    HW152445   6.181   8.504   3.941 -0.3125  0.5074 -0.6668
15866SOL    HW252446   6.128   8.453   3.809 -0.3527 -0.0190 -0.4504
15867SOL     OW52447   5.528   7.030   2.410  0.5245  0.0196 -0.2455
15867SOL    HW152448   5.443   6.990   2.389  0.3837 -0.5859  1.3430
15867SOL    HW252449   5.522   7.119   2.374 -1.1678  0.3180  0.6713
15868SOL     OW52450   6.152   8.475   0.262  0.4607 -0.6202 -1.2616
15868SOL    HW152451   6.142   8.540   0.331  0.5807  0.1546 -1.9558
15868SOL    HW252452   6.185   8.397   0.306  1.0292  0.0254 -0.5343
15869SOL     OW52453   3.554   9.357   3.580 -0.4524 -0.2318 -0.3350
15869SOL    HW152454   3.560   9.436   3.526 -0.3309 -0.3818 -0.5462
15869SOL    HW252455   3.592   9.382   3.664 -0.8024  0.0534 -0.2621
15870SOL     OW52456   3.657   7.976   2.368  0.2279 -0.2982  0.3409
15870SOL    HW152457   3.574   7.957   2.410 -0.5887 -0.5618 -1.3396
15870SOL    HW252458   3.701   7.891   2.360 -1.1379 -0.8640 -2.3861
15871SOL     OW52459   6.054   7.786   1.896 -0.0736 -0.1245  0.5517
15871SOL    HW152460   6.088   7.863   1.942  0.2198 -1.0751  1.9768
15871SOL    HW252461   5.961   7.806   1.883 -0.2963 -0.0559  2.0730
15872SOL     OW52462   7.045   9.823   3.243 -0.2622  0.1052 -0.6577
15872SOL    HW152463   7.056   9.762   3.170 -0.5939 -0.5177 -0.1906
15872SOL    HW252464   6.955   9.855   3.234 -0.8935 -1.2595  0.4379
15873SOL     OW52465   4.472   5.329   3.172 -0.8056 -0.2914 -0.3679
15873SOL    HW152466   4.557   5.331   3.127  0.5811  1.1660  2.0767
15873SOL    HW252467   4.464   5.239   3.204  0.6283 -0.0818  0.7013
15874SOL     OW52468   2.074   8.589   4.525 -0.3958 -0.3483  0.3072
15874SOL    HW152469   2.091   8.546   4.442  0.8260  0.2946  0.2004
15874SOL    HW252470   1.986   8.561   4.550 -1.0858  0.0632 -1.5655
15875SOL     OW52471   3.442   7.645   3.101  0.4720  0.4149 -0.5364
15875SOL    HW152472   3.453   7.614   3.011  0.1559 -0.0321 -0.4210
15875SOL    HW252473   3.361   7.604   3.131  0.5991  0.5295 -0.0310
15876SOL     OW52474   4.844   8.648   0.957  1.1137  0.1511  0.2409
15876SOL    HW152475   4.913   8.676   0.896  2.1090 -1.2988  0.6595
15876SOL    HW252476   4.869   8.560   0.983 -0.3567 -0.0051  1.2377
15877SOL     OW52477   2.397   8.553   1.731  0.3251 -0.6525  0.4234
15877SOL    HW152478   2.388   8.613   1.805  1.3456 -0.1304  0.1379
15877SOL    HW252479   2.401   8.609   1.654 -1.2745 -1.2087 -0.1259
15878SOL     OW52480   4.177   6.363   1.072 -0.7876 -0.5068  0.0165
15878SOL    HW152481   4.168   6.428   1.142  1.5053  0.7741 -0.7949
15878SOL    HW252482   4.110   6.389   1.008 -0.2006  0.8019 -0.0923
15879SOL     OW52483   3.555   8.983   2.230 -0.0153 -0.1028  0.3271
15879SOL    HW152484   3.502   8.908   2.257 -0.8112  0.7433  1.1843
15879SOL    HW252485   3.492   9.046   2.196  0.7943 -0.3899 -1.8506
15880SOL     OW52486   6.631   6.398   1.776  0.1547 -0.1979 -0.0362
15880SOL    HW152487   6.535   6.398   1.779  0.1054 -0.3135 -1.1645
15880SOL    HW252488   6.655   6.306   1.777  0.2286 -0.1818 -0.3513
15881SOL     OW52489   4.372   5.663   1.729 -0.0873 -0.1988 -0.3867
15881SOL    HW152490   4.345   5.646   1.638 -1.2274 -1.5918  0.1787
15881SOL    HW252491   4.434   5.592   1.749  1.9684  1.4018 -0.7709
15882SOL     OW52492   4.893   7.572   2.512 -0.4190 -0.3465  0.2673
15882SOL    HW152493   4.950   7.620   2.451 -1.5674  2.2352  1.0808
15882SOL    HW252494   4.810   7.563   2.467 -0.7036 -0.1041  0.7291
15883SOL     OW52495   6.580   6.594   1.408  0.1826  0.0958  0.0947
15883SOL    HW152496   6.558   6.509   1.368  1.2050 -1.3273  2.3625
15883SOL    HW252497   6.551   6.658   1.344  0.0381 -1.9724 -2.0582
15884SOL     OW52498   5.459   8.001   4.106  0.1532  0.3533  0.1014
15884SOL    HW152499   5.395   7.969   4.170  0.2777 -0.2102 -0.0446
15884SOL    HW252500   5.471   8.093   4.127 -0.6397  0.4431  0.1946
15885SOL     OW52501   4.073   9.698   9.752 -0.3988 -0.5573 -0.1954
15885SOL    HW152502   4.057   9.630   9.818  1.0569  0.1077  0.8732
15885SOL    HW252503   4.097   9.649   9.673  0.9365 -1.3084  0.6461
15886SOL     OW52504   5.022   7.954   5.520 -0.5764 -0.0095  0.4116
15886SOL    HW152505   4.962   7.977   5.449 -1.0694  0.1546  0.8649
15886SOL    HW252506   5.101   8.004   5.502  0.1105 -1.5775 -1.1712
15887SOL     OW52507   2.444   8.001   1.828  0.7617  0.7552  0.7400
15887SOL    HW152508   2.492   8.052   1.763  1.4946 -1.6687 -0.7628
15887SOL    HW252509   2.354   7.999   1.796  0.5609  1.6670  1.2101
15888SOL     OW52510   4.544   6.400   1.487  0.4748 -0.3084  0.2102
15888SOL    HW152511   4.553   6.309   1.514 -1.3718 -1.0416 -1.3450
15888SOL    HW252512   4.579   6.401   1.397 -0.3020  0.3012 -0.0928
15889SOL     OW52513   4.260   0.028   3.128  0.5986  0.2770 -0.0352
15889SOL    HW152514   4.177   0.069   3.104  0.5182  0.8267  1.1289
15889SOL    HW252515   4.325   0.097   3.118  1.0678 -0.3323 -1.6184
15890SOL     OW52516   4.738   7.034   3.798 -0.1049  0.1027  0.8548
15890SOL    HW152517   4.706   6.953   3.759  1.1073  0.8296 -1.8478
15890SOL    HW252518   4.659   7.081   3.826 -0.9870 -0.7340 -0.1894
15891SOL     OW52519   4.401   8.774   2.323  0.0244 -0.9321 -0.0062
15891SOL    HW152520   4.402   8.827   2.243 -0.5284 -0.3455  0.3677
15891SOL    HW252521   4.493   8.762   2.345  0.1623 -0.3797 -0.2654
15892SOL     OW52522   2.813   0.778   3.127 -0.3136 -0.0848  0.7706
15892SOL    HW152523   2.849   0.831   3.057 -1.5634 -0.5896 -0.3062
15892SOL    HW252524   2.740   0.731   3.086 -0.4607 -1.1402  2.1671
15893SOL     OW52525   7.368   2.049   3.496  0.6988  0.1838  0.1736
15893SOL    HW152526   7.300   2.092   3.443 -0.0609 -0.7682  0.3483
15893SOL    HW252527   7.340   2.063   3.587  1.3156  0.7031  0.2914
15894SOL     OW52528   6.848   7.257   2.981  0.0022  0.1871  0.4719
15894SOL    HW152529   6.920   7.208   2.942 -1.9178 -2.1908 -0.3695
15894SOL    HW252530   6.841   7.223   3.070 -0.2626  0.1717  0.4473
15895SOL     OW52531   5.526   0.668   1.792  0.1540  0.3394  0.3096
15895SOL    HW152532   5.579   0.589   1.788  0.6293  0.6920 -0.7122
15895SOL    HW252533   5.450   0.649   1.737 -0.6016 -0.0091  1.4300
15896SOL     OW52534   4.612   6.981   0.345  0.4226 -0.1504  0.2209
15896SOL    HW152535   4.533   7.029   0.367 -0.7256 -1.3555 -1.1076
15896SOL    HW252536   4.617   6.911   0.410  1.3764  0.9230  1.3502
15897SOL     OW52537   5.709   9.244   2.829  0.1184  0.1960  0.4646
15897SOL    HW152538   5.803   9.265   2.826  0.0602  0.4637  0.4526
15897SOL    HW252539   5.666   9.330   2.834 -0.1884  0.1430 -0.8908
15898SOL     OW52540   4.358   0.273   4.338  0.4547  0.3080  0.1796
15898SOL    HW152541   4.382   0.201   4.397  1.2301 -0.9748 -1.6062
15898SOL    HW252542   4.275   0.245   4.299  0.0596  1.0402  0.4877
15899SOL     OW52543   5.804   9.584   2.535  0.7546  0.3559  0.1759
15899SOL    HW152544   5.883   9.566   2.483 -0.8896 -0.5810 -2.1985
15899SOL    HW252545   5.778   9.498   2.569 -1.1810 -0.1087 -2.1784
15900SOL     OW52546   4.452   8.364   2.027 -0.2291 -0.0556 -0.2696
15900SOL    HW152547   4.423   8.353   2.118 -1.5048  1.8035 -0.4001
15900SOL    HW252548   4.461   8.458   2.015 -2.2303 -0.0569 -2.6632
15901SOL     OW52549   4.789   6.381   4.175  0.1283  0.6895 -0.1181
15901SOL    HW152550   4.811   6.421   4.091  1.0176 -0.8784 -0.6812
15901SOL    HW252551   4.833   6.436   4.240  1.2491  0.6962 -0.8510
15902SOL     OW52552   6.757   8.384   4.081 -0.0645 -0.5048 -0.3671
15902SOL    HW152553   6.767   8.402   3.988 -0.8066 -0.9075 -0.5246
15902SOL    HW252554   6.845   8.397   4.117  0.2645 -0.5293 -1.1491
15903SOL     OW52555   6.185   6.216   2.131  0.2607 -0.9454 -1.1324
15903SOL    HW152556   6.093   6.212   2.104 -0.1833 -1.2285  0.3548
15903SOL    HW252557   6.211   6.124   2.140 -0.1548 -0.8975  1.0877
15904SOL     OW52558   3.578   6.795   2.516  0.1265 -0.6527 -0.1260
15904SOL    HW152559   3.538   6.882   2.520 -0.0930 -0.8117  2.2545
15904SOL    HW252560   3.559   6.755   2.601  2.4565 -2.0435 -0.1704
15905SOL     OW52561   4.793   6.911   0.711 -0.7414  0.4599  0.1410
15905SOL    HW152562   4.742   6.966   0.771 -3.0582 -0.6251 -0.7126
15905SOL    HW252563   4.727   6.867   0.657  1.1913  0.8393 -2.7523
15906SOL     OW52564   5.318   8.607   3.849  0.2659  0.2062 -0.0800
15906SOL    HW152565   5.272   8.523   3.840 -1.0306  0.6383  2.0110
15906SOL    HW252566   5.325   8.640   3.759 -0.2013 -1.5914 -0.8268
15907SOL     OW52567   4.005   7.949   2.397  0.1159  0.1352 -0.0874
15907SOL    HW152568   4.067   7.885   2.362 -1.2620 -1.2277 -0.1378
15907SOL    HW252569   3.984   7.917   2.484 -1.1010  0.1517 -0.3648
15908SOL     OW52570   3.659   5.257   3.993 -0.0656  0.3434  0.0584
15908SOL    HW152571   3.623   5.291   4.075  0.8603 -0.4884  0.8325
15908SOL    HW252572   3.603   5.182   3.972 -0.4509  0.7013 -0.2070
15909SOL     OW52573   8.130   9.187   4.758 -0.6122  0.5866 -0.4944
15909SOL    HW152574   8.144   9.092   4.754  0.4771  0.6825  0.5225
15909SOL    HW252575   8.046   9.200   4.715 -0.3084 -0.7248 -1.5717
15910SOL     OW52576   6.478   7.313   0.854 -0.4944  0.7414 -0.2833
15910SOL    HW152577   6.388   7.294   0.825 -0.3094  0.1631 -0.4965
15910SOL    HW252578   6.492   7.252   0.927 -0.4899  1.2601  0.1520
15911SOL     OW52579   4.911   7.234   3.820 -0.0122 -0.0345 -0.4429
15911SOL    HW152580   4.849   7.162   3.819  1.3663 -1.2698  0.1501
15911SOL    HW252581   4.858   7.311   3.843 -1.3837 -0.9459 -0.4446
15912SOL     OW52582   3.721   7.092   3.340 -0.5067 -0.0432 -0.5358
15912SOL    HW152583   3.754   7.154   3.275 -1.6309  0.8413 -0.2945
15912SOL    HW252584   3.800   7.058   3.382  0.2838 -1.0414 -2.6850
15913SOL     OW52585   4.848   9.660   4.075 -0.2797  0.4690 -0.3079
15913SOL    HW152586   4.846   9.707   4.159  0.3667 -0.1612  0.0646
15913SOL    HW252587   4.877   9.726   4.012  0.1483  0.7028  0.1267
15914SOL     OW52588   4.614   7.905   2.728 -0.4998 -0.0472 -0.1641
15914SOL    HW152589   4.678   7.839   2.756  0.4392  0.7694 -0.3317
15914SOL    HW252590   4.644   7.986   2.770 -1.5864  0.2986 -0.0333
15915SOL     OW52591   5.332   7.116   4.536 -0.0587  0.2947 -0.4241
15915SOL    HW152592   5.352   7.146   4.447 -0.1147  0.5356 -0.3561
15915SOL    HW252593   5.321   7.197   4.587  1.4002  0.1713  0.1269
15916SOL     OW52594   7.324   4.563   4.328 -0.0756 -0.1728 -0.4491
15916SOL    HW152595   7.401   4.506   4.329 -0.4312 -0.6676  0.9014
15916SOL    HW252596   7.338   4.625   4.400 -1.6347 -1.2736  0.8770
15917SOL     OW52597   4.818   9.842   1.854 -0.3354  0.1019  0.4234
15917SOL    HW152598   4.857   9.871   1.936  0.2605  0.9870 -0.1524
15917SOL    HW252599   4.764   9.915   1.826  0.5254  0.3596 -0.6309
15918SOL     OW52600   4.970   7.060   3.523 -0.0893 -0.1415 -0.0135
15918SOL    HW152601   4.897   7.121   3.510 -0.8979 -1.2630 -0.8530
15918SOL    HW252602   4.929   6.979   3.553  0.7068 -1.0456 -1.2738
15919SOL     OW52603   3.164   7.651   4.306  0.3448  0.0133 -0.2772
15919SOL    HW152604   3.239   7.697   4.268 -0.2872  2.2936  1.0531
15919SOL    HW252605   3.195   7.618   4.390 -0.1286  1.0289  0.3121
15920SOL     OW52606   4.173   8.675   1.237  0.5302 -0.4992 -0.2998
15920SOL    HW152607   4.210   8.587   1.230  0.3759 -0.6582  0.7300
15920SOL    HW252608   4.113   8.670   1.311 -0.0715  0.2746 -0.7210
15921SOL     OW52609   4.815   7.339   2.936  0.0798 -0.5430 -0.2380
15921SOL    HW152610   4.763   7.329   2.856 -0.0240 -0.3213 -0.1987
15921SOL    HW252611   4.784   7.421   2.975  2.6586  1.3059 -1.8248
15922SOL     OW52612   7.670   7.330   4.411 -0.5483  0.2322  0.5746
15922SOL    HW152613   7.657   7.424   4.400 -0.4749  0.1204 -0.7199
15922SOL    HW252614   7.766   7.320   4.411 -0.4225 -0.1500 -3.3386
15923SOL     OW52615   4.045   6.742   2.977 -0.0189 -0.2092  0.3211
15923SOL    HW152616   4.005   6.730   2.891 -0.2834 -2.1462  0.6761
15923SOL    HW252617   3.973   6.767   3.035 -0.8775 -3.6312  0.9475
15924SOL     OW52618   3.894   7.893   3.077  0.1645 -0.3303  0.6689
15924SOL    HW152619   3.833   7.902   3.003 -0.0290 -1.3960  0.6804
15924SOL    HW252620   3.942   7.976   3.078  0.3215 -0.3634 -0.7831
15925SOL     OW52621   3.138   7.286   4.854  0.0015  0.2588  0.1108
15925SOL    HW152622   3.195   7.236   4.914 -2.4362 -1.1648  1.3947
15925SOL    HW252623   3.085   7.341   4.911 -1.7128 -0.4059 -0.7644
15926SOL     OW52624   6.311   8.583   5.734  0.1051 -0.4118 -0.1920
15926SOL    HW152625   6.374   8.579   5.807  0.2715  1.2739 -0.2130
15926SOL    HW252626   6.361   8.554   5.658  0.6482  0.1573 -0.0638
15927SOL     OW52627   5.376   7.511   4.385  0.2759 -0.6012  0.1646
15927SOL    HW152628   5.426   7.591   4.374 -0.6551  0.2818  2.0387
15927SOL    HW252629   5.303   7.520   4.323  0.1711  0.0020  0.3695
15928SOL     OW52630   6.536   7.454   4.045  0.5209  0.2840  0.1635
15928SOL    HW152631   6.574   7.388   4.103  0.4289  0.7178  0.7156
15928SOL    HW252632   6.456   7.414   4.012  1.1081 -0.3854 -0.5110
15929SOL     OW52633   6.239   7.908   2.963  0.2438  0.4711 -0.3281
15929SOL    HW152634   6.284   7.826   2.982  0.9436  0.9980  0.3283
15929SOL    HW252635   6.303   7.976   2.983  0.3377  1.1600 -2.6139
15930SOL     OW52636   3.040   8.278   3.583  0.2092  0.8736 -0.4087
15930SOL    HW152637   3.075   8.189   3.590 -0.3862  0.5844 -1.0180
15930SOL    HW252638   2.991   8.278   3.501 -1.3237  1.2221  0.4636
15931SOL     OW52639   5.537   7.189   2.901  0.0757 -0.1099  0.5443
15931SOL    HW152640   5.574   7.267   2.859 -0.4386 -0.3309 -0.3525
15931SOL    HW252641   5.578   7.186   2.987 -0.2456  1.4233  0.7883
15932SOL     OW52642   4.069   6.969   6.298 -1.0950 -0.0475 -0.0209
15932SOL    HW152643   4.100   6.909   6.366 -0.4054 -0.1810 -0.4439
15932SOL    HW252644   4.140   6.970   6.233 -2.7393 -1.8521 -1.9992
15933SOL     OW52645   6.881   5.976   3.304  0.1990 -0.3251 -0.5473
15933SOL    HW152646   6.829   6.051   3.275 -0.1161  0.3705  1.6480
15933SOL    HW252647   6.897   5.925   3.224 -1.4999  0.8849 -1.7154
15934SOL     OW52648   3.857   9.787   2.286  0.8148  0.1786 -0.0466
15934SOL    HW152649   3.849   9.875   2.323 -0.6401  0.2703 -0.5051
15934SOL    HW252650   3.865   9.729   2.361 -1.2269  0.4412  0.4317
15935SOL     OW52651   2.895   0.391   3.444 -0.2455  0.1283 -0.0777
15935SOL    HW152652   2.936   0.307   3.421  0.2890 -0.1296  1.6519
15935SOL    HW252653   2.884   0.436   3.361  0.4876 -1.1967 -0.9300
15936SOL     OW52654   1.849   9.542   3.611  0.1824 -0.1125 -0.2965
15936SOL    HW152655   1.892   9.477   3.556 -0.9739 -0.7045 -0.5450
15936SOL    HW252656   1.840   9.619   3.554 -0.2835 -0.4483 -0.6900
15937SOL     OW52657   3.740   1.332   5.555 -0.1122  0.5466  0.2877
15937SOL    HW152658   3.755   1.380   5.473 -0.4175 -0.3079 -0.2817
15937SOL    HW252659   3.646   1.342   5.571 -0.1455  0.2728  0.2565
15938SOL     OW52660   3.212   6.512   2.949 -0.6984  0.3194  0.2358
15938SOL    HW152661   3.166   6.509   2.864 -0.4780  2.2075 -0.0050
15938SOL    HW252662   3.295   6.469   2.933 -1.1847 -0.4918 -0.1504
15939SOL     OW52663   5.200   7.872   2.569 -0.2693  0.7749  0.0096
15939SOL    HW152664   5.136   7.906   2.631 -1.0563 -0.7009  0.0583
15939SOL    HW252665   5.276   7.929   2.579 -0.4232  0.6675  2.2213
15940SOL     OW52666   4.417   6.151   3.685  0.2045  0.7964  0.7259
15940SOL    HW152667   4.466   6.068   3.686 -0.9901  0.0537  0.0729
15940SOL    HW252668   4.371   6.151   3.601 -3.0360  0.1403  2.3434
15941SOL     OW52669   4.880   9.029   9.116 -0.8875 -0.0175  0.3500
15941SOL    HW152670   4.835   9.100   9.162 -1.7606 -1.1924  1.3690
15941SOL    HW252671   4.966   9.025   9.157 -1.5893 -0.9270  1.8085
15942SOL     OW52672   3.342   9.772   3.741 -0.4827  0.6049  0.2622
15942SOL    HW152673   3.269   9.756   3.800 -1.6852  3.5912 -0.2311
15942SOL    HW252674   3.415   9.797   3.798 -0.8010  0.7267  0.6160
15943SOL     OW52675   3.021   7.732   2.460  0.2330  0.0279  0.0212
15943SOL    HW152676   3.020   7.718   2.365  1.2385 -0.6764  0.0986
15943SOL    HW252677   2.995   7.823   2.471 -3.3971 -0.7162 -0.7259
15944SOL     OW52678   3.021   9.638   3.223  0.0130  0.2201  0.7284
15944SOL    HW152679   3.068   9.667   3.302  1.8189  0.4129 -0.3626
15944SOL    HW252680   3.051   9.548   3.209 -1.2875 -0.2615  0.9630
15945SOL     OW52681   5.088   7.837   1.903 -0.2058  0.3822  0.1703
15945SOL    HW152682   5.168   7.806   1.861 -0.1340  0.8971 -0.0848
15945SOL    HW252683   5.104   7.930   1.918 -0.4738  0.3316  0.7807
15946SOL     OW52684   5.474   7.975   5.120 -0.1140 -0.1962 -0.1593
15946SOL    HW152685   5.565   7.960   5.147  0.0988  0.3545 -0.5588
15946SOL    HW252686   5.460   8.068   5.134  0.0175  0.1292 -1.9410
15947SOL     OW52687   3.204   8.742   5.230 -0.2077  0.4664  0.5284
15947SOL    HW152688   3.291   8.737   5.269 -0.3340 -3.0148  0.7494
15947SOL    HW252689   3.147   8.767   5.302  0.2791 -0.2918  1.2086
15948SOL     OW52690   7.143   6.197   1.437 -0.2165 -0.0927  0.0992
15948SOL    HW152691   7.229   6.190   1.478 -0.2190 -1.4014 -0.0541
15948SOL    HW252692   7.112   6.284   1.459  1.0152  0.2768  0.4238
15949SOL     OW52693   5.604   3.093   2.173 -0.1195  0.4628 -0.6367
15949SOL    HW152694   5.519   3.050   2.166  0.2800 -0.4587 -0.0476
15949SOL    HW252695   5.584   3.186   2.179 -1.1005  0.2341 -0.2311
15950SOL     OW52696   3.669   9.605   2.184  0.1777  0.4444  0.1276
15950SOL    HW152697   3.721   9.679   2.151  0.3345  0.1004 -0.4118
15950SOL    HW252698   3.629   9.638   2.264 -0.1023  1.2673 -0.3289
15951SOL     OW52699   2.918   8.811   4.899  0.0043  0.0240 -0.1106
15951SOL    HW152700   2.978   8.750   4.942  0.1325  0.2835  0.0802
15951SOL    HW252701   2.876   8.759   4.830 -0.2937 -0.4297  0.4071
15952SOL     OW52702   3.206   0.882   4.259  0.1200  0.4183 -0.1679
15952SOL    HW152703   3.268   0.824   4.303 -1.2945 -1.9429 -1.0683
15952SOL    HW252704   3.260   0.931   4.196  1.4016  0.2520  0.7537
15953SOL     OW52705   6.483   9.054   3.153 -0.4770 -0.5339 -0.8476
15953SOL    HW152706   6.570   9.065   3.114  0.5625 -1.1937  1.1315
15953SOL    HW252707   6.451   9.144   3.164 -0.3336 -0.3041 -2.1405
15954SOL     OW52708   2.986   7.608   3.984  0.1829  0.3020  0.2420
15954SOL    HW152709   3.007   7.591   3.892 -1.3546 -0.4531 -0.0034
15954SOL    HW252710   2.919   7.677   3.980  0.5020  0.6508  0.8325
15955SOL     OW52711   3.051   9.095   1.887  0.3146  0.6636 -0.2083
15955SOL    HW152712   2.975   9.130   1.934 -0.9273  0.8054 -2.2041
15955SOL    HW252713   3.015   9.061   1.805  2.1714 -0.9345 -0.4463
15956SOL     OW52714   2.852   7.423   2.798  0.1524 -0.1014 -0.1431
15956SOL    HW152715   2.882   7.341   2.838 -1.2556  0.0711  1.3630
15956SOL    HW252716   2.765   7.438   2.836  0.1411  1.7994 -0.8187
15957SOL     OW52717   8.309   9.362   3.500 -0.2039 -0.1460  0.3322
15957SOL    HW152718   8.316   9.308   3.421  1.2558  1.6074 -0.8138
15957SOL    HW252719   8.397   9.396   3.514 -0.5972  0.1648  2.3257
15958SOL     OW52720   5.798   9.457   3.802  0.1726 -0.5223 -0.0836
15958SOL    HW152721   5.838   9.543   3.814  0.5781 -0.7379  0.1696
15958SOL    HW252722   5.863   9.408   3.751 -0.0435 -0.6845 -0.2028
15959SOL     OW52723   4.868   7.215   0.548 -0.4859  0.3340 -0.7650
15959SOL    HW152724   4.862   7.311   0.555  0.1870  0.3310 -0.0266
15959SOL    HW252725   4.779   7.184   0.565 -0.7156  0.8293 -1.0470
15960SOL     OW52726   2.114   7.618   1.872  0.1070 -0.1310 -0.0487
15960SOL    HW152727   2.157   7.682   1.815  1.1019  0.8136  1.6663
15960SOL    HW252728   2.119   7.535   1.824  0.6891  0.6558 -1.4049
15961SOL     OW52729   5.111   8.483   0.802 -0.2588 -0.0759  0.4920
15961SOL    HW152730   5.180   8.470   0.867  0.4200 -0.1167 -0.2222
15961SOL    HW252731   5.031   8.452   0.844  0.1161  0.1979  1.4166
15962SOL     OW52732   4.299   0.158   2.823 -0.2807 -0.1083  0.2956
15962SOL    HW152733   4.340   0.204   2.749  0.2450  0.6459  1.0410
15962SOL    HW252734   4.353   0.180   2.898 -0.6156 -1.1488  0.8584
15963SOL     OW52735   6.226   0.901   2.733 -0.1473  0.3885 -0.0622
15963SOL    HW152736   6.180   0.833   2.683  0.2082  0.9261 -1.1496
15963SOL    HW252737   6.307   0.860   2.761 -0.6031 -0.0974  0.5973
15964SOL     OW52738   2.346   7.337   9.785  0.1968 -0.4871 -0.6632
15964SOL    HW152739   2.376   7.382   9.706 -0.0351  0.8162 -0.0314
15964SOL    HW252740   2.252   7.323   9.771  0.3775 -1.3312 -1.1076
15965SOL     OW52741   3.429   9.836   3.366 -0.2326  0.1388  0.3322
15965SOL    HW152742   3.353   9.887   3.338  0.3696  0.3561 -0.9489
15965SOL    HW252743   3.497   9.900   3.383  0.5204 -0.1823 -1.2677
15966SOL     OW52744   3.917   6.402   1.157  0.0665  0.2851 -0.1940
15966SOL    HW152745   3.918   6.488   1.197  1.6070  0.5733 -0.7803
15966SOL    HW252746   3.920   6.341   1.231  0.1946  0.7564  0.1935
15967SOL     OW52747   4.594   8.572   3.164 -0.0529 -0.1002 -0.1615
15967SOL    HW152748   4.572   8.665   3.161  0.3887  0.0458  0.6901
15967SOL    HW252749   4.661   8.560   3.097 -2.8373 -0.6261 -3.0754
15968SOL     OW52750   5.120   7.110   3.261 -0.0990  0.2101 -0.0765
15968SOL    HW152751   5.045   7.088   3.206 -1.4182  3.8522  0.0525
15968SOL    HW252752   5.093   7.083   3.349 -0.4465 -0.1999 -0.3011
15969SOL     OW52753   5.041   9.800   3.390 -0.5585  0.6881 -0.4985
15969SOL    HW152754   5.058   9.884   3.347  0.7686  0.9217  0.4247
15969SOL    HW252755   4.959   9.813   3.436  0.8340  2.4032  1.7319
15970SOL     OW52756   4.837   7.219   1.969  0.8348 -0.0393 -0.4054
15970SOL    HW152757   4.902   7.289   1.972 -0.7360  1.5986 -2.0983
15970SOL    HW252758   4.785   7.238   1.891 -2.1504 -0.8464  1.2499
15971SOL     OW52759   3.186   5.537   2.908 -0.0309  0.2314 -0.6275
15971SOL    HW152760   3.148   5.488   2.835 -0.8436 -0.5256  0.2704
15971SOL    HW252761   3.191   5.474   2.979 -0.5973  1.3008  0.3967
15972SOL     OW52762   1.703   9.064   2.261  0.0620 -0.0930 -0.2698
15972SOL    HW152763   1.610   9.075   2.280  0.6193  1.5952  1.9540
15972SOL    HW252764   1.713   9.095   2.171 -1.3979  0.5007 -0.2596
15973SOL     OW52765   3.177   8.443   4.410 -0.4590 -0.0364  0.1972
15973SOL    HW152766   3.173   8.484   4.323 -1.1080 -0.8111 -0.1472
15973SOL    HW252767   3.131   8.360   4.400 -0.3257 -0.2493  1.2279
15974SOL     OW52768   6.475   6.731   9.519 -0.8937  0.7209  0.4254
15974SOL    HW152769   6.440   6.661   9.464 -0.2378 -0.2129  1.1673
15974SOL    HW252770   6.512   6.794   9.457 -1.1542  0.2336 -0.2400
15975SOL     OW52771   5.088   6.169   1.441 -0.2397 -0.0873  0.4517
15975SOL    HW152772   5.011   6.220   1.415 -0.1242 -0.5004 -0.7790
15975SOL    HW252773   5.069   6.142   1.531 -1.7591 -0.5610  0.0246
15976SOL     OW52774   5.065   9.638   1.583  0.0543  0.1068  0.7787
15976SOL    HW152775   4.986   9.692   1.588  0.8341  1.1559  2.9138
15976SOL    HW252776   5.119   9.682   1.517 -1.3623 -1.0235 -1.2297
15977SOL     OW52777   2.876   7.779   1.761  0.0456 -0.2133 -0.2435
15977SOL    HW152778   2.843   7.839   1.827  1.5127 -0.2112  0.5142
15977SOL    HW252779   2.867   7.826   1.678  2.2148  1.5622  0.4444
15978SOL     OW52780   7.147   1.089   3.780  0.6388 -0.4128  0.1276
15978SOL    HW152781   7.106   1.154   3.836  1.4227 -0.3206  0.6049
15978SOL    HW252782   7.119   1.112   3.691  0.6881  0.4045  0.3197
15979SOL     OW52783   6.362   9.298   3.115 -0.0050 -0.4909  0.0586
15979SOL    HW152784   6.395   9.378   3.073  0.4422 -0.0338  1.2393
15979SOL    HW252785   6.287   9.328   3.167 -1.1518 -1.2119 -1.1176
15980SOL     OW52786   6.391   0.988   3.660  0.3430 -0.5386 -0.5369
15980SOL    HW152787   6.327   0.918   3.674 -0.5175  0.3436  0.0567
15980SOL    HW252788   6.462   0.968   3.721  0.5002 -1.3473 -0.9700
15981SOL     OW52789   3.867   8.100   3.622  0.1193  0.5634  0.5662
15981SOL    HW152790   3.776   8.092   3.650  0.0066  2.2134  0.7518
15981SOL    HW252791   3.870   8.181   3.571  1.6996  1.2033  1.5782
15982SOL     OW52792   5.918   7.058   3.590 -0.0430  0.4900  0.1180
15982SOL    HW152793   5.909   7.134   3.532 -0.9104  0.6197  0.4056
15982SOL    HW252794   5.922   7.096   3.678  0.9918  0.2789  0.1669
15983SOL     OW52795   8.097   6.410   0.671  0.0976 -0.1359  0.2495
15983SOL    HW152796   8.112   6.322   0.708 -2.9658 -0.0139  2.1820
15983SOL    HW252797   8.010   6.404   0.631 -0.8403  2.3141  1.7075
15984SOL     OW52798   3.902   7.941   1.707 -0.1368 -0.6720 -0.2697
15984SOL    HW152799   3.885   8.023   1.660 -0.5782 -1.1398 -0.9494
15984SOL    HW252800   3.996   7.942   1.724  0.1641 -0.7653 -1.7471
15985SOL     OW52801   6.574   7.751   1.874  0.3034  0.0312 -0.0335
15985SOL    HW152802   6.615   7.665   1.887 -0.4384 -0.6266 -1.7658
15985SOL    HW252803   6.640   7.804   1.831  1.3256  0.9050  2.4365
15986SOL     OW52804   5.315   9.579   3.100  0.0685  0.1947  0.2572
15986SOL    HW152805   5.323   9.506   3.038  1.9281  0.3532  0.2624
15986SOL    HW252806   5.330   9.657   3.047 -0.6415  0.4989  0.4943
15987SOL     OW52807   4.880   8.093   0.571  0.1834  0.4546  0.5888
15987SOL    HW152808   4.972   8.067   0.567  0.1108  0.2746 -0.0173
15987SOL    HW252809   4.838   8.023   0.620  0.0022 -0.5900 -0.9683
15988SOL     OW52810   4.266   8.462   3.872  0.0792  0.3702 -0.2650
15988SOL    HW152811   4.300   8.437   3.786 -2.0623 -1.9978 -0.5345
15988SOL    HW252812   4.216   8.542   3.855  0.0357  0.1717 -1.1514
15989SOL     OW52813   5.918   9.592   1.132 -0.4091  0.4067 -0.2625
15989SOL    HW152814   5.997   9.558   1.174 -0.5319  0.5020  0.0555
15989SOL    HW252815   5.861   9.616   1.206 -2.0939 -2.6569 -0.4012
15990SOL     OW52816   4.592   0.673   2.562  0.2206 -0.1833 -0.1516
15990SOL    HW152817   4.500   0.675   2.589  0.5922 -0.0398  1.1366
15990SOL    HW252818   4.599   0.596   2.506 -0.7540 -0.0055 -0.5418
15991SOL     OW52819   6.867   8.776   0.152  0.7512 -0.3339  0.0291
15991SOL    HW152820   6.878   8.787   0.058 -0.9974  0.2490 -0.1382
15991SOL    HW252821   6.934   8.711   0.176  2.1701  0.5396 -1.3357
15992SOL     OW52822   3.492   7.585   2.814 -0.0336  0.4199  0.1571
15992SOL    HW152823   3.420   7.568   2.753 -0.2859 -1.5547  0.9400
15992SOL    HW252824   3.530   7.667   2.784 -2.7919  1.7116 -0.1091
15993SOL     OW52825   3.492   8.098   2.718  0.2563 -0.0237 -0.5348
15993SOL    HW152826   3.534   8.132   2.639  0.7886  0.1350 -0.1860
15993SOL    HW252827   3.505   8.167   2.783 -1.1374  0.3258 -0.5964
15994SOL     OW52828   6.036   9.548   2.426 -0.0176 -0.2211 -0.3314
15994SOL    HW152829   6.111   9.604   2.409  0.4996 -1.0506 -0.8775
15994SOL    HW252830   6.045   9.476   2.363 -0.2940 -1.2577  0.7689
15995SOL     OW52831   5.323   7.496   9.387  0.0261 -0.0803  0.1174
15995SOL    HW152832   5.275   7.526   9.311  0.9073 -1.1573 -0.9071
15995SOL    HW252833   5.336   7.574   9.440 -0.5945  0.6888 -0.8421
15996SOL     OW52834   3.657   9.061   1.355  0.2539 -0.3793  0.1714
15996SOL    HW152835   3.614   9.061   1.269  0.5737  0.5140 -0.0007
15996SOL    HW252836   3.746   9.032   1.337  0.1143 -0.9144  0.3221
15997SOL     OW52837   5.943   9.697   2.210 -0.2707 -0.3295  0.5557
15997SOL    HW152838   5.953   9.603   2.197 -1.6183 -0.6409  1.6375
15997SOL    HW252839   5.954   9.710   2.304  1.4767  0.8287  0.2410
15998SOL     OW52840   3.630   7.503   1.258  0.7157 -0.2661 -0.5632
15998SOL    HW152841   3.698   7.436   1.252  1.6356  0.7048 -1.5758
15998SOL    HW252842   3.677   7.583   1.280 -0.0286  0.4911 -1.5810
15999SOL     OW52843   3.811   6.373   4.443  0.5369 -0.1433  0.7629
15999SOL    HW152844   3.844   6.320   4.370  0.0801 -0.3658  0.7133
15999SOL    HW252845   3.720   6.345   4.454  0.1061  1.0477  0.3672
16000SOL     OW52846   4.733   7.938   4.020  0.1186 -0.5093 -0.2013
16000SOL    HW152847   4.808   7.890   3.985 -0.7778 -2.2465  0.1485
16000SOL    HW252848   4.772   8.002   4.079  1.3865 -0.5638 -0.9347
16001SOL     OW52849   3.830   6.223   3.531  0.3712 -0.4687  0.1266
16001SOL    HW152850   3.750   6.275   3.534  0.1994 -0.6609 -0.6668
16001SOL    HW252851   3.801   6.132   3.543  0.2582 -0.6994 -1.5548
16002SOL     OW52852   3.466   7.190   0.312  0.1805  0.1947 -0.2848
16002SOL    HW152853   3.442   7.268   0.261 -1.3380  1.3200  1.9871
16002SOL    HW252854   3.475   7.121   0.246 -2.0095  1.4542 -2.0523
16003SOL     OW52855   7.843   9.642   3.340  0.0889 -0.3211  0.2848
16003SOL    HW152856   7.931   9.613   3.364 -0.4111 -2.4305 -0.2480
16003SOL    HW252857   7.796   9.562   3.318 -1.0373  0.9771 -2.5472
16004SOL     OW52858   4.409   8.916   2.044  0.0753 -0.0507  0.1150
16004SOL    HW152859   4.443   9.006   2.042 -0.9469  0.4057  1.6197
16004SOL    HW252860   4.380   8.900   1.954  1.7390  0.5016 -0.5730
16005SOL     OW52861   2.762   4.795   2.820  0.1248 -0.0945 -0.1209
16005SOL    HW152862   2.726   4.707   2.805  1.3675 -0.5391 -0.5903
16005SOL    HW252863   2.857   4.783   2.819  0.3577  0.8517  2.2474
16006SOL     OW52864   4.760   0.509   3.225  0.3464 -0.9050 -0.5189
16006SOL    HW152865   4.731   0.576   3.288  1.1721 -0.6771 -0.3683
16006SOL    HW252866   4.838   0.547   3.184  1.8395 -2.4330  0.7488
16007SOL     OW52867   5.104   9.727   1.090 -0.0876 -0.3540  0.1088
16007SOL    HW152868   5.160   9.651   1.072  0.3547 -0.1834  0.7095
16007SOL    HW252869   5.130   9.792   1.025  3.3297  1.2090  2.7205
16008SOL     OW52870   3.884   8.843   9.619 -0.0766 -0.2811  0.4004
16008SOL    HW152871   3.951   8.842   9.551  0.7274  0.4703  1.1557
16008SOL    HW252872   3.867   8.751   9.638 -0.2569 -0.4989 -0.7483
16009SOL     OW52873   3.041   8.430   2.388  0.5963 -1.0404 -0.7654
16009SOL    HW152874   3.130   8.400   2.409  0.9511 -0.0445 -0.7617
16009SOL    HW252875   3.000   8.446   2.473  0.7009 -0.7423 -0.7658
16010SOL     OW52876   1.907   8.321   2.901 -0.2889 -0.1938  0.0188
16010SOL    HW152877   1.879   8.269   2.977 -0.6087 -2.6117 -1.6560
16010SOL    HW252878   1.995   8.352   2.924 -0.9393  0.3947  1.9278
16011SOL     OW52879   3.496   8.509   3.469  0.7227 -0.3742  0.5838
16011SOL    HW152880   3.534   8.595   3.489 -1.6966  1.3307 -1.4946
16011SOL    HW252881   3.562   8.467   3.413  1.1929  0.8946  0.1475
16012SOL     OW52882   2.130   0.600   3.404 -0.1948 -0.8222 -0.0955
16012SOL    HW152883   2.076   0.547   3.345 -0.7005 -0.1213 -0.2830
16012SOL    HW252884   2.069   0.666   3.439  0.5832  0.1314 -0.4859
16013SOL     OW52885   5.095   9.714   4.494 -0.0822  0.7230 -0.5982
16013SOL    HW152886   5.056   9.703   4.580  0.2094 -0.0632 -0.5629
16013SOL    HW252887   5.049   9.652   4.437  0.2907  0.6425 -0.8180
16014SOL     OW52888   5.255   7.878   5.294  0.0352  0.3155 -0.0480
16014SOL    HW152889   5.301   7.795   5.280  0.5898  0.3090  1.5879
16014SOL    HW252890   5.314   7.944   5.258 -0.6577  0.0050 -1.8704
16015SOL     OW52891   6.916   5.645   4.755  0.0204 -0.5601 -0.4730
16015SOL    HW152892   6.847   5.580   4.744 -0.4000 -1.0010  3.2591
16015SOL    HW252893   6.992   5.595   4.784  0.0241  0.4238  1.3605
16016SOL     OW52894   5.056   7.852   4.960 -0.1498 -0.1782  0.6211
16016SOL    HW152895   5.090   7.940   4.944 -0.1508 -0.1873  0.5689
16016SOL    HW252896   4.965   7.855   4.929  0.5537 -0.8870 -1.7272
16017SOL     OW52897   6.345   7.253   5.090 -0.7785 -0.1339 -0.2290
16017SOL    HW152898   6.305   7.260   5.004 -3.1377  0.1290  0.8011
16017SOL    HW252899   6.301   7.178   5.131  0.5685 -0.5017  0.6338
16018SOL     OW52900   2.486   1.806   2.832  0.4393  0.2946  0.4001
16018SOL    HW152901   2.431   1.741   2.789  1.5073 -0.7627  0.5442
16018SOL    HW252902   2.480   1.883   2.777  0.5507 -0.5234 -0.8010
16019SOL     OW52903   3.788   1.266   5.811  0.2335  0.2216 -0.4719
16019SOL    HW152904   3.780   1.281   5.717  1.5147 -1.0502 -0.8347
16019SOL    HW252905   3.883   1.264   5.827  0.0742  2.7542  1.3005
16020SOL     OW52906   4.224   8.058   5.521  0.1120  0.1058 -0.5248
16020SOL    HW152907   4.178   7.977   5.498  1.3398 -0.3733 -1.3908
16020SOL    HW252908   4.195   8.077   5.611 -1.2524 -0.5183 -0.7992
16021SOL     OW52909   3.427   7.956   5.533  0.1749 -0.3493  0.3292
16021SOL    HW152910   3.470   7.930   5.614 -1.3299  1.0935  1.6795
16021SOL    HW252911   3.334   7.941   5.550 -0.1467 -0.3351 -1.2800
16022SOL     OW52912   4.284   8.165   1.939  0.5398 -0.3654  0.0292
16022SOL    HW152913   4.250   8.192   2.025  0.6718  0.7585 -0.2506
16022SOL    HW252914   4.356   8.226   1.922  0.4534 -0.5197 -0.9241
16023SOL     OW52915   4.072   5.522   2.307 -0.6935  0.1834 -0.8193
16023SOL    HW152916   4.021   5.532   2.388  1.7585 -1.2164  1.0531
16023SOL    HW252917   4.101   5.431   2.308  0.2969  0.4223 -2.7519
16024SOL     OW52918   3.286   0.177   5.249  0.1442 -0.0414  0.5793
16024SOL    HW152919   3.311   0.264   5.221 -1.2254  0.5536  1.0828
16024SOL    HW252920   3.250   0.135   5.171 -0.7012  0.4504  0.6930
16025SOL     OW52921   3.898   7.481   5.163 -0.1443 -0.1814 -0.0585
16025SOL    HW152922   3.894   7.488   5.068 -1.1117 -2.5967 -0.2571
16025SOL    HW252923   3.844   7.554   5.194 -0.0088  0.4949 -1.3308
16026SOL     OW52924   4.364   8.540   4.180  0.7071  0.4360 -0.0783
16026SOL    HW152925   4.345   8.474   4.114  1.1060  0.4800 -0.2396
16026SOL    HW252926   4.452   8.519   4.211  0.7126  0.7031  0.0944
16027SOL     OW52927   5.501   8.790   3.928  0.8230  0.2158  0.0418
16027SOL    HW152928   5.444   8.713   3.926  0.3469  0.5522  0.3651
16027SOL    HW252929   5.535   8.796   3.838 -1.5959  1.4245 -0.8911
16028SOL     OW52930   4.009   8.044   3.343 -0.2880 -0.1472 -0.1185
16028SOL    HW152931   3.946   8.077   3.407 -0.0045  1.5180 -0.6483
16028SOL    HW252932   4.025   7.953   3.369 -2.2329 -0.3470  0.5336
16029SOL     OW52933   3.553   8.597   2.595 -0.3085  0.5075 -0.2412
16029SOL    HW152934   3.548   8.676   2.649  0.3180  0.9661 -0.8519
16029SOL    HW252935   3.466   8.591   2.554 -1.0990 -0.3084  1.4159
16030SOL     OW52936   3.652   8.314   5.984 -0.1190 -0.3910 -0.0430
16030SOL    HW152937   3.605   8.370   6.045 -0.1730 -1.3655  0.8360
16030SOL    HW252938   3.665   8.369   5.906  0.2640  1.0019  0.9586
16031SOL     OW52939   5.479   0.837   5.352 -0.0058  0.2834  0.5427
16031SOL    HW152940   5.560   0.850   5.303 -0.4283  0.8005 -0.0389
16031SOL    HW252941   5.420   0.795   5.290 -0.0416 -0.4964  1.1007
16032SOL     OW52942   3.756   8.193   4.069 -0.0206  0.0443  0.2543
16032SOL    HW152943   3.832   8.174   4.014 -1.2926  1.0795 -2.0046
16032SOL    HW252944   3.787   8.261   4.129  0.8495  0.4508 -0.6182
16033SOL     OW52945   4.181   8.417   4.949  0.1632  0.0310  0.0166
16033SOL    HW152946   4.115   8.360   4.910 -0.9564  0.8105  0.7178
16033SOL    HW252947   4.172   8.500   4.902  0.7335  0.1124  0.0413
16034SOL     OW52948   4.216   7.120   6.947  0.1685  0.3900 -0.5166
16034SOL    HW152949   4.173   7.193   6.994  1.6458 -0.3894  2.3000
16034SOL    HW252950   4.163   7.044   6.970  0.4306  0.1117 -0.8454
16035SOL     OW52951   3.473   6.508   7.519 -0.3459  0.1248  0.3387
16035SOL    HW152952   3.508   6.530   7.433 -0.0656 -0.2135  0.3638
16035SOL    HW252953   3.519   6.566   7.579 -0.1378 -0.0210  0.3218
16036SOL     OW52954   5.360   0.987   3.474  0.4240  0.1769  1.3412
16036SOL    HW152955   5.336   1.070   3.514 -0.6443  1.5508 -1.8375
16036SOL    HW252956   5.357   1.004   3.380  0.4728 -3.3784  0.5629
16037SOL     OW52957   4.469   7.414   7.075  0.0762 -0.6505  0.8869
16037SOL    HW152958   4.376   7.426   7.056 -0.1798  0.1437  2.5120
16037SOL    HW252959   4.512   7.488   7.032  0.3152 -2.2565 -1.9025
16038SOL     OW52960   4.923   8.410   6.195 -0.0950  0.6182 -0.2865
16038SOL    HW152961   4.926   8.505   6.188 -1.0204  0.8967  2.0303
16038SOL    HW252962   5.005   8.386   6.238 -0.5990  0.6004  0.7029
16039SOL     OW52963   2.398   5.489   4.326 -0.8301 -0.1040  0.2651
16039SOL    HW152964   2.364   5.438   4.399  0.6340 -0.6111  0.6225
16039SOL    HW252965   2.489   5.461   4.318 -0.2574  1.7759 -0.1508
16040SOL     OW52966   4.978   9.454   1.373 -0.0648  0.4390 -0.2368
16040SOL    HW152967   5.026   9.446   1.291  0.4921  1.1829 -0.0016
16040SOL    HW252968   5.025   9.522   1.422 -0.0914 -0.3280  0.9072
16041SOL     OW52969   6.814   8.133   5.736 -0.3246 -0.0895 -0.2784
16041SOL    HW152970   6.822   8.057   5.793  0.3881 -1.2562 -1.8463
16041SOL    HW252971   6.896   8.180   5.745  0.5065 -1.2129 -1.5572
16042SOL     OW52972   5.442   6.807   6.591  0.0488 -0.1762 -0.2018
16042SOL    HW152973   5.413   6.749   6.521  2.1014  0.8619 -2.0293
16042SOL    HW252974   5.361   6.840   6.631 -1.3683  1.1634 -3.7723
16043SOL     OW52975   2.245   7.745   2.658 -0.5376 -0.2018  0.3125
16043SOL    HW152976   2.328   7.702   2.637 -0.8271  0.7885 -3.6260
16043SOL    HW252977   2.268   7.817   2.717  1.2459 -0.5562  0.0757
16044SOL     OW52978   4.985   8.247   3.585 -0.3370 -0.6915  0.3893
16044SOL    HW152979   4.909   8.190   3.583 -0.0260 -1.0953 -0.5801
16044SOL    HW252980   4.994   8.279   3.496  0.1570 -0.0035  0.6714
16045SOL     OW52981   5.361   7.790   5.533  0.2176 -0.3638  0.5769
16045SOL    HW152982   5.325   7.840   5.607 -0.6226 -0.9550  0.5795
16045SOL    HW252983   5.323   7.832   5.455  0.5010 -0.2206  0.5141
16046SOL     OW52984   6.755   7.617   4.146 -0.0466  0.7324  0.3720
16046SOL    HW152985   6.791   7.556   4.210  0.0268  1.3491  0.9278
16046SOL    HW252986   6.671   7.580   4.121  0.3578 -0.0115  0.0973
16047SOL     OW52987   6.899   9.365   2.191 -0.0805 -0.0020  0.0650
16047SOL    HW152988   6.881   9.433   2.256 -1.0313 -1.5047  1.4520
16047SOL    HW252989   6.984   9.389   2.154  0.1482  1.2995  1.3325
16048SOL     OW52990   4.840   6.764   3.370  0.1138  0.4721  0.3371
16048SOL    HW152991   4.922   6.731   3.406 -0.6422 -1.9687 -0.0343
16048SOL    HW252992   4.847   6.748   3.276 -0.1864  1.7100  0.0821
16049SOL     OW52993   2.942   6.834   7.437  0.1609 -0.2556  0.4633
16049SOL    HW152994   2.940   6.761   7.376 -1.2072 -0.8078  1.1225
16049SOL    HW252995   2.906   6.908   7.388  2.5145  0.3168 -0.5440
16050SOL     OW52996   5.395   7.779   6.260 -0.4127 -0.1542  0.1734
16050SOL    HW152997   5.401   7.797   6.354 -0.2809 -1.1214  0.3676
16050SOL    HW252998   5.485   7.759   6.233 -0.5839 -0.8334  0.0644
16051SOL     OW52999   5.338   9.289   6.304  0.2085  0.5212 -0.7049
16051SOL    HW153000   5.303   9.377   6.322  0.6987  0.4593  0.6143
16051SOL    HW253001   5.373   9.296   6.215  2.1973  2.3452  0.1142
16052SOL     OW53002   5.020   8.602   3.742 -0.7315  0.0483 -0.3008
16052SOL    HW153003   4.928   8.574   3.748 -0.6317 -0.0220  1.1002
16052SOL    HW253004   5.015   8.694   3.716 -1.1740 -0.1247 -0.8567
16053SOL     OW53005   4.605   9.699   3.157  0.3210 -0.4496  0.0346
16053SOL    HW153006   4.617   9.633   3.225 -2.8302 -0.4316  0.7708
16053SOL    HW253007   4.566   9.774   3.202  0.2593  0.4456 -1.4239
16054SOL     OW53008   3.098   9.564   6.696 -0.1778  0.0891 -0.0013
16054SOL    HW153009   3.123   9.629   6.762 -1.3349  0.5555  0.0023
16054SOL    HW253010   3.129   9.481   6.731  0.5238  0.5179  0.4255
16055SOL     OW53011   5.666   6.945   7.948  0.0362  0.0137  0.2296
16055SOL    HW153012   5.747   6.910   7.987  0.0185  0.9510  1.1636
16055SOL    HW253013   5.692   6.970   7.859  1.0629  1.2692  0.8513
16056SOL     OW53014   4.219   6.568   4.347 -0.2568  0.3577  0.5293
16056SOL    HW153015   4.256   6.542   4.263 -1.6399 -1.2019  0.3623
16056SOL    HW253016   4.191   6.486   4.387 -1.7485  1.2945  1.4699
16057SOL     OW53017   4.893   8.870   4.331 -0.4828  0.2088 -0.8547
16057SOL    HW153018   4.933   8.861   4.245  1.7433 -1.0890  0.1958
16057SOL    HW253019   4.960   8.914   4.384 -0.7087 -1.2553  0.7808
16058SOL     OW53020   4.597   0.435   2.769 -0.1301 -0.5659 -0.5688
16058SOL    HW153021   4.557   0.363   2.719  1.5480 -1.7133 -0.3330
16058SOL    HW253022   4.547   0.512   2.743 -1.9165 -1.7783 -0.9414
16059SOL     OW53023   4.584   0.143   4.093 -0.1735  0.0010  0.5214
16059SOL    HW153024   4.506   0.099   4.059 -1.5406 -0.4174  3.8674
16059SOL    HW253025   4.569   0.236   4.073 -1.2199 -0.1463  0.5506
16060SOL     OW53026   4.275   9.042   7.014  0.1047 -0.0251 -0.2098
16060SOL    HW153027   4.248   9.015   6.926  0.6968  0.0904 -0.4271
16060SOL    HW253028   4.194   9.070   7.056  0.0120  1.2473 -1.1863
16061SOL     OW53029   3.686   1.813   3.482  0.3721  0.6425  0.2772
16061SOL    HW153030   3.692   1.740   3.421 -0.5980  1.0063 -0.2799
16061SOL    HW253031   3.735   1.884   3.441 -1.2047  1.2379 -0.6413
16062SOL     OW53032   4.119   6.009   3.807 -0.2796 -0.1176  0.4159
16062SOL    HW153033   4.146   6.091   3.765 -1.5387 -0.3516 -0.9248
16062SOL    HW253034   4.132   5.942   3.740  0.6891 -1.0397  1.4817
16063SOL     OW53035   6.099   0.616   4.692 -0.0199 -0.2859 -0.3543
16063SOL    HW153036   6.062   0.544   4.641  1.9438 -1.9220  0.3929
16063SOL    HW253037   6.104   0.582   4.782  1.2416  0.6308 -0.0433
16064SOL     OW53038   3.163   7.194   7.960 -0.1573  0.1676 -0.4475
16064SOL    HW153039   3.108   7.154   7.893 -0.2217 -2.0262  0.8215
16064SOL    HW253040   3.146   7.143   8.039  0.8382  1.8853  0.9645
16065SOL     OW53041   3.418   6.361   4.504  0.1481 -0.4122 -0.1675
16065SOL    HW153042   3.432   6.386   4.595  1.5128 -1.0306 -0.1846
16065SOL    HW253043   3.382   6.272   4.510 -0.7273 -0.0713 -0.2195
16066SOL     OW53044   2.324   9.381   5.632 -0.0584 -0.5741 -0.5534
16066SOL    HW153045   2.306   9.326   5.555  0.9972 -2.0551  0.2079
16066SOL    HW253046   2.241   9.385   5.679 -0.8215  0.6656 -1.9248
16067SOL     OW53047   6.153   9.062   4.662 -0.1474  0.3529  0.4362
16067SOL    HW153048   6.156   9.143   4.714 -0.1855 -0.3988  1.6433
16067SOL    HW253049   6.068   9.024   4.681 -0.7651  0.7712 -1.3331
16068SOL     OW53050   6.795   9.175   4.945  0.0002 -0.2046  0.2892
16068SOL    HW153051   6.787   9.082   4.928 -3.0945  0.0236 -0.0479
16068SOL    HW253052   6.796   9.183   5.040 -1.1263 -0.5409  0.3389
16069SOL     OW53053   3.750   7.746   1.353 -0.2895 -0.4109 -0.2021
16069SOL    HW153054   3.721   7.798   1.427  0.3693  1.6403 -1.3064
16069SOL    HW253055   3.702   7.781   1.278  0.9598 -0.6732 -1.1594
16070SOL     OW53056   4.500   8.204   6.290 -0.3792  0.0905 -0.0374
16070SOL    HW153057   4.490   8.196   6.195 -2.6051  0.4998  0.1084
16070SOL    HW253058   4.479   8.295   6.309 -1.8857 -0.4364  1.0173
16071SOL     OW53059   4.379   5.110   3.318 -0.0375  0.0797  0.1320
16071SOL    HW153060   4.364   5.113   3.412  0.4957  1.3077  0.2051
16071SOL    HW253061   4.418   5.025   3.302 -0.4954 -0.2978  0.9573
16072SOL     OW53062   5.152   6.430   6.388 -0.3929  0.0328 -0.4514
16072SOL    HW153063   5.209   6.439   6.311  0.5638 -1.4917  0.0259
16072SOL    HW253064   5.125   6.338   6.386  0.6643 -0.3754  1.6991
16073SOL     OW53065   5.457   5.969   3.118  0.0561  0.9582  0.1200
16073SOL    HW153066   5.510   5.906   3.168  3.4453  1.3484 -2.6065
16073SOL    HW253067   5.430   5.921   3.040 -1.6750  1.4988  0.3474
16074SOL     OW53068   3.731   8.166   5.595  0.3801 -0.0267  0.4047
16074SOL    HW153069   3.794   8.237   5.593 -0.0330  0.3468  0.5536
16074SOL    HW253070   3.665   8.190   5.529  0.8603 -0.8547 -0.4027
16075SOL     OW53071   5.576   7.753   5.752  0.1949 -0.2995  0.2877
16075SOL    HW153072   5.497   7.781   5.705  0.8229 -1.2187 -1.4201
16075SOL    HW253073   5.647   7.802   5.709  0.6435 -0.0454  1.2994
16076SOL     OW53074   6.875   6.230   6.843  0.3720  0.7367 -1.0562
16076SOL    HW153075   6.789   6.234   6.801 -0.8940 -1.0010  1.0977
16076SOL    HW253076   6.888   6.318   6.879 -0.4596  1.0576 -1.4996
16077SOL     OW53077   2.315   7.912   4.429  0.0232 -0.6338 -0.7235
16077SOL    HW153078   2.331   7.950   4.516  0.1157 -1.0308 -0.5606
16077SOL    HW253079   2.364   7.967   4.369 -1.1820  0.5135 -0.7146
16078SOL     OW53080   5.001   6.433   4.833 -0.3872 -0.3286  0.5861
16078SOL    HW153081   4.927   6.398   4.883 -1.5632 -0.2346 -1.0141
16078SOL    HW253082   4.961   6.491   4.768  1.2040  0.7308  0.4973
16079SOL     OW53083   5.964   6.900   5.861  0.0263  0.1975 -0.0417
16079SOL    HW153084   6.037   6.842   5.839 -0.6650 -0.9979  0.7149
16079SOL    HW253085   5.974   6.917   5.955 -0.4426  0.3585 -0.0197
16080SOL     OW53086   7.246   9.296   4.759 -0.4300 -0.2623 -0.2767
16080SOL    HW153087   7.183   9.228   4.784  1.9130 -3.5157 -2.3731
16080SOL    HW253088   7.330   9.264   4.793  1.0603  0.6714 -2.8351
16081SOL     OW53089   3.117   6.574   4.903 -0.0599 -0.0686 -0.1989
16081SOL    HW153090   3.159   6.608   4.824  1.1151  2.3948  1.3694
16081SOL    HW253091   3.035   6.623   4.909  0.7365  1.2130  1.0331
16082SOL     OW53092   4.145   3.496   3.028  0.0240 -0.5570  0.3614
16082SOL    HW153093   4.154   3.440   2.951  3.5720  0.9981 -0.5226
16082SOL    HW253094   4.102   3.440   3.093  2.6712 -4.1261 -0.6631
16083SOL     OW53095   6.087   7.474   3.908 -0.1513  0.0965 -0.5131
16083SOL    HW153096   6.020   7.424   3.862  0.5411  0.2515 -1.7089
16083SOL    HW253097   6.038   7.533   3.965 -0.9988 -0.5981 -0.4992
16084SOL     OW53098   2.950   6.135   5.671 -0.5667  0.1959 -0.1551
16084SOL    HW153099   3.030   6.181   5.700 -0.7312  0.1271  0.4239
16084SOL    HW253100   2.894   6.134   5.749 -2.9082  3.9237 -1.4812
16085SOL     OW53101   4.891   8.571   1.811  0.2448 -0.0577 -0.0396
16085SOL    HW153102   4.841   8.631   1.754  1.0203  1.0938  0.4525
16085SOL    HW253103   4.828   8.543   1.877  0.0477  0.8384  0.1738
16086SOL     OW53104   2.704   8.718   6.355 -0.1330  0.4698  0.3447
16086SOL    HW153105   2.657   8.651   6.405 -0.1699  1.1645  1.2742
16086SOL    HW253106   2.769   8.669   6.305 -0.8407 -0.3535  0.2055
16087SOL     OW53107   4.644   8.482   6.431 -0.3054 -0.2468  1.0094
16087SOL    HW153108   4.549   8.485   6.435 -0.2497  0.0052  2.7870
16087SOL    HW253109   4.671   8.574   6.426 -0.1648 -0.3494 -0.3661
16088SOL     OW53110   3.566   6.906   5.068 -0.2362  0.4430 -0.6899
16088SOL    HW153111   3.640   6.863   5.024  1.4422 -1.0818  3.1506
16088SOL    HW253112   3.490   6.854   5.043  0.7592 -0.9032 -1.0737
16089SOL     OW53113   2.667   8.180   6.528 -0.5944 -0.0841  0.0198
16089SOL    HW153114   2.707   8.257   6.487 -0.8554 -1.1063 -2.2962
16089SOL    HW253115   2.741   8.133   6.566 -0.0622 -0.0509 -0.9423
16090SOL     OW53116   2.272   7.400   6.836 -0.1532  0.2025 -0.7640
16090SOL    HW153117   2.346   7.400   6.897 -0.8530  0.6213  0.1076
16090SOL    HW253118   2.311   7.377   6.752  0.5868 -2.1666  0.1294
16091SOL     OW53119   4.659   7.848   1.236  0.1794 -0.2826 -0.1454
16091SOL    HW153120   4.653   7.759   1.201 -2.3035  1.0127 -3.5130
16091SOL    HW253121   4.739   7.884   1.198 -0.8348  0.0819 -2.0255
16092SOL     OW53122   5.023   0.151   4.118  0.2772  0.4132  0.2386
16092SOL    HW153123   4.977   0.085   4.066 -1.0675  0.0418  1.7799
16092SOL    HW253124   5.110   0.114   4.132 -0.4536 -1.0869  1.0709
16093SOL     OW53125   3.363   6.200   4.181  0.4032  0.3953  1.0754
16093SOL    HW153126   3.451   6.231   4.201  0.0934  1.4320  0.8910
16093SOL    HW253127   3.316   6.278   4.153 -0.2529 -0.3478  0.0327
16094SOL     OW53128   5.531   8.896   3.388 -0.1333 -0.3198 -0.4442
16094SOL    HW153129   5.572   8.812   3.405 -0.2842 -0.5944 -1.3942
16094SOL    HW253130   5.604   8.959   3.387  0.2034 -0.7014 -1.4188
16095SOL     OW53131   2.019   9.599   2.426  0.0124  0.3657 -0.1397
16095SOL    HW153132   2.039   9.653   2.349 -1.4187 -0.6901 -1.3169
16095SOL    HW253133   2.104   9.562   2.452  0.3419 -0.5978 -2.3062
16096SOL     OW53134   6.995   9.404   3.505 -0.1047 -0.2917 -0.5165
16096SOL    HW153135   6.902   9.384   3.502 -0.3758  0.8885 -0.5112
16096SOL    HW253136   7.001   9.496   3.479  0.9223  0.0252  0.7042
16097SOL     OW53137   7.281   8.610   3.152 -0.0770  0.0136  0.0074
16097SOL    HW153138   7.340   8.663   3.097  0.9479 -0.1902  0.8791
16097SOL    HW253139   7.222   8.568   3.090 -0.5255  1.6865 -0.7652
16098SOL     OW53140   1.829   8.959   4.455  0.0048  0.0527 -0.1713
16098SOL    HW153141   1.747   9.008   4.464 -0.7298 -0.8995 -1.3425
16098SOL    HW253142   1.876   9.004   4.384 -0.5733 -0.7517 -1.0977
16099SOL     OW53143   6.089   8.154   3.893 -0.1088 -0.3714 -0.0207
16099SOL    HW153144   6.126   8.243   3.897  0.0957 -0.4651  0.1342
16099SOL    HW253145   6.131   8.107   3.965 -0.1435 -0.6234 -0.1659
16100SOL     OW53146   6.545   6.012   2.761 -0.2740 -0.0441  0.1342
16100SOL    HW153147   6.492   5.948   2.714 -0.1087 -0.6420  0.7529
16100SOL    HW253148   6.635   5.978   2.756  0.2380  1.4101 -1.6754
16101SOL     OW53149   5.517   7.078   6.068 -0.9443 -0.5013  0.1451
16101SOL    HW153150   5.470   7.142   6.015  0.2328 -0.6623 -1.1317
16101SOL    HW253151   5.601   7.119   6.086 -0.9641 -0.8476  1.0930
16102SOL     OW53152   3.602   1.157   6.023 -0.4789  0.8939 -0.7337
16102SOL    HW153153   3.525   1.099   6.018 -2.5091  3.3847 -0.2782
16102SOL    HW253154   3.641   1.153   5.936 -0.0068 -1.7532 -0.4934
16103SOL     OW53155   6.646   7.095   2.811 -0.2359 -0.2947 -0.0219
16103SOL    HW153156   6.636   7.124   2.720  2.2044 -1.0912 -0.6139
16103SOL    HW253157   6.714   7.151   2.847 -0.0946 -0.9997  0.8365
16104SOL     OW53158   4.115   7.731   6.060  0.4382 -0.0336  0.1441
16104SOL    HW153159   4.170   7.786   6.116  1.5153 -1.2007  0.2866
16104SOL    HW253160   4.027   7.767   6.070  0.9658  1.1024  0.9161
16105SOL     OW53161   2.855   0.109   6.743  0.0154  0.5408 -0.4207
16105SOL    HW153162   2.805   0.080   6.667  0.6040 -0.9461 -0.2847
16105SOL    HW253163   2.797   0.170   6.789 -0.4326  1.2953 -1.9136
16106SOL     OW53164   2.432   8.901   2.749  0.5418 -0.5572 -0.2282
16106SOL    HW153165   2.421   8.820   2.701  0.3095  0.3040 -1.6712
16106SOL    HW253166   2.377   8.965   2.703  0.2065  0.2743  1.2549
16107SOL     OW53167   4.294   9.800   6.306  0.6086  0.0947  1.2107
16107SOL    HW153168   4.224   9.735   6.314  1.1563 -0.3180  3.1738
16107SOL    HW253169   4.373   9.748   6.297  0.7185  0.5596 -0.8536
16108SOL     OW53170   4.188   9.210   2.141  0.1588  0.0487  0.2874
16108SOL    HW153171   4.133   9.134   2.161 -0.6574  0.8139  1.0044
16108SOL    HW253172   4.197   9.209   2.046 -0.1866 -0.7025  0.2558
16109SOL     OW53173   1.723   7.567   2.329  0.6579 -0.6017  0.6832
16109SOL    HW153174   1.689   7.533   2.246 -2.4559  1.6899  0.8865
16109SOL    HW253175   1.770   7.646   2.304 -1.4254  0.8368  1.1362
16110SOL     OW53176   3.821   6.818   4.613  0.0465 -0.4022  0.2838
16110SOL    HW153177   3.797   6.911   4.610 -1.7423 -0.8321 -0.0107
16110SOL    HW253178   3.765   6.777   4.548  0.0168 -1.8492  1.1763
16111SOL     OW53179   6.343   7.228   1.841  0.1097  0.2627  1.3097
16111SOL    HW153180   6.258   7.270   1.827 -0.4011 -0.6754  1.5504
16111SOL    HW253181   6.405   7.285   1.796 -0.8815 -0.0397 -0.5436
16112SOL     OW53182   4.970   7.987   2.729 -0.6557  0.5773 -0.3171
16112SOL    HW153183   4.965   8.042   2.808  0.1369 -0.3825  0.4237
16112SOL    HW253184   4.942   7.901   2.758  3.1579 -0.7594 -0.0836
16113SOL     OW53185   6.208   6.661   4.357  1.1398 -0.6122 -0.2336
16113SOL    HW153186   6.247   6.726   4.299  3.8949 -0.4920  1.5647
16113SOL    HW253187   6.128   6.702   4.390  1.0462  0.4541 -1.6987
16114SOL     OW53188   4.759   7.006   4.873 -0.2448 -0.0167  0.2844
16114SOL    HW153189   4.816   6.938   4.838  0.3266  0.7774 -0.3610
16114SOL    HW253190   4.819   7.068   4.915 -0.7352  0.2406  0.6088
16115SOL     OW53191   5.680   5.526   4.311  0.2958  0.4687  0.1891
16115SOL    HW153192   5.662   5.584   4.385  1.0125  1.9248 -0.7436
16115SOL    HW253193   5.696   5.584   4.237  1.4964 -0.8845 -0.6901
16116SOL     OW53194   3.253   7.546   7.214 -0.0946  0.1547  0.0599
16116SOL    HW153195   3.224   7.531   7.304  1.8106 -0.5209  0.6047
16116SOL    HW253196   3.336   7.499   7.207  0.3822  1.1582 -1.7026
16117SOL     OW53197   2.161   7.463   2.597  0.2212  0.7148 -0.2725
16117SOL    HW153198   2.077   7.463   2.551  0.3207 -0.1954 -0.4871
16117SOL    HW253199   2.226   7.444   2.529  0.2296 -2.0796  0.3952
16118SOL     OW53200   4.671   8.471   3.696 -1.0602 -0.0679 -0.3426
16118SOL    HW153201   4.666   8.422   3.613  2.5252 -0.6892 -0.3728
16118SOL    HW253202   4.687   8.562   3.669  1.3582 -0.4521 -0.5108
16119SOL     OW53203   2.684   8.586   2.125  0.2987 -0.2731  0.2228
16119SOL    HW153204   2.601   8.573   2.172  0.2936 -2.5762 -0.2765
16119SOL    HW253205   2.675   8.672   2.084 -1.9608 -0.5173  0.0333
16120SOL     OW53206   4.770   7.069   6.301  0.5904  0.2672  0.0161
16120SOL    HW153207   4.803   7.138   6.359  2.4844 -0.9692  0.4700
16120SOL    HW253208   4.848   7.023   6.270 -0.3677  0.4855 -3.1093
16121SOL     OW53209   3.040   8.069   5.281  0.2034  0.1161  0.4621
16121SOL    HW153210   3.039   8.123   5.360  1.8739 -0.6949  1.0760
16121SOL    HW253211   3.128   8.080   5.246  0.2184 -1.3606 -0.0014
16122SOL     OW53212   2.781   8.153   4.380  0.0344  0.2445  0.1934
16122SOL    HW153213   2.847   8.222   4.379 -0.1539  0.4372  0.7763
16122SOL    HW253214   2.793   8.109   4.465 -0.6005  0.3000  0.3174
16123SOL     OW53215   4.160   8.018   3.973 -0.2006 -0.1225  0.3075
16123SOL    HW153216   4.076   8.048   3.940 -0.0220 -1.0697 -1.0655
16123SOL    HW253217   4.221   8.089   3.951 -0.0842 -0.7285 -1.4524
16124SOL     OW53218   3.424   9.162   4.451 -0.3405  0.0072 -0.0851
16124SOL    HW153219   3.355   9.134   4.512  0.4338  1.1492  1.3508
16124SOL    HW253220   3.505   9.133   4.492  0.1661  0.3517 -0.8369
16125SOL     OW53221   5.542   6.971   4.620  0.2090  0.2546 -0.4336
16125SOL    HW153222   5.619   7.027   4.616  2.0005 -2.0617 -0.6919
16125SOL    HW253223   5.469   7.028   4.595  1.6387  2.7884  0.8261
16126SOL     OW53224   4.765   8.864   1.140  1.2108 -0.0374 -0.8289
16126SOL    HW153225   4.788   8.779   1.102  0.7064 -1.2111  1.3184
16126SOL    HW253226   4.669   8.867   1.135  0.8274 -1.5968  2.8291
16127SOL     OW53227   8.353   0.069   5.466 -0.3719 -0.0670 -0.3220
16127SOL    HW153228   8.296   0.083   5.390 -0.3440 -1.8097 -0.6885
16127SOL    HW253229   8.353   0.154   5.511 -3.4587 -0.0220 -0.1702
16128SOL     OW53230   4.473   0.048   6.100  0.2865  0.1776 -0.4338
16128SOL    HW153231   4.398   0.032   6.157  1.0224 -1.0661  0.2261
16128SOL    HW253232   4.444   0.117   6.041 -1.2349 -0.0063  0.0602
16129SOL     OW53233   5.127   7.879   6.357 -0.4011 -0.1325 -0.3241
16129SOL    HW153234   5.122   7.867   6.452 -0.9905  1.8786 -0.0464
16129SOL    HW253235   5.218   7.902   6.340 -0.5212  0.5570 -0.0742
16130SOL     OW53236   6.751   9.062   3.050 -0.2763  0.3224  0.4555
16130SOL    HW153237   6.834   9.051   3.096  0.4776  1.0578 -0.6749
16130SOL    HW253238   6.760   9.009   2.971 -1.6061 -1.0401  1.1546
16131SOL     OW53239   1.922   0.895   2.896 -0.5771 -0.3440 -0.0668
16131SOL    HW153240   1.959   0.866   2.813  0.1846  1.7249 -0.4985
16131SOL    HW253241   1.993   0.942   2.939 -1.0932 -1.0016  1.6042
16132SOL     OW53242   3.485   9.578   7.897  0.6902 -0.0468 -0.6302
16132SOL    HW153243   3.410   9.577   7.956  1.2581 -0.7818  0.1097
16132SOL    HW253244   3.487   9.490   7.858  1.1074 -0.0067 -0.7124
16133SOL     OW53245   3.072   8.645   5.730  0.7443 -0.1203  0.2872
16133SOL    HW153246   3.042   8.555   5.748  0.6941 -0.0296  0.6727
16133SOL    HW253247   3.053   8.693   5.811  1.4416  0.0675  0.3486
16134SOL     OW53248   4.006   6.684   4.760  0.5071 -0.0267 -0.3780
16134SOL    HW153249   3.952   6.725   4.693  1.5082  1.5635 -0.2633
16134SOL    HW253250   3.972   6.594   4.768 -2.4347  1.0306  0.0743
16135SOL     OW53251   4.778   8.927   6.774  0.7789 -0.2611 -0.8103
16135SOL    HW153252   4.785   8.913   6.679  1.5590 -0.6540 -0.7078
16135SOL    HW253253   4.722   8.856   6.804  0.5553 -0.1545 -0.9794
16136SOL     OW53254   6.843   8.097   3.893 -0.0856  0.0064 -0.5822
16136SOL    HW153255   6.844   8.003   3.878  1.3131 -0.3764  1.5052
16136SOL    HW253256   6.776   8.111   3.960  1.9537 -0.0249  1.5738
16137SOL     OW53257   3.072   8.269   1.623 -0.6077  0.1753 -0.3102
16137SOL    HW153258   3.008   8.331   1.587 -0.2150  0.1656 -1.0548
16137SOL    HW253259   3.022   8.213   1.681 -0.7169  2.2041  1.7024
16138SOL     OW53260   3.255   6.796   5.593  0.6572  0.4964 -0.7773
16138SOL    HW153261   3.321   6.747   5.641 -2.3565 -2.1546  1.0971
16138SOL    HW253262   3.230   6.738   5.521 -2.8875 -0.9812  1.3925
16139SOL     OW53263   3.032   9.695   4.250  0.4654  0.2160  0.3012
16139SOL    HW153264   3.083   9.703   4.331  2.4505 -0.8536 -0.7498
16139SOL    HW253265   2.987   9.778   4.241  0.2867  0.3922  2.4419
16140SOL     OW53266   3.480   0.078   7.525  0.0546 -0.1159  0.5220
16140SOL    HW153267   3.495   0.171   7.540 -0.1985  0.3950 -1.9523
16140SOL    HW253268   3.385   0.071   7.512  0.3044 -0.2940 -1.4960
16141SOL     OW53269   3.530   7.095   4.279  0.9175  0.3529 -0.0242
16141SOL    HW153270   3.439   7.090   4.309  1.1158 -1.3889  0.4008
16141SOL    HW253271   3.577   7.136   4.352  0.5624  0.7159 -0.0002
16142SOL     OW53272   2.668   7.197   5.856  0.1946  0.1648 -0.4012
16142SOL    HW153273   2.740   7.188   5.793  0.3742 -1.1573 -0.0402
16142SOL    HW253274   2.711   7.214   5.940 -0.0047  1.0878 -0.4788
16143SOL     OW53275   1.306   6.769   3.505  0.5075  0.1503 -0.1108
16143SOL    HW153276   1.267   6.697   3.555  1.3805 -0.4636 -0.2945
16143SOL    HW253277   1.309   6.737   3.415 -2.1126  1.6839 -0.8411
16144SOL     OW53278   4.512   6.673   4.739  0.8528  0.1524  0.4457
16144SOL    HW153279   4.442   6.714   4.789  1.0497  0.3731  0.5445
16144SOL    HW253280   4.477   6.588   4.712 -0.7745  1.5951 -2.4998
16145SOL     OW53281   3.539   9.291   5.202  0.2111  0.5641 -0.4748
16145SOL    HW153282   3.563   9.322   5.289  0.6935  0.0238 -0.4105
16145SOL    HW253283   3.464   9.233   5.217  2.0768 -1.8730 -0.0349
16146SOL     OW53284   4.980   7.764   6.161  0.9616  0.0727 -0.0189
16146SOL    HW153285   5.029   7.783   6.240 -1.3074  2.2229  0.9897
16146SOL    HW253286   4.889   7.776   6.185  0.2072  1.6463 -3.1441
16147SOL     OW53287   4.826   6.817   7.843 -0.2280  0.1964 -0.3378
16147SOL    HW153288   4.819   6.881   7.771  1.0067 -0.2223 -0.8548
16147SOL    HW253289   4.800   6.866   7.921  0.0696  1.1547 -0.8182
16148SOL     OW53290   4.255   9.031   5.405 -0.3102 -0.0729 -0.6091
16148SOL    HW153291   4.172   9.035   5.452  0.2430  1.2789  0.3088
16148SOL    HW253292   4.242   8.963   5.339 -1.6430 -0.9007  0.4667
16149SOL     OW53293   6.360   7.054   1.304  0.5294 -0.1252  0.4144
16149SOL    HW153294   6.340   6.969   1.342 -2.1540  0.6430  0.9947
16149SOL    HW253295   6.409   7.100   1.372  1.2458 -0.8802  0.4247
16150SOL     OW53296   4.606   9.444   4.658 -0.0675 -0.4046  0.0115
16150SOL    HW153297   4.550   9.496   4.715  1.3286 -1.4939  2.5255
16150SOL    HW253298   4.679   9.417   4.713  0.5219 -2.9652 -1.8334
16151SOL     OW53299   1.813   9.679   5.920 -0.3459 -0.4922 -0.4270
16151SOL    HW153300   1.744   9.697   5.856 -1.0866  2.5781  1.0125
16151SOL    HW253301   1.782   9.723   6.000  2.4167 -0.6184  0.8068
16152SOL     OW53302   4.561   7.878   4.797 -0.0306  0.1549 -0.6582
16152SOL    HW153303   4.588   7.799   4.749 -1.1551 -0.2875 -0.5986
16152SOL    HW253304   4.512   7.929   4.733 -1.2521 -0.2821 -0.1191
16153SOL     OW53305   4.711   8.265   4.568 -0.0194 -0.0277  0.3461
16153SOL    HW153306   4.641   8.302   4.623 -0.0382  0.1266  0.2208
16153SOL    HW253307   4.666   8.239   4.488  0.5328  3.2743 -1.2437
16154SOL     OW53308   7.582   8.855   4.449  0.1317 -0.0221 -0.2536
16154SOL    HW153309   7.513   8.803   4.488 -0.1164  0.3874 -0.1351
16154SOL    HW253310   7.599   8.925   4.513 -0.1668  0.5571 -0.7974
16155SOL     OW53311   3.380   8.660   5.705  0.0492 -0.2509  0.7813
16155SOL    HW153312   3.290   8.629   5.713  0.1236 -0.8325 -0.4894
16155SOL    HW253313   3.426   8.589   5.661  0.3085  1.4856 -1.9603
16156SOL     OW53314   2.644   0.906   2.139 -0.0288 -0.1825  0.5289
16156SOL    HW153315   2.666   0.827   2.090 -1.7902 -0.6792  0.4692
16156SOL    HW253316   2.552   0.924   2.115  0.6208  2.5068 -0.3363
16157SOL     OW53317   6.907   7.184   1.629 -0.2903  0.0217  0.0089
16157SOL    HW153318   6.910   7.094   1.661 -0.2872  0.0040 -0.0420
16157SOL    HW253319   6.976   7.188   1.563  0.9617  0.5708  1.3015
16158SOL     OW53320   4.406   7.310   5.087  0.0798 -0.4079  0.7498
16158SOL    HW153321   4.373   7.272   5.168 -0.9600 -0.9751  0.0737
16158SOL    HW253322   4.459   7.241   5.047 -0.1211 -0.4322  0.5238
16159SOL     OW53323   5.529   8.180   2.840 -0.3001  0.3101 -0.2505
16159SOL    HW153324   5.610   8.213   2.880  0.5579 -1.6582 -0.2301
16159SOL    HW253325   5.547   8.184   2.746  0.4728 -1.4857 -0.2276
16160SOL     OW53326   6.320   0.479   3.239  0.1380  0.1884  0.1785
16160SOL    HW153327   6.409   0.486   3.273  0.1605  0.8184  0.0068
16160SOL    HW253328   6.323   0.406   3.177  0.6352  0.4733 -0.1346
16161SOL     OW53329   4.749   3.807   3.327  0.4854  0.0275  0.6292
16161SOL    HW153330   4.770   3.853   3.409  0.5667  0.5450  0.3267
16161SOL    HW253331   4.676   3.857   3.290 -2.1344 -2.3579  2.1826
16162SOL     OW53332   4.534   7.962   6.441 -0.4990 -0.6130  0.0491
16162SOL    HW153333   4.522   8.040   6.387  0.0657 -0.8656 -0.4468
16162SOL    HW253334   4.628   7.959   6.458 -0.3559 -1.8074 -0.8713
16163SOL     OW53335   4.283   7.732   7.670 -0.3352 -0.1848  0.7152
16163SOL    HW153336   4.279   7.768   7.582 -0.2738 -3.8844 -0.9739
16163SOL    HW253337   4.377   7.734   7.692 -0.3320  0.6046  0.6418
16164SOL     OW53338   7.379   1.320   3.353  0.4778 -0.2048  0.2352
16164SOL    HW153339   7.291   1.284   3.342  0.4498  0.0991 -0.6090
16164SOL    HW253340   7.406   1.290   3.440  0.1934 -1.7116 -0.1557
16165SOL     OW53341   1.679   8.434   6.233  0.0217  0.0113  0.1406
16165SOL    HW153342   1.735   8.471   6.165  0.8307 -1.2423  0.0933
16165SOL    HW253343   1.590   8.455   6.205  0.3923  0.4209 -0.7579
16166SOL     OW53344   3.054   9.715   2.472 -0.1107  0.3908  0.4014
16166SOL    HW153345   3.077   9.807   2.486 -0.5748  0.7298 -0.9496
16166SOL    HW253346   2.960   9.716   2.456 -0.0885 -0.2980  0.1958
16167SOL     OW53347   5.159   7.000   4.058  0.1269 -0.0181 -0.1033
16167SOL    HW153348   5.076   7.039   4.086  0.9976  0.1920  2.4436
16167SOL    HW253349   5.158   7.007   3.963 -1.4688  2.6720  0.0136
16168SOL     OW53350   2.626   9.025   4.840  0.2777  0.2550 -0.0924
16168SOL    HW153351   2.539   9.066   4.840  0.4226  0.5769  0.7893
16168SOL    HW253352   2.654   9.030   4.749 -0.3016  0.8608 -0.2491
16169SOL     OW53353   2.926   5.473   4.562 -0.0036 -0.2859 -0.0302
16169SOL    HW153354   2.854   5.535   4.568  0.0579 -0.3015  0.8830
16169SOL    HW253355   2.985   5.511   4.496  0.6162  1.2330  1.3611
16170SOL     OW53356   2.738   7.061   2.595  0.1072 -0.2863  0.4316
16170SOL    HW153357   2.669   7.088   2.656 -1.0659 -0.5429 -0.7467
16170SOL    HW253358   2.722   7.113   2.516  1.9835  0.5023  0.5143
16171SOL     OW53359   5.388   8.536   4.659  0.7262 -0.3220 -0.7435
16171SOL    HW153360   5.338   8.559   4.737  0.9546 -0.2001 -0.6337
16171SOL    HW253361   5.464   8.488   4.692  1.2318  0.4032 -0.8280
16172SOL     OW53362   5.082   7.141   5.392  0.5517 -0.5848  0.8499
16172SOL    HW153363   5.070   7.212   5.328 -0.4449 -0.3994  1.2174
16172SOL    HW253364   5.054   7.063   5.345  0.5151 -0.5563  0.8232
16173SOL     OW53365   4.938   0.512   4.560 -0.1811  0.4417 -0.1535
16173SOL    HW153366   4.894   0.597   4.567 -2.3393 -0.5070 -1.2513
16173SOL    HW253367   4.954   0.501   4.466 -0.1778 -0.4900 -0.0495
16174SOL     OW53368   2.245   8.811   5.422 -0.1449 -0.3224  0.5276
16174SOL    HW153369   2.307   8.882   5.407 -1.2626  0.4870 -0.4204
16174SOL    HW253370   2.298   8.732   5.419  0.6952  0.2438 -1.6464
16175SOL     OW53371   4.250   7.653   6.422 -0.1025  0.0148 -0.3787
16175SOL    HW153372   4.160   7.628   6.441 -0.7934  1.4705 -1.4738
16175SOL    HW253373   4.286   7.680   6.506 -0.4915 -1.1402  0.1684
16176SOL     OW53374   2.543   7.766   6.200  0.3579  0.2553 -0.1533
16176SOL    HW153375   2.582   7.813   6.126  1.6864  0.5290  0.6896
16176SOL    HW253376   2.508   7.835   6.256 -0.9985  0.0276 -0.7027
16177SOL     OW53377   5.560   8.159   6.468  0.0108 -0.5056  0.1177
16177SOL    HW153378   5.558   8.158   6.372 -0.4149  0.8663  0.0886
16177SOL    HW253379   5.487   8.215   6.492  0.9702  0.3220  1.2005
16178SOL     OW53380   3.729   9.653   5.437 -0.1346 -0.1412  0.5798
16178SOL    HW153381   3.754   9.707   5.512  0.4819 -0.1708  0.3973
16178SOL    HW253382   3.673   9.710   5.385 -1.0227 -0.3005  1.3359
16179SOL     OW53383   3.962   8.095   4.303 -0.0340 -0.2549 -0.2293
16179SOL    HW153384   3.961   8.183   4.267 -0.9266  0.0842  0.5837
16179SOL    HW253385   3.888   8.051   4.262 -1.1481  0.1815  1.2295
16180SOL     OW53386   3.442   8.932   5.285 -0.3379 -0.7996 -0.3557
16180SOL    HW153387   3.435   8.914   5.379  1.3512 -0.6994 -0.1778
16180SOL    HW253388   3.384   9.006   5.271  0.1463 -0.1543  0.8287
16181SOL     OW53389   5.647   7.601   8.599 -0.3637 -0.1115  0.4736
16181SOL    HW153390   5.574   7.660   8.619 -0.9244 -1.0778  1.3386
16181SOL    HW253391   5.611   7.540   8.534 -1.2772 -2.3294  2.8994
16182SOL     OW53392   5.050   8.371   4.070 -0.0097 -0.0033 -0.0377
16182SOL    HW153393   4.962   8.344   4.041  0.6800 -0.3803 -1.9396
16182SOL    HW253394   5.063   8.455   4.027  1.0252 -0.5328 -0.7932
16183SOL     OW53395   5.436   7.658   5.081 -0.0463  0.0743 -0.4197
16183SOL    HW153396   5.518   7.683   5.123  0.4262  1.0289 -1.8454
16183SOL    HW253397   5.428   7.716   5.006 -1.5973 -0.5917 -0.8227
16184SOL     OW53398   3.759   8.453   2.479 -0.7032 -0.2840 -0.4597
16184SOL    HW153399   3.705   8.521   2.519 -0.0396 -0.2178  0.3611
16184SOL    HW253400   3.818   8.424   2.549 -0.2697 -0.9733 -1.0814
16185SOL     OW53401   2.458   0.301   2.114  0.3820  0.4054 -0.0487
16185SOL    HW153402   2.430   0.381   2.158  3.1311  0.8620  1.0805
16185SOL    HW253403   2.509   0.331   2.039 -0.6690 -0.3569 -1.1111
16186SOL     OW53404   6.034   8.259   1.334  0.3539  0.7353 -0.8978
16186SOL    HW153405   6.029   8.328   1.268  1.9153 -0.0000 -1.8618
16186SOL    HW253406   5.954   8.209   1.322 -0.1580  1.5806 -1.0982
16187SOL     OW53407   3.662   9.038   5.016 -0.4377 -0.5876  0.0310
16187SOL    HW153408   3.589   9.097   4.997  0.5552 -0.0179 -2.4390
16187SOL    HW253409   3.701   9.021   4.930  1.2747 -2.2738  1.0811
16188SOL     OW53410   4.333   0.024   4.011  0.2866 -0.0061 -0.2923
16188SOL    HW153411   4.293   0.043   4.096  2.2774  1.7133  0.3487
16188SOL    HW253412   4.260  -0.006   3.956 -0.6725 -4.3373  2.7845
16189SOL     OW53413   3.859   0.163   2.412 -0.4783 -0.6185  0.7720
16189SOL    HW153414   3.914   0.174   2.490  0.7771  2.6255 -0.3752
16189SOL    HW253415   3.809   0.245   2.407 -2.8846 -2.0387 -0.1835
16190SOL     OW53416   3.903   7.868   6.057  0.3484  0.2453 -0.3778
16190SOL    HW153417   3.895   7.964   6.060 -0.6815  0.1794 -0.5611
16190SOL    HW253418   3.830   7.840   6.002  0.5014 -0.6684 -0.1274
16191SOL     OW53419   4.041   9.661   6.223 -0.5551 -0.3661 -0.2689
16191SOL    HW153420   4.005   9.607   6.152 -3.0905  0.5959  0.1896
16191SOL    HW253421   4.032   9.607   6.301  0.2827 -0.6275 -0.3467
16192SOL     OW53422   1.279   7.732   5.054 -0.1240  0.3365  0.0696
16192SOL    HW153423   1.231   7.653   5.026 -0.0119 -0.1612  1.2022
16192SOL    HW253424   1.348   7.743   4.989 -2.1789  1.5072 -2.0354
16193SOL     OW53425   2.824   6.985   5.728  0.0962  0.1039  0.4738
16193SOL    HW153426   2.750   6.973   5.787 -0.5709  2.9901  0.3411
16193SOL    HW253427   2.895   6.934   5.768 -1.1944 -0.5792  2.0199
16194SOL     OW53428   3.261   9.122   7.576 -0.1396 -0.8243  0.3897
16194SOL    HW153429   3.189   9.059   7.586 -0.0116 -1.4623 -1.9409
16194SOL    HW253430   3.322   9.078   7.517 -0.2018  1.5659 -1.6117
16195SOL     OW53431   3.007   8.006   3.601 -0.6390 -0.8631 -0.2084
16195SOL    HW153432   2.983   7.925   3.646 -1.4749 -0.1126  0.7555
16195SOL    HW253433   2.945   8.012   3.529 -2.2800  0.1382  1.1977
16196SOL     OW53434   3.493   7.880   6.321  0.5353  0.3767  0.2541
16196SOL    HW153435   3.586   7.890   6.340  0.8607  0.0246 -1.0455
16196SOL    HW253436   3.475   7.943   6.252  0.3807 -1.1585 -1.1721
16197SOL     OW53437   6.685   7.758   2.789 -0.9660  0.1116  0.2753
16197SOL    HW153438   6.718   7.692   2.728 -1.9133  1.3540 -1.6858
16197SOL    HW253439   6.679   7.838   2.737 -1.3567  1.3649  2.1565
16198SOL     OW53440   4.222   6.664   6.372 -0.4504 -0.4137  0.2606
16198SOL    HW153441   4.187   6.581   6.404  3.0942 -1.4818  1.9008
16198SOL    HW253442   4.260   6.705   6.450 -0.7150  2.0464 -0.8040
16199SOL     OW53443   6.048   9.466   3.578 -0.4961 -0.2490 -0.5118
16199SOL    HW153444   6.086   9.532   3.521 -2.0703  0.4565 -0.7794
16199SOL    HW253445   6.121   9.438   3.633  0.5277  0.6761 -1.3473
16200SOL     OW53446   5.730   6.403   2.988 -0.1255 -0.0283  0.3346
16200SOL    HW153447   5.758   6.358   2.909  1.2323  3.3276 -1.2781
16200SOL    HW253448   5.644   6.439   2.966 -0.1549  0.1420  0.7201
16201SOL     OW53449   4.571   8.226   3.822 -0.2062 -0.5223  0.1283
16201SOL    HW153450   4.557   8.298   3.761  1.6729 -0.5244 -0.3626
16201SOL    HW253451   4.633   8.168   3.778 -0.3973 -1.5921  1.2008
16202SOL     OW53452   8.285   6.766   5.552  0.5214  0.0389  0.2687
16202SOL    HW153453   8.296   6.747   5.459 -0.4750 -2.4084  0.5775
16202SOL    HW253454   8.280   6.861   5.557  1.9613  0.2781 -1.9977
16203SOL     OW53455   2.406   4.971   2.751 -0.0991 -0.5410  0.1693
16203SOL    HW153456   2.414   4.876   2.749 -0.8305 -0.5998 -0.1739
16203SOL    HW253457   2.470   4.999   2.816  0.2171 -1.2572  0.1734
16204SOL     OW53458   5.088   0.909   3.412  0.1601 -0.2427 -0.0177
16204SOL    HW153459   5.102   0.821   3.377 -0.2637 -0.3038 -0.0505
16204SOL    HW253460   5.174   0.951   3.410  0.9280 -1.5172  2.3792
16205SOL     OW53461   4.361   8.419   6.474 -0.0019 -0.2231  0.1822
16205SOL    HW153462   4.330   8.409   6.564  0.2455 -0.6422  0.2234
16205SOL    HW253463   4.287   8.457   6.427 -0.3706 -0.6540  0.4100
16206SOL     OW53464   2.427   8.539   5.570  0.3228 -0.2163  0.0560
16206SOL    HW153465   2.410   8.566   5.480  0.3911 -2.8672 -0.8328
16206SOL    HW253466   2.346   8.495   5.597  0.3012  0.5637  1.3064
16207SOL     OW53467   2.960   7.330   7.580 -0.9341 -0.8773  0.2971
16207SOL    HW153468   2.873   7.328   7.620 -1.6465  0.8902 -1.0240
16207SOL    HW253469   2.962   7.411   7.530 -0.3203 -3.0888 -3.6817
16208SOL     OW53470   4.239   1.367   6.283  0.2343 -0.3612  0.0499
16208SOL    HW153471   4.334   1.370   6.286  0.2007  0.1712  0.9016
16208SOL    HW253472   4.213   1.321   6.362 -0.2180 -0.6152 -0.2410
16209SOL     OW53473   4.018   8.052   5.734 -0.0523  0.2255 -0.0872
16209SOL    HW153474   3.995   8.102   5.813 -1.4832  2.0541 -1.5653
16209SOL    HW253475   3.939   8.054   5.681  0.8779 -0.9687 -1.6040
16210SOL     OW53476   7.469   8.992   6.352 -0.1280 -0.3658  0.2877
16210SOL    HW153477   7.414   9.057   6.308 -1.5132 -1.8545 -0.2481
16210SOL    HW253478   7.492   8.929   6.284  0.8215 -0.7158  0.8969
16211SOL     OW53479   3.987   7.683   7.749  0.4022  0.7609  0.1184
16211SOL    HW153480   3.986   7.642   7.663 -1.5160 -2.4669  1.5042
16211SOL    HW253481   4.080   7.685   7.774  0.8124  0.1404 -1.2950
16212SOL     OW53482   4.228   7.901   8.651  0.0454  0.1014  0.0124
16212SOL    HW153483   4.313   7.922   8.612 -0.0089  0.0735 -0.1209
16212SOL    HW253484   4.239   7.920   8.744 -0.2732  1.5897 -0.2260
16213SOL     OW53485   3.393   8.245   4.961  0.2313 -0.0910  0.5968
16213SOL    HW153486   3.455   8.289   5.020  1.2082 -0.1351 -0.3700
16213SOL    HW253487   3.448   8.193   4.903 -0.8211 -1.4193  0.7382
16214SOL     OW53488   1.773   7.465   6.227  0.0313  0.1218  0.5915
16214SOL    HW153489   1.824   7.384   6.238  0.6338  0.0964 -1.8186
16214SOL    HW253490   1.779   7.509   6.312  0.9760 -1.6287  1.4853
16215SOL     OW53491   2.095   6.128   5.689 -0.3776 -0.4088 -0.2870
16215SOL    HW153492   2.060   6.162   5.771  2.3211  1.1302  0.3438
16215SOL    HW253493   2.059   6.187   5.622 -2.1377 -1.3349 -0.2233
16216SOL     OW53494   3.833   2.314   8.513 -0.1086 -1.1271  0.5739
16216SOL    HW153495   3.814   2.224   8.486 -1.8460 -0.7951  0.6088
16216SOL    HW253496   3.759   2.340   8.568 -0.1141  0.6518 -0.1941
16217SOL     OW53497   3.316   6.770   7.059  0.0333  0.1098 -0.0210
16217SOL    HW153498   3.381   6.793   6.993 -0.2564 -1.4608 -0.8911
16217SOL    HW253499   3.348   6.811   7.139  1.1385  0.8655 -0.8144
16218SOL     OW53500   5.237   9.333   5.895  0.1767 -0.2936  0.3671
16218SOL    HW153501   5.247   9.368   5.807  0.3855 -3.4588 -1.0026
16218SOL    HW253502   5.325   9.309   5.922 -0.2229 -2.4266 -0.0405
16219SOL     OW53503   4.719   0.162   7.418 -0.2118  0.4090 -0.2377
16219SOL    HW153504   4.721   0.133   7.327 -0.1021  1.0554 -0.4429
16219SOL    HW253505   4.794   0.221   7.426  0.6985 -0.8183  0.6658
16220SOL     OW53506   1.592   6.431   7.129 -0.5941  0.2689  0.5206
16220SOL    HW153507   1.553   6.491   7.065  0.7523  0.9592  0.2984
16220SOL    HW253508   1.601   6.348   7.083 -1.6351  0.1429  0.5316
16221SOL     OW53509   4.316   2.909   7.561 -0.0084 -0.1962  0.2236
16221SOL    HW153510   4.315   2.974   7.490 -1.3374 -0.6613 -0.2142
16221SOL    HW253511   4.266   2.835   7.526 -0.1357 -0.6938  1.4225
16222SOL     OW53512   3.951   8.780   7.262  0.4358 -0.6358  0.5995
16222SOL    HW153513   3.932   8.687   7.271  2.2453 -1.2374 -1.2038
16222SOL    HW253514   3.897   8.809   7.188  2.1960 -1.0483 -0.9064
16223SOL     OW53515   3.393   8.589   7.429  0.2326  0.2852 -0.6916
16223SOL    HW153516   3.318   8.646   7.449  0.1192  0.2279 -0.9453
16223SOL    HW253517   3.354   8.504   7.409  0.4708 -0.2134  0.8154
16224SOL     OW53518   1.152   8.609   6.933 -0.0091  0.0044  0.5314
16224SOL    HW153519   1.112   8.586   7.017  1.0285  1.7763  1.5763
16224SOL    HW253520   1.246   8.596   6.947  0.2509  1.1943 -0.0470
16225SOL     OW53521   5.226   8.396   7.489  0.8292  0.2225 -0.1506
16225SOL    HW153522   5.197   8.478   7.529 -1.2004  0.0433 -1.1259
16225SOL    HW253523   5.176   8.390   7.408  1.1939 -1.8187 -0.2694
16226SOL     OW53524   3.607   7.746   6.029 -0.3820 -0.0878  0.7953
16226SOL    HW153525   3.564   7.733   6.114 -1.0711 -2.7531  0.1311
16226SOL    HW253526   3.691   7.702   6.038 -0.2541  0.0374  0.2538
16227SOL     OW53527   4.810   8.973   6.209 -0.4642 -0.3692 -0.1679
16227SOL    HW153528   4.902   8.992   6.229 -0.5765 -1.2028  1.2797
16227SOL    HW253529   4.780   9.050   6.161  0.2522  1.1628  1.7328
16228SOL     OW53530   3.427   8.880   5.572 -0.1668  0.6127  0.3080
16228SOL    HW153531   3.519   8.893   5.596 -0.3354  1.7307  0.4073
16228SOL    HW253532   3.402   8.798   5.615  0.9205  0.0316 -0.1345
16229SOL     OW53533   5.085   7.373   2.638 -0.3450 -0.1219  0.2812
16229SOL    HW153534   5.066   7.305   2.702 -0.5008  1.5978  2.1571
16229SOL    HW253535   5.000   7.411   2.617 -0.2221 -0.2429 -0.4807
16230SOL     OW53536   3.982   1.691   8.447  0.1854 -0.5059  0.1693
16230SOL    HW153537   4.046   1.640   8.499  1.8651  1.0095 -0.3114
16230SOL    HW253538   4.021   1.695   8.360  0.3221  1.8875  0.2783
16231SOL     OW53539   4.196   1.682   4.807 -0.1549 -0.3514  0.1977
16231SOL    HW153540   4.251   1.755   4.779 -3.8700  2.3980 -0.7033
16231SOL    HW253541   4.163   1.707   4.893  0.6349 -2.3700  1.1545
16232SOL     OW53542   4.624   9.176   6.709  0.2198 -0.4615  0.2548
16232SOL    HW153543   4.610   9.098   6.762  0.3537 -1.1048 -0.6325
16232SOL    HW253544   4.693   9.224   6.756  1.6768 -1.9406 -0.2788
16233SOL     OW53545   5.682   8.417   3.503 -0.1920  0.3182 -0.2921
16233SOL    HW153546   5.591   8.387   3.503 -0.5851  1.3191 -2.5032
16233SOL    HW253547   5.733   8.336   3.506 -1.1788 -0.3390 -0.6122
16234SOL     OW53548   5.565   0.795   8.106  0.7293 -0.4226 -0.1222
16234SOL    HW153549   5.574   0.715   8.157  0.4703 -0.7977 -0.6558
16234SOL    HW253550   5.567   0.766   8.015 -0.9954 -0.0065 -0.3166
16235SOL     OW53551   4.912   0.249   6.333  0.1285 -0.2769  0.4183
16235SOL    HW153552   4.839   0.279   6.387  0.4515  0.2174  0.5864
16235SOL    HW253553   4.870   0.212   6.255 -0.2910  3.0594 -1.1234
16236SOL     OW53554   5.871   8.858   6.597 -0.4910  0.2165 -0.0347
16236SOL    HW153555   5.839   8.904   6.675  2.9901  0.3734  1.4553
16236SOL    HW253556   5.870   8.925   6.528 -0.0270  1.1973  0.8790
16237SOL     OW53557   2.936   6.983   9.170 -0.1280 -0.1945 -0.1365
16237SOL    HW153558   2.941   7.077   9.154 -1.4070  0.0415  0.7648
16237SOL    HW253559   2.873   6.973   9.241  0.0651 -1.7286 -0.1387
16238SOL     OW53560   5.863   7.766   7.842 -0.3389  0.3444 -0.2779
16238SOL    HW153561   5.770   7.789   7.843 -0.9709 -1.9529  0.7523
16238SOL    HW253562   5.869   7.688   7.897  1.7373 -1.3206 -2.6206
16239SOL     OW53563   6.313   2.366   3.118 -0.1144  0.7369 -0.0954
16239SOL    HW153564   6.322   2.461   3.113  1.4762  0.5619 -1.5270
16239SOL    HW253565   6.392   2.337   3.163 -0.0380  0.0374 -0.6583
16240SOL     OW53566   4.872   7.588   5.440 -0.6092 -0.1352 -0.0346
16240SOL    HW153567   4.898   7.655   5.377  0.5764 -1.0788 -0.5932
16240SOL    HW253568   4.800   7.541   5.398  1.8892 -2.5516 -2.0791
16241SOL     OW53569   6.083   6.115   6.958 -0.9418 -0.4313 -0.7575
16241SOL    HW153570   6.177   6.136   6.952 -1.1542  0.6739 -0.4501
16241SOL    HW253571   6.067   6.059   6.882 -0.1857 -0.0136 -1.2486
16242SOL     OW53572   3.348   9.475   5.747 -0.6488 -0.6624 -0.0405
16242SOL    HW153573   3.354   9.401   5.808  0.6163 -0.9155 -0.4328
16242SOL    HW253574   3.338   9.434   5.661 -0.1467 -0.3894 -0.2352
16243SOL     OW53575   6.372   6.015   7.813  0.3639  0.5234  0.3261
16243SOL    HW153576   6.333   5.992   7.729  2.1968  0.7812 -0.6410
16243SOL    HW253577   6.386   6.109   7.809  1.9273  0.3235  0.2219
16244SOL     OW53578   4.013   5.457   9.411  0.4145  0.0194 -0.2281
16244SOL    HW153579   4.071   5.459   9.335  0.3986  0.7710 -0.2304
16244SOL    HW253580   4.070   5.435   9.484  0.3678 -1.0465 -0.5001
16245SOL     OW53581   1.406   8.319   4.985  0.3503  0.1182  0.0135
16245SOL    HW153582   1.375   8.410   4.983  2.0813  0.7832  1.2696
16245SOL    HW253583   1.493   8.322   4.945  0.3772 -1.0195 -0.0373
16246SOL     OW53584   4.297   8.435   7.890  0.0876  1.0185  0.0993
16246SOL    HW153585   4.268   8.347   7.915 -1.0736  1.1351 -0.7867
16246SOL    HW253586   4.389   8.438   7.918  0.7088 -1.1298 -1.4394
16247SOL     OW53587   2.809   7.932   6.561  0.7451 -0.3592  0.1502
16247SOL    HW153588   2.877   8.000   6.567 -0.0535  0.4694  0.0180
16247SOL    HW253589   2.782   7.932   6.469  0.0604 -0.1665  0.3433
16248SOL     OW53590   3.979   1.127   7.513 -0.1674  1.0014 -0.3000
16248SOL    HW153591   4.007   1.054   7.568 -1.1189  1.3532  0.6841
16248SOL    HW253592   4.028   1.203   7.546 -0.4706  1.1412 -0.1625
16249SOL     OW53593   4.447   9.714   6.835  0.4325 -0.3251  0.9298
16249SOL    HW153594   4.405   9.740   6.753  1.4804 -1.7923 -0.1424
16249SOL    HW253595   4.505   9.787   6.857 -0.0754  0.2034  0.5272
16250SOL     OW53596   3.521   8.048   6.106  0.1677 -0.5547 -0.4913
16250SOL    HW153597   3.556   8.001   6.030 -0.3383 -0.6211 -0.6851
16250SOL    HW253598   3.555   8.137   6.095  1.1332 -0.8649 -0.1177
16251SOL     OW53599   3.735   9.626   7.595 -0.6569  0.1593  0.0866
16251SOL    HW153600   3.785   9.690   7.647 -0.7250 -1.0194  1.6660
16251SOL    HW253601   3.793   9.605   7.521  1.2881 -1.1995  1.8952
16252SOL     OW53602   4.807   9.352   5.370 -0.2616  1.1753 -0.2595
16252SOL    HW153603   4.765   9.322   5.451  0.3987  2.6040  0.6548
16252SOL    HW253604   4.790   9.282   5.307  0.1166 -0.4797  1.3826
16253SOL     OW53605   3.346   1.167   7.546 -0.6401 -0.4078 -0.1066
16253SOL    HW153606   3.393   1.091   7.580 -1.7786 -0.1635  2.2025
16253SOL    HW253607   3.374   1.239   7.603  0.2398  0.9042 -2.0947
16254SOL     OW53608   3.845   9.309   5.983 -0.2888  0.4229 -0.5560
16254SOL    HW153609   3.786   9.341   5.914 -0.4564  0.4401 -0.4041
16254SOL    HW253610   3.856   9.216   5.964 -0.7323  0.3193 -0.3170
16255SOL     OW53611   6.101   9.032   5.830 -0.8180  0.7427  0.2024
16255SOL    HW153612   6.051   9.104   5.792  0.0636  0.5051 -1.5231
16255SOL    HW253613   6.190   9.045   5.797 -0.1230  0.1440  1.7441
16256SOL     OW53614   2.674   8.374   7.513  0.0194 -0.0554  0.0788
16256SOL    HW153615   2.590   8.406   7.545 -0.6725 -1.3956 -0.2839
16256SOL    HW253616   2.650   8.299   7.457  1.5274 -1.4174  1.1725
16257SOL     OW53617   2.707   9.203   5.797  0.1141 -0.0094  0.2652
16257SOL    HW153618   2.665   9.174   5.879 -1.0968 -0.0168 -0.3396
16257SOL    HW253619   2.723   9.121   5.749 -0.7480  0.1048 -0.2345
16258SOL     OW53620   4.238   7.018   5.732  0.6450  0.5942  0.1696
16258SOL    HW153621   4.312   6.958   5.718  1.0406  1.4464 -1.5210
16258SOL    HW253622   4.265   7.100   5.691 -0.1415  1.7991  1.9244
16259SOL     OW53623   6.798   7.800   3.938  0.0683 -0.5668 -0.4137
16259SOL    HW153624   6.826   7.759   3.856  1.4604 -0.8548  0.1878
16259SOL    HW253625   6.790   7.727   4.000 -1.3127 -0.3971 -0.3500
16260SOL     OW53626   6.667   9.651   8.386  0.3911 -0.7966 -0.0030
16260SOL    HW153627   6.658   9.555   8.385  0.3123 -0.8124 -2.5137
16260SOL    HW253628   6.579   9.683   8.366  0.4144 -0.1757  0.8425
16261SOL     OW53629   5.350   7.257   6.741  0.5548 -0.5156 -0.0204
16261SOL    HW153630   5.299   7.268   6.661 -0.1619 -0.6898  0.4048
16261SOL    HW253631   5.349   7.343   6.782 -0.3691 -0.7872  0.5511
16262SOL     OW53632   3.350   8.230   6.744  0.0573 -0.1251 -0.4645
16262SOL    HW153633   3.263   8.234   6.784  0.2067 -1.0247 -0.0318
16262SOL    HW253634   3.390   8.315   6.764 -0.0234 -0.4092  0.9644
16263SOL     OW53635   4.664   7.136   7.862  0.0805 -0.3629  0.3533
16263SOL    HW153636   4.632   7.059   7.815  1.9666 -0.6149 -0.6230
16263SOL    HW253637   4.703   7.190   7.794  1.1656  0.1864  1.3824
16264SOL     OW53638   2.007   8.425   7.969 -0.8470  0.2978  0.0981
16264SOL    HW153639   2.096   8.391   7.978 -0.1770  1.9178 -0.0558
16264SOL    HW253640   1.993   8.433   7.874 -0.6480  1.2711  0.1409
16265SOL     OW53641   5.930   8.187   5.969 -0.0445  0.0887  0.1079
16265SOL    HW153642   6.021   8.209   5.949 -0.1456  1.3514  0.9389
16265SOL    HW253643   5.932   8.162   6.062 -0.6397  0.6746  0.2797
16266SOL     OW53644   5.838   8.593   5.889  0.1556  0.1391 -0.4449
16266SOL    HW153645   5.840   8.511   5.840  1.0837 -0.6548  0.8372
16266SOL    HW253646   5.913   8.643   5.856 -0.0130  0.1812 -0.7620
16267SOL     OW53647   4.430   7.956   8.186  0.6882 -0.1755 -0.7734
16267SOL    HW153648   4.400   8.043   8.214 -0.5510 -1.3670  1.9924
16267SOL    HW253649   4.353   7.916   8.145  0.6782 -0.6122 -0.3414
16268SOL     OW53650   4.406   1.086   7.863 -0.5109 -0.4542  0.0398
16268SOL    HW153651   4.452   1.153   7.914 -1.4946 -0.0998  0.4881
16268SOL    HW253652   4.471   1.018   7.850  0.5367  0.5977 -0.4701
16269SOL     OW53653   6.661   6.142   4.836  0.4488 -0.1380  0.5315
16269SOL    HW153654   6.642   6.113   4.747  0.5863  1.4555 -0.0452
16269SOL    HW253655   6.652   6.063   4.890 -0.5138 -0.9308 -0.7549
16270SOL     OW53656   3.658   8.578   7.364  0.2752  0.2597  0.0207
16270SOL    HW153657   3.574   8.556   7.405  1.6372 -0.5586  2.5705
16270SOL    HW253658   3.639   8.655   7.311 -1.7876  1.0359  1.7501
16271SOL     OW53659   3.742   8.597   6.079  0.0249 -0.3217 -0.0815
16271SOL    HW153660   3.748   8.593   5.983 -1.5689 -0.0324 -0.2305
16271SOL    HW253661   3.648   8.602   6.096  0.3367  0.8474  1.4653
16272SOL     OW53662   5.738   6.673   7.648  0.7880  0.3407 -0.1366
16272SOL    HW153663   5.758   6.595   7.700 -0.3245  0.0943 -0.0478
16272SOL    HW253664   5.703   6.735   7.711  1.6347  0.9144 -0.2156
16273SOL     OW53665   6.970   7.620   4.840 -0.3394  0.3800  0.0192
16273SOL    HW153666   7.047   7.613   4.784 -0.2524 -1.4119  0.3029
16273SOL    HW253667   6.948   7.713   4.840  1.9052  0.9501  0.0449
16274SOL     OW53668   3.820   6.731   4.983 -0.1121 -0.4322 -0.1331
16274SOL    HW153669   3.869   6.779   4.917 -0.7929 -1.2267 -1.2521
16274SOL    HW253670   3.859   6.643   4.982 -1.3167 -0.9811 -0.8246
16275SOL     OW53671   4.259   8.055   5.222 -0.0143  0.4454 -0.1367
16275SOL    HW153672   4.212   8.133   5.251 -0.5330  0.2694 -0.4869
16275SOL    HW253673   4.302   8.082   5.141  0.8238  0.7219  0.3936
16276SOL     OW53674   5.258   0.333   4.479  0.2971 -0.2010  0.3871
16276SOL    HW153675   5.246   0.328   4.384 -0.5006  0.0917  0.4684
16276SOL    HW253676   5.303   0.252   4.502  1.2052  0.0825 -0.3419
16277SOL     OW53677   2.392   7.934   4.785  0.1415 -0.6331 -0.2744
16277SOL    HW153678   2.472   7.986   4.788 -1.9898  2.9473 -0.8578
16277SOL    HW253679   2.363   7.929   4.877 -0.3633  0.5227 -0.3519
16278SOL     OW53680   3.856   9.247   5.690  0.6790 -0.1386 -0.1764
16278SOL    HW153681   3.927   9.189   5.717  0.8187 -0.5230 -1.3423
16278SOL    HW253682   3.865   9.254   5.595  0.9909  2.2184 -0.0410
16279SOL     OW53683   2.711   5.675   9.404 -0.0886  0.1036  0.6633
16279SOL    HW153684   2.765   5.751   9.382  1.9749 -0.8337  2.1689
16279SOL    HW253685   2.621   5.709   9.407  0.7159  2.3569  0.7823
16280SOL     OW53686   3.009   8.137   6.540  0.1644 -0.1972  0.0227
16280SOL    HW153687   3.065   8.073   6.496  2.5789  0.7128  1.5913
16280SOL    HW253688   3.037   8.221   6.506  1.6301  0.4766  2.6212
16281SOL     OW53689   4.812   7.764   7.463 -0.3694 -0.3159  0.2410
16281SOL    HW153690   4.794   7.687   7.517 -2.2439 -0.2234 -0.1935
16281SOL    HW253691   4.907   7.775   7.468 -0.1649 -2.1064  1.0555
16282SOL     OW53692   6.198   8.287   5.963  0.0499 -0.3612  0.0357
16282SOL    HW153693   6.220   8.343   6.037 -1.7769 -0.1263  0.4411
16282SOL    HW253694   6.256   8.211   5.973 -0.3505 -0.4732  1.9057
16283SOL     OW53695   4.002   8.491   6.068 -0.5375  0.0512  0.6733
16283SOL    HW153696   3.933   8.555   6.088  0.3544  1.7946 -1.3963
16283SOL    HW253697   4.080   8.525   6.112 -0.2519 -0.1351  0.3126
16284SOL     OW53698   4.138   5.774   7.470 -0.2975 -0.4235  0.1600
16284SOL    HW153699   4.213   5.807   7.520 -0.1721  1.0224 -0.9254
16284SOL    HW253700   4.064   5.781   7.530 -0.5088  2.9917 -0.2617
16285SOL     OW53701   5.999   6.995   3.087  0.1230 -0.2549  0.0368
16285SOL    HW153702   5.906   6.992   3.108  0.3416  0.5391  1.1881
16285SOL    HW253703   6.013   7.083   3.051  0.2556 -0.7083 -1.0620
16286SOL     OW53704   3.881   9.336   7.454 -0.3570 -0.2778 -0.0267
16286SOL    HW153705   3.862   9.303   7.365 -0.7114  2.2325 -0.9685
16286SOL    HW253706   3.972   9.364   7.451 -0.6683  0.8174  0.0086
16287SOL     OW53707   7.257   6.892   6.394  0.4636  0.1354 -0.7318
16287SOL    HW153708   7.313   6.827   6.351  1.4677  0.7339 -0.3590
16287SOL    HW253709   7.231   6.952   6.323 -1.5210 -1.3295 -1.3441
16288SOL     OW53710   5.943   8.641   6.740 -0.1376 -0.2611 -0.0483
16288SOL    HW153711   5.967   8.566   6.687  0.7964 -0.9098  1.2376
16288SOL    HW253712   5.928   8.712   6.677 -2.3438 -1.8082 -1.3726
16289SOL     OW53713   6.895   6.870   4.616  0.1003  0.3584  0.3209
16289SOL    HW153714   6.946   6.792   4.596 -2.3376 -1.3319  0.2645
16289SOL    HW253715   6.924   6.935   4.552 -0.4474 -1.7289 -2.2026
16290SOL     OW53716   4.260   9.364   6.289  0.0999 -0.3089 -0.0142
16290SOL    HW153717   4.297   9.278   6.267 -0.1785 -0.0928 -1.4112
16290SOL    HW253718   4.203   9.347   6.364 -1.3119 -1.7019 -1.3362
16291SOL     OW53719   5.210   9.035   8.197  0.3943 -0.0657  0.5240
16291SOL    HW153720   5.261   9.026   8.278 -0.6796  0.5329  1.2995
16291SOL    HW253721   5.159   9.115   8.210 -0.0283 -0.1312 -0.6312
16292SOL     OW53722   3.462   8.817   8.103  0.5472  0.0161  0.1987
16292SOL    HW153723   3.411   8.888   8.141  0.3461  0.9951 -1.7576
16292SOL    HW253724   3.398   8.760   8.061  0.5557 -2.1940  2.8495
16293SOL     OW53725   4.426   8.438   8.462 -0.0541  0.3475  0.5177
16293SOL    HW153726   4.378   8.514   8.430 -0.2846  0.1418  0.3713
16293SOL    HW253727   4.487   8.417   8.391 -1.6662 -1.0954 -0.5197
16294SOL     OW53728   3.320   9.213   8.130  0.2690 -0.6352  0.8117
16294SOL    HW153729   3.246   9.275   8.127  0.0495 -0.8964  0.7578
16294SOL    HW253730   3.356   9.223   8.218 -0.0068 -0.7060  0.9337
16295SOL     OW53731   4.026   8.793   9.369 -0.0373 -0.0072  0.7654
16295SOL    HW153732   4.033   8.704   9.402  0.4482  0.0472  0.8171
16295SOL    HW253733   4.115   8.816   9.344 -0.2709  0.2301  0.1425
16296SOL     OW53734   5.758   8.486   4.505 -0.1172 -0.3335  0.0155
16296SOL    HW153735   5.671   8.453   4.482 -0.8938  0.8137  1.1805
16296SOL    HW253736   5.813   8.407   4.508 -1.4206 -1.2744  0.5909
16297SOL     OW53737   3.420   9.518   9.506  0.5953  0.5079 -0.7649
16297SOL    HW153738   3.357   9.477   9.447  1.4032 -1.5992 -0.2597
16297SOL    HW253739   3.376   9.596   9.539 -0.3664  1.0162 -3.1045
16298SOL     OW53740   3.641   7.657   7.898  0.0772 -0.3905  0.1110
16298SOL    HW153741   3.670   7.742   7.931 -0.4075  0.2465 -1.0333
16298SOL    HW253742   3.712   7.597   7.921  0.0506  0.1272  1.6875
16299SOL     OW53743   2.959   1.152   4.779  0.6623  0.0339 -0.1872
16299SOL    HW153744   3.002   1.236   4.796  1.3759 -0.1234 -1.1698
16299SOL    HW253745   3.017   1.107   4.718 -1.0855 -0.0222 -1.8964
16300SOL     OW53746   4.988   7.400   6.029  0.2616  0.1082 -0.1359
16300SOL    HW153747   4.948   7.446   6.103 -1.1893 -0.9075 -0.2310
16300SOL    HW253748   4.914   7.363   5.982  1.3043 -1.8901 -0.3231
16301SOL     OW53749   3.495   3.997   4.621  0.1433 -0.3306  0.1749
16301SOL    HW153750   3.444   4.041   4.689  1.0077 -2.7052  2.5872
16301SOL    HW253751   3.435   3.932   4.584  0.3550 -0.6982  0.4630
16302SOL     OW53752   3.732   9.731   6.408  0.4519  0.5350  0.4350
16302SOL    HW153753   3.718   9.671   6.334 -0.5248  1.0978  0.1551
16302SOL    HW253754   3.758   9.814   6.367 -0.5729  0.9908  0.6817
16303SOL     OW53755   5.182   0.485   8.594  0.7949  0.1233 -0.0806
16303SOL    HW153756   5.194   0.402   8.641 -0.9624 -0.1381 -0.0019
16303SOL    HW253757   5.171   0.459   8.502 -2.0406 -0.0364  0.2147
16304SOL     OW53758   2.933   8.262   3.835 -0.3859  0.1207 -0.1963
16304SOL    HW153759   2.947   8.277   3.741  0.4426  1.0235  0.0525
16304SOL    HW253760   3.021   8.248   3.870 -0.7277 -0.5735  0.3917
16305SOL     OW53761   2.926   0.511   8.078 -0.2881  0.0523  0.6140
16305SOL    HW153762   2.938   0.429   8.127  2.0144  0.4855  0.8714
16305SOL    HW253763   2.870   0.564   8.134  0.3788 -0.3542  1.7030
16306SOL     OW53764   2.972   0.493   5.470  0.2996 -0.4363 -0.5023
16306SOL    HW153765   2.974   0.548   5.392  0.9079 -0.2486 -0.3593
16306SOL    HW253766   3.015   0.412   5.443  2.5570  0.4492  0.2326
16307SOL     OW53767   4.980   8.398   8.900  0.2726  0.3839  0.9537
16307SOL    HW153768   5.037   8.449   8.957  0.0186  1.1227  0.5558
16307SOL    HW253769   4.908   8.458   8.878 -0.2712 -0.2915  0.8531
16308SOL     OW53770   3.081   5.235   6.688 -0.3053 -0.1381  0.1609
16308SOL    HW153771   3.157   5.276   6.647 -1.7861  0.6518 -1.9604
16308SOL    HW253772   3.074   5.150   6.645 -1.7597  0.6175 -1.1830
16309SOL     OW53773   3.876   0.697   8.329 -0.3044 -0.4702  0.4433
16309SOL    HW153774   3.869   0.783   8.369 -0.8214 -0.7282  0.9145
16309SOL    HW253775   3.799   0.650   8.360 -0.5055 -0.8043 -0.5362
16310SOL     OW53776   5.286   9.483   4.675  0.5232  0.1291  0.9124
16310SOL    HW153777   5.225   9.415   4.704  0.3923  0.8521  2.4268
16310SOL    HW253778   5.265   9.559   4.729 -0.9379  2.2293 -2.3393
16311SOL     OW53779   4.138   0.542   6.142  0.5014  0.0881  0.3609
16311SOL    HW153780   4.232   0.524   6.137  0.2387 -1.2433 -0.2562
16311SOL    HW253781   4.110   0.503   6.225  0.0492 -1.9208 -0.6754
16312SOL     OW53782   2.708   0.108   5.558  0.1319  0.0084 -0.2554
16312SOL    HW153783   2.779   0.080   5.501 -0.0064 -1.3780  0.1927
16312SOL    HW253784   2.739   0.189   5.598  2.0510 -1.2271  0.9117
16313SOL     OW53785   4.445   1.555   7.809 -0.0498  0.1759  0.0716
16313SOL    HW153786   4.375   1.554   7.874 -0.0104 -1.8965  0.1574
16313SOL    HW253787   4.521   1.591   7.854 -1.2153  3.4464 -0.3074
16314SOL     OW53788   3.184   5.581   7.616  0.4205  0.5636  0.1245
16314SOL    HW153789   3.263   5.554   7.661 -0.1322 -2.2207 -0.3800
16314SOL    HW253790   3.132   5.626   7.683  0.9086 -0.7682  1.4430
16315SOL     OW53791   5.809   7.841   4.110 -0.1335 -0.1527  0.4015
16315SOL    HW153792   5.716   7.818   4.106  0.3730 -2.4466  0.4374
16315SOL    HW253793   5.817   7.920   4.057 -1.9515 -0.4843 -0.4305
16316SOL     OW53794   3.620   0.175   7.257  0.6146  0.1069  0.6494
16316SOL    HW153795   3.648   0.141   7.342 -1.3733 -3.6465 -0.0048
16316SOL    HW253796   3.558   0.110   7.224 -1.3956  3.1287 -2.1728
16317SOL     OW53797   2.339   6.543   6.364 -0.0196 -0.3868 -0.5543
16317SOL    HW153798   2.258   6.530   6.315  0.3898  1.7884 -1.9156
16317SOL    HW253799   2.312   6.589   6.444 -0.2603 -0.9018 -0.3294
16318SOL     OW53800   5.403   6.113   8.277 -0.2643  0.6401  0.0323
16318SOL    HW153801   5.326   6.157   8.314  0.3797  0.1724  2.0763
16318SOL    HW253802   5.449   6.078   8.354  1.7490  0.5163 -1.1727
16319SOL     OW53803   6.579   7.032   6.390  0.3010 -0.4119 -0.2600
16319SOL    HW153804   6.621   7.040   6.476  0.0327  1.4037 -0.2579
16319SOL    HW253805   6.496   6.988   6.408 -0.2892  0.9831  0.6296
16320SOL     OW53806   4.571   8.726   6.832  0.1935 -0.2221  0.1383
16320SOL    HW153807   4.521   8.778   6.895 -0.1205  0.3061 -0.5322
16320SOL    HW253808   4.595   8.647   6.880  1.6252  0.9965  1.5348
16321SOL     OW53809   2.740   5.888   8.959  0.1230  0.4653 -0.2939
16321SOL    HW153810   2.749   5.961   9.020 -2.1425  0.2351  0.4023
16321SOL    HW253811   2.763   5.810   9.010 -1.9825  0.2504  0.3828
16322SOL     OW53812   2.755   6.674   5.992 -0.1053  0.7594 -0.1639
16322SOL    HW153813   2.708   6.751   6.022 -0.9977  0.1024  0.1854
16322SOL    HW253814   2.690   6.626   5.940  0.6907  0.6717 -1.1054
16323SOL     OW53815   4.040   7.652   8.701  0.1315  0.0880  0.1887
16323SOL    HW153816   4.113   7.710   8.679  0.9930 -0.8281  0.5446
16323SOL    HW253817   4.035   7.591   8.627  1.9214 -1.9211  1.5992
16324SOL     OW53818   3.463   7.745   6.661  0.0062  0.4249 -0.3422
16324SOL    HW153819   3.417   7.732   6.578 -1.9359  2.3917  0.3306
16324SOL    HW253820   3.405   7.708   6.727  0.9582 -0.0069  0.2725
16325SOL     OW53821   3.586   1.851   7.613 -0.2235  0.5279  0.1177
16325SOL    HW153822   3.562   1.935   7.575  0.7983  0.6638 -0.2523
16325SOL    HW253823   3.662   1.870   7.667  1.1021 -0.4275 -1.3225
16326SOL     OW53824   5.229   7.496   7.913 -0.3511 -0.3004  0.6458
16326SOL    HW153825   5.325   7.490   7.922 -0.3096 -0.6543  0.0068
16326SOL    HW253826   5.215   7.561   7.845 -0.5060 -1.4256 -0.4424
16327SOL     OW53827   4.110   0.825   6.948 -0.5961 -0.1927  0.3598
16327SOL    HW153828   4.135   0.885   6.878  2.2555 -0.6707  0.8680
16327SOL    HW253829   4.084   0.745   6.902  0.4664 -0.2347 -0.2035
16328SOL     OW53830   5.684   4.904   7.393 -0.1419 -0.5059  0.3632
16328SOL    HW153831   5.723   4.849   7.326 -0.4967  0.4949 -0.7092
16328SOL    HW253832   5.706   4.861   7.475  1.5945 -0.9786 -0.2906
16329SOL     OW53833   2.471   8.518   7.381  0.0167  0.2932 -0.3181
16329SOL    HW153834   2.437   8.441   7.335  3.6863 -0.8401 -1.4606
16329SOL    HW253835   2.455   8.499   7.473 -0.2956 -1.2339 -0.6515
16330SOL     OW53836   4.032   7.517   6.476 -0.4731  0.0275 -0.2001
16330SOL    HW153837   4.027   7.519   6.572 -0.7737  1.0097 -0.2323
16330SOL    HW253838   4.042   7.424   6.455 -0.8331 -0.2410  0.7601
16331SOL     OW53839   4.899   8.722   6.167 -0.0954  0.2136  0.3614
16331SOL    HW153840   4.909   8.757   6.079  1.9279  0.1461  0.5033
16331SOL    HW253841   4.842   8.784   6.212  0.6261  1.4397 -0.3789
16332SOL     OW53842   2.432   8.092   8.307 -0.0609  0.0096 -0.4111
16332SOL    HW153843   2.442   8.177   8.263 -0.9697  0.0677 -0.5189
16332SOL    HW253844   2.490   8.098   8.383  0.0962  0.6186 -0.5675
16333SOL     OW53845   3.906   8.435   6.989  0.7487  0.7291  0.2450
16333SOL    HW153846   3.925   8.516   6.943 -0.7502  0.9470 -0.0082
16333SOL    HW253847   3.895   8.461   7.081  1.4254  0.6198  0.3693
16334SOL     OW53848   5.078   5.613   7.286 -0.4140 -0.6523  0.0701
16334SOL    HW153849   5.103   5.523   7.267  1.5393  0.1410 -1.5295
16334SOL    HW253850   5.162   5.659   7.298 -1.3835  0.6863  2.3226
16335SOL     OW53851   2.128   8.124   2.854  0.1440 -0.3924 -0.2332
16335SOL    HW153852   2.096   8.186   2.919 -0.1057 -0.0509 -0.6748
16335SOL    HW253853   2.145   8.044   2.903  2.5457  0.6405  0.7596
16336SOL     OW53854   3.814   9.183   4.126 -0.5413 -0.2460  0.4245
16336SOL    HW153855   3.860   9.209   4.206  0.3165  1.8884 -0.6745
16336SOL    HW253856   3.725   9.162   4.155 -0.6626  1.8765  1.8044
16337SOL     OW53857   6.415   9.173   5.454  0.7494  0.0193 -0.0915
16337SOL    HW153858   6.461   9.096   5.422  0.3596 -0.4677  0.4918
16337SOL    HW253859   6.323   9.159   5.430  0.8793  0.9693 -1.2240
16338SOL     OW53860   3.862   8.928   7.783 -0.6294 -0.4071 -0.6759
16338SOL    HW153861   3.879   9.015   7.747  0.1680  0.0586  0.7307
16338SOL    HW253862   3.775   8.935   7.822 -0.0542  0.1765  0.5520
16339SOL     OW53863   3.700   9.552   6.829 -0.2338  0.1583 -0.6658
16339SOL    HW153864   3.702   9.648   6.840 -1.2029  0.4196 -2.4074
16339SOL    HW253865   3.713   9.518   6.918  3.7120  1.7991 -0.4239
16340SOL     OW53866   4.790   0.960   4.941  0.1772 -0.8153  0.1340
16340SOL    HW153867   4.754   0.871   4.944 -0.2927 -0.7771 -2.3357
16340SOL    HW253868   4.789   0.983   4.848 -1.7554  2.6322  0.8579
16341SOL     OW53869   0.834   8.656   7.510 -0.2471 -0.6016  0.1218
16341SOL    HW153870   0.739   8.641   7.511 -0.8250  2.2998 -1.1522
16341SOL    HW253871   0.858   8.647   7.418  0.6397 -0.9040  0.3797
16342SOL     OW53872   6.942   7.033   7.396  0.5732 -0.1666 -0.2052
16342SOL    HW153873   7.013   6.969   7.395  0.5856 -0.1480 -0.3890
16342SOL    HW253874   6.984   7.116   7.374  0.9650  0.3169  2.0938
16343SOL     OW53875   4.874   8.582   4.385 -0.0448 -0.0320  0.4173
16343SOL    HW153876   4.871   8.590   4.480 -2.3798  1.1303  0.3281
16343SOL    HW253877   4.892   8.671   4.353  3.1376 -0.8171 -0.2528
16344SOL     OW53878   5.985   0.061   1.833  0.0942  0.3838 -0.3062
16344SOL    HW153879   6.006   0.104   1.750 -2.2793  0.3413 -1.0130
16344SOL    HW253880   5.977  -0.031   1.811 -0.7517  0.3982 -0.0928
16345SOL     OW53881   5.231   8.689   7.159 -0.8243 -0.5810  0.0345
16345SOL    HW153882   5.175   8.742   7.102  0.6006  1.5658  0.5142
16345SOL    HW253883   5.203   8.599   7.143 -2.2150  0.1497 -2.1021
16346SOL     OW53884   3.813   0.912   6.118 -0.8003  0.5909  0.1571
16346SOL    HW153885   3.772   0.871   6.041  1.7124 -1.5413 -0.1693
16346SOL    HW253886   3.826   0.840   6.179  2.6551  1.0176  0.0856
16347SOL     OW53887   4.382   8.285   4.375 -0.1265 -0.2703 -0.4463
16347SOL    HW153888   4.335   8.302   4.456 -1.1275  0.4264 -1.1495
16347SOL    HW253889   4.427   8.367   4.356  1.1455 -0.8288  0.0491
16348SOL     OW53890   6.158   7.912   6.005 -0.0357  0.0432 -0.6955
16348SOL    HW153891   6.180   7.841   5.946  0.0503  0.1441 -0.7850
16348SOL    HW253892   6.235   7.969   6.006  1.0194 -1.2903  1.5121
16349SOL     OW53893   2.621   6.497   5.510 -0.1574 -0.0757  0.5948
16349SOL    HW153894   2.651   6.498   5.601  0.3673  0.5752  0.4293
16349SOL    HW253895   2.670   6.426   5.470 -1.1238 -1.0207  1.0399
16350SOL     OW53896   6.514   9.516   4.492 -0.2665 -0.0272 -0.1221
16350SOL    HW153897   6.465   9.586   4.449  1.0582  0.6229 -0.6359
16350SOL    HW253898   6.480   9.435   4.454  0.1434  0.4851 -1.6364
16351SOL     OW53899   4.730   0.055   7.175 -0.2270 -0.1629 -0.4232
16351SOL    HW153900   4.774  -0.030   7.176  0.0747 -0.0264 -1.4129
16351SOL    HW253901   4.675   0.054   7.097  1.1944  1.2288 -1.5138
16352SOL     OW53902   2.121   7.320   7.585  0.1092 -0.3602  0.6100
16352SOL    HW153903   2.029   7.339   7.568  0.4477  0.8556 -0.0273
16352SOL    HW253904   2.155   7.400   7.626  0.9473 -0.6738  0.5586
16353SOL     OW53905   3.306   7.408   5.122  0.3987 -0.6009 -0.1287
16353SOL    HW153906   3.394   7.439   5.101 -0.4560  0.6459 -2.1326
16353SOL    HW253907   3.303   7.318   5.091  0.9787 -0.6644  0.0021
16354SOL     OW53908   4.193   0.371   5.329 -0.2476 -0.3369 -0.2341
16354SOL    HW153909   4.233   0.308   5.268  0.7380 -0.9259  0.9754
16354SOL    HW253910   4.123   0.322   5.371  0.5357 -0.6757  0.7262
16355SOL     OW53911   6.871   8.883   5.930  0.1832  0.0640 -0.4228
16355SOL    HW153912   6.933   8.888   5.857  0.4306 -0.4261 -0.2548
16355SOL    HW253913   6.926   8.892   6.008 -0.0038 -0.0259 -0.2800
16356SOL     OW53914   4.902   6.674   5.161  0.2642 -0.3562  0.3621
16356SOL    HW153915   4.966   6.611   5.128  0.9937  0.6438 -0.1991
16356SOL    HW253916   4.828   6.666   5.100  0.3696 -0.6306  0.2670
16357SOL     OW53917   3.687   7.334   7.603 -0.1148  0.2635  0.1179
16357SOL    HW153918   3.766   7.324   7.657  1.7801 -0.2675 -2.5101
16357SOL    HW253919   3.699   7.418   7.559 -1.2325  0.3538 -0.0295
16358SOL     OW53920   3.777   8.097   8.201 -0.3838 -0.2414 -0.3147
16358SOL    HW153921   3.822   8.140   8.273  0.5446  0.5474 -1.3185
16358SOL    HW253922   3.692   8.141   8.196 -0.6836 -0.6999  0.6454
16359SOL     OW53923   3.036   9.315   6.246  0.1605 -0.2976  0.3999
16359SOL    HW153924   3.091   9.239   6.262 -0.0351 -0.6847 -0.7314
16359SOL    HW253925   3.096   9.381   6.210  0.1154 -0.2985  0.3234
16360SOL     OW53926   2.272   7.791   7.211  0.3527 -0.3979 -0.2423
16360SOL    HW153927   2.259   7.863   7.272 -1.0284 -1.0945  0.3123
16360SOL    HW253928   2.293   7.715   7.266  0.5728 -0.6979 -0.7278
16361SOL     OW53929   2.433   9.660   5.386 -0.5387  0.2206  0.4532
16361SOL    HW153930   2.348   9.692   5.354 -0.4873 -0.5631 -0.5520
16361SOL    HW253931   2.493   9.676   5.313 -0.2907 -1.1397  0.3292
16362SOL     OW53932   2.148   6.242   6.638  0.5530  0.1854 -0.4677
16362SOL    HW153933   2.171   6.160   6.682 -2.3592 -0.7647 -0.5022
16362SOL    HW253934   2.135   6.216   6.546 -1.3721  0.3975 -0.2997
16363SOL     OW53935   1.918   0.277   6.943  0.7307  0.0407  0.8138
16363SOL    HW153936   1.881   0.189   6.932  0.2956  0.3493 -0.3757
16363SOL    HW253937   1.970   0.271   7.023 -0.0618 -1.0362  1.2779
16364SOL     OW53938   4.574   0.078   6.944 -0.0347 -0.3029 -0.0721
16364SOL    HW153939   4.622   0.108   6.867  0.7294  0.0965  0.5356
16364SOL    HW253940   4.515   0.150   6.966  2.8230  1.5638  2.2494
16365SOL     OW53941   5.709   8.404   9.127  0.0048 -0.1728  0.5073
16365SOL    HW153942   5.698   8.322   9.078  0.1510  0.1563 -0.0912
16365SOL    HW253943   5.644   8.463   9.088  1.2856  0.6262 -0.4769
16366SOL     OW53944   5.090   8.332   5.660  0.0541 -0.2232  0.0238
16366SOL    HW153945   5.123   8.310   5.747  2.4827  2.3708 -0.0978
16366SOL    HW253946   5.131   8.267   5.602  0.9573 -0.0598  0.4720
16367SOL     OW53947   3.823   9.034   5.948 -0.7808 -0.8114 -0.2349
16367SOL    HW153948   3.900   9.026   5.892 -0.6079 -2.2033  0.1584
16367SOL    HW253949   3.846   8.988   6.028 -1.0462  1.0992  1.0055
16368SOL     OW53950   5.925   7.749   5.329 -0.2235 -0.2769 -0.2822
16368SOL    HW153951   6.013   7.773   5.358  0.2932  1.0766 -2.7242
16368SOL    HW253952   5.872   7.748   5.410  2.2558 -2.6123  1.4764
16369SOL     OW53953   3.707   0.635   6.867 -0.2952 -0.2915 -0.1480
16369SOL    HW153954   3.642   0.704   6.854 -1.5162 -0.6250  3.2017
16369SOL    HW253955   3.659   0.553   6.855  0.2040 -0.5461 -0.4366
16370SOL     OW53956   6.479   7.413   8.037 -0.2754  0.3487  0.0019
16370SOL    HW153957   6.423   7.486   8.011 -1.1246 -0.2555  0.0984
16370SOL    HW253958   6.419   7.350   8.076  0.7367  0.5821  2.0898
16371SOL     OW53959   5.503   8.400   6.793 -0.6669  0.1894  0.4320
16371SOL    HW153960   5.532   8.418   6.704  0.2471 -0.6785  0.5378
16371SOL    HW253961   5.489   8.305   6.795 -0.1378  0.1195  1.3593
16372SOL     OW53962   4.273   1.166   6.077  0.1777 -0.0122  0.0030
16372SOL    HW153963   4.335   1.139   6.145  0.4716  0.0751 -0.2301
16372SOL    HW253964   4.217   1.089   6.064  0.9500 -0.4852 -0.5869
16373SOL     OW53965   5.405   8.973   6.713  0.0270  0.8731  0.4690
16373SOL    HW153966   5.326   9.002   6.758 -0.3304 -0.8117  1.0204
16373SOL    HW253967   5.464   8.946   6.784  0.4302  0.5069  0.0023
16374SOL     OW53968   3.391   1.618   5.682 -0.2093 -0.3509 -1.2198
16374SOL    HW153969   3.479   1.584   5.693  0.5144  1.8824  0.9581
16374SOL    HW253970   3.382   1.633   5.588  2.0252  0.0531 -1.4209
16375SOL     OW53971   6.848   9.775   4.618 -0.2423  0.0045  0.0466
16375SOL    HW153972   6.808   9.708   4.674  1.8066 -3.4364 -2.2185
16375SOL    HW253973   6.936   9.787   4.655  0.0981 -0.1036 -0.7040
16376SOL     OW53974   3.659   0.625   7.195  0.9276 -0.6006 -0.1096
16376SOL    HW153975   3.631   0.597   7.108  1.8640  0.6919 -0.8715
16376SOL    HW253976   3.656   0.721   7.191 -1.6968 -0.4514  2.2080
16377SOL     OW53977   3.676   1.019   5.457  0.0463  0.1795 -0.3127
16377SOL    HW153978   3.612   0.999   5.388  0.2650  0.7987 -0.7101
16377SOL    HW253979   3.640   1.096   5.501  0.2384  0.1888 -0.1721
16378SOL     OW53980   5.403   0.574   0.628  0.5801  0.3485 -0.2510
16378SOL    HW153981   5.386   0.663   0.600 -1.6504 -0.1731 -0.6915
16378SOL    HW253982   5.321   0.527   0.613  1.8082 -1.8791 -0.4192
16379SOL     OW53983   7.335   9.496   5.557 -0.0208  0.7543  0.0794
16379SOL    HW153984   7.245   9.508   5.587 -0.5272  0.3886 -1.2086
16379SOL    HW253985   7.354   9.403   5.572  0.3835  0.9639  0.9342
16380SOL     OW53986   4.484   8.453   5.978 -0.5129  0.3259 -0.5426
16380SOL    HW153987   4.561   8.404   6.007  0.1840  1.5774 -0.1762
16380SOL    HW253988   4.427   8.388   5.938  0.5337 -0.7090 -0.3904
16381SOL     OW53989   4.484   0.249   7.531 -0.0673  0.4045 -0.4973
16381SOL    HW153990   4.491   0.264   7.625 -0.3839 -1.8543 -0.0406
16381SOL    HW253991   4.574   0.233   7.502 -0.2935 -3.4456  0.4077
16382SOL     OW53992   3.004   9.046   5.982 -0.4880 -0.0296 -0.3450
16382SOL    HW153993   3.099   9.051   5.978 -0.5293  0.4656 -0.8344
16382SOL    HW253994   2.977   9.036   5.890 -0.9298  0.2814 -0.2515
16383SOL     OW53995   4.855   7.945   5.746  0.9977 -0.5603  0.0124
16383SOL    HW153996   4.793   7.874   5.734  0.3621  0.1047 -0.8062
16383SOL    HW253997   4.919   7.934   5.675 -0.2010  0.7650 -1.3489
16384SOL     OW53998   6.373   8.796   7.280  0.4181  0.4409 -0.2319
16384SOL    HW153999   6.390   8.710   7.317  0.3350 -0.0389 -1.2798
16384SOL    HW254000   6.352   8.851   7.355 -0.3450 -0.6468  0.3713
16385SOL     OW54001   1.655   5.500   8.712 -0.0094 -0.0635  0.6679
16385SOL    HW154002   1.580   5.558   8.727 -0.8601 -0.9297 -0.1015
16385SOL    HW254003   1.708   5.548   8.648  0.3916  0.7900  1.6055
16386SOL     OW54004   3.107   8.837   4.340  0.2603  0.1151  0.3411
16386SOL    HW154005   3.124   8.875   4.253  1.6883  1.4277  1.1402
16386SOL    HW254006   3.023   8.792   4.330 -1.0233  2.5721 -0.9920
16387SOL     OW54007   4.757   9.629   6.576 -0.6368 -0.6075  0.7590
16387SOL    HW154008   4.752   9.688   6.652  0.4907 -2.4477  2.3528
16387SOL    HW254009   4.672   9.585   6.575 -1.9225  1.6506 -1.0999
16388SOL     OW54010   7.305   0.439   3.902  0.5951  0.5804  0.3592
16388SOL    HW154011   7.299   0.344   3.904 -1.8833  0.6848  0.6665
16388SOL    HW254012   7.392   0.457   3.865  1.4021 -1.7660  0.9733
16389SOL     OW54013   5.622   8.361   7.035 -0.5074 -0.0432  0.1863
16389SOL    HW154014   5.654   8.281   6.995  0.8455  1.5147 -2.1015
16389SOL    HW254015   5.573   8.405   6.966 -0.9968  1.2151  1.2856
16390SOL     OW54016   5.759   7.362   4.346  0.5049  0.0546 -0.2737
16390SOL    HW154017   5.728   7.376   4.435  2.4258  2.2290  0.1550
16390SOL    HW254018   5.688   7.396   4.291 -0.2144 -0.2444  0.4430
16391SOL     OW54019   4.985   8.613   7.574  0.4710  0.7041  0.0124
16391SOL    HW154020   4.898   8.613   7.536 -0.0581 -0.4187  1.1326
16391SOL    HW254021   5.025   8.694   7.544 -0.6525  0.8475 -1.1884
16392SOL     OW54022   5.880   9.371   5.932  0.0499  0.0197  0.4637
16392SOL    HW154023   5.940   9.358   5.858 -0.6346 -0.8321  0.0430
16392SOL    HW254024   5.861   9.465   5.931  1.9483  0.4641  1.0769
16393SOL     OW54025   2.103   8.462   5.212  0.3018 -0.3313 -0.4781
16393SOL    HW154026   2.113   8.496   5.302 -0.2535  1.9318 -1.2010
16393SOL    HW254027   2.046   8.386   5.222 -1.3469  0.9801  0.9322
16394SOL     OW54028   0.213   8.244   9.671  0.2094 -0.1821 -0.2877
16394SOL    HW154029   0.142   8.288   9.717 -0.0946  0.4531 -1.3273
16394SOL    HW254030   0.208   8.278   9.581  1.8989 -0.0293 -0.3538
16395SOL     OW54031   3.434   6.473   9.358 -0.1657 -0.0604  0.1026
16395SOL    HW154032   3.368   6.458   9.291  0.3340 -1.3162 -0.1410
16395SOL    HW254033   3.431   6.567   9.374 -1.3379  0.0385 -0.5862
16396SOL     OW54034   3.313   8.839   8.693  0.2970  0.0876  0.0387
16396SOL    HW154035   3.241   8.778   8.704  0.8506 -0.7188 -0.6527
16396SOL    HW254036   3.340   8.829   8.602  1.7257 -0.1405  0.4566
16397SOL     OW54037   4.854   0.485   6.844 -0.3254 -0.0546 -0.5298
16397SOL    HW154038   4.763   0.459   6.855 -0.2591  0.2689  1.0499
16397SOL    HW254039   4.863   0.564   6.897  0.9682 -0.2998 -0.3435
16398SOL     OW54040   4.589   7.994   7.773 -0.3517  0.1055 -0.0260
16398SOL    HW154041   4.556   7.922   7.718  1.1971 -0.5103 -0.2021
16398SOL    HW254042   4.614   8.062   7.711 -1.2236  0.5472  0.1023
16399SOL     OW54043   6.082   5.741   8.104  0.1339 -0.0129 -0.4140
16399SOL    HW154044   6.023   5.787   8.164  0.2714 -2.5958  1.9208
16399SOL    HW254045   6.168   5.777   8.123  0.1423 -0.6411  0.8632
16400SOL     OW54046   3.946   0.327   6.946 -0.4595  0.0549 -0.0402
16400SOL    HW154047   4.027   0.277   6.944 -0.3737  0.0806  1.3795
16400SOL    HW254048   3.969   0.412   6.909  0.2976  0.2195  0.7762
16401SOL     OW54049   3.568   7.609   7.485  0.1639 -0.5596 -0.9695
16401SOL    HW154050   3.504   7.603   7.556  1.3374 -0.1132  0.1650
16401SOL    HW254051   3.648   7.642   7.527  1.2225 -1.3340 -2.2800
16402SOL     OW54052   3.812   0.545   8.674 -0.1258 -0.1669 -0.1724
16402SOL    HW154053   3.897   0.501   8.668  0.1843  0.0218  2.0255
16402SOL    HW254054   3.749   0.474   8.691 -0.1713 -0.1406 -0.2315
16403SOL     OW54055   6.618   8.201   0.503  0.2778 -0.4839 -0.0411
16403SOL    HW154056   6.578   8.285   0.481 -0.0232 -0.9414 -1.3698
16403SOL    HW254057   6.563   8.166   0.574  0.6165  0.5702  0.7651
16404SOL     OW54058   4.808   6.243   0.416 -0.1074  0.1796 -0.3217
16404SOL    HW154059   4.779   6.243   0.325  2.1958  0.0728 -1.1346
16404SOL    HW254060   4.882   6.182   0.417 -0.5214 -0.3553  1.7979
16405SOL     OW54061   6.597   8.838   9.573  0.1640 -0.2387  0.0394
16405SOL    HW154062   6.556   8.817   9.489  0.7724 -1.4517  0.0289
16405SOL    HW254063   6.671   8.778   9.580  1.2014  1.0321  0.6412
16406SOL     OW54064   4.168   7.045   8.488  0.3707 -0.5290 -0.6406
16406SOL    HW154065   4.078   7.025   8.464  0.7353 -0.6555 -2.0330
16406SOL    HW254066   4.181   7.136   8.459  1.3024 -1.2031 -2.5021
16407SOL     OW54067   7.745   0.866   9.446 -0.0838 -0.0807 -0.3910
16407SOL    HW154068   7.751   0.872   9.351 -0.5709  0.1055 -0.4102
16407SOL    HW254069   7.654   0.886   9.466  0.3577  1.5048  0.2284
16408SOL     OW54070   4.877   9.487   8.565 -0.5326 -0.0013 -0.6198
16408SOL    HW154071   4.935   9.464   8.492 -0.2067  0.4637 -0.5131
16408SOL    HW254072   4.803   9.427   8.557  0.5988 -1.5958  0.0479
16409SOL     OW54073   4.861   0.932   7.598 -0.5985  0.0419 -1.1039
16409SOL    HW154074   4.869   0.965   7.687  1.1247 -2.0836 -0.3804
16409SOL    HW254075   4.876   0.837   7.606 -2.0486 -0.4723 -3.4495
16410SOL     OW54076   5.292   7.469   8.577 -0.2476  0.2997  0.1731
16410SOL    HW154077   5.367   7.527   8.592 -0.0504 -0.1214  0.8849
16410SOL    HW254078   5.222   7.527   8.545  0.8186  0.4685 -2.0336
16411SOL     OW54079   4.063   7.562   9.160 -0.5676  0.6921 -0.4589
16411SOL    HW154080   4.086   7.522   9.076  2.8796 -0.2992  0.8062
16411SOL    HW254081   3.988   7.510   9.190  1.1821 -2.3018 -0.7808
16412SOL     OW54082   3.849   9.230   7.189 -0.3300 -0.0991  0.3697
16412SOL    HW154083   3.944   9.214   7.195 -0.3171  0.4223  2.1935
16412SOL    HW254084   3.815   9.151   7.148  0.8678 -0.3749 -0.1602
16413SOL     OW54085   5.548   7.680   8.165  0.3679  0.0738 -0.1980
16413SOL    HW154086   5.533   7.744   8.235  1.5008  0.5175 -0.3402
16413SOL    HW254087   5.642   7.682   8.151  0.1262  0.2659 -1.9861
16414SOL     OW54088   3.749   8.070   6.874 -0.6659 -0.2192 -0.1856
16414SOL    HW154089   3.842   8.089   6.875 -1.1404  2.7664 -1.4215
16414SOL    HW254090   3.730   8.048   6.783 -1.2973 -0.0304 -0.1046
16415SOL     OW54091   5.650   8.856   7.929  0.0335  0.1315 -0.2667
16415SOL    HW154092   5.676   8.855   8.021 -0.6529  2.0088 -0.0100
16415SOL    HW254093   5.579   8.920   7.925 -0.0362 -0.0122 -2.0931
16416SOL     OW54094   5.245   9.492   8.122  0.4187  0.7137  0.0146
16416SOL    HW154095   5.302   9.568   8.114  0.5735  0.5587 -0.4228
16416SOL    HW254096   5.286   9.437   8.189  0.2634  1.0485  0.3878
16417SOL     OW54097   4.203   8.696   6.772  0.3793 -0.5599 -0.0206
16417SOL    HW154098   4.277   8.727   6.719 -0.7502  1.7925 -0.3382
16417SOL    HW254099   4.205   8.751   6.850 -1.9892  0.7514 -0.8038
16418SOL     OW54100   4.822   9.419   9.080  0.4563 -0.0135 -0.7550
16418SOL    HW154101   4.782   9.505   9.096  0.9516 -0.1185  1.3295
16418SOL    HW254102   4.783   9.390   8.998 -0.2153  1.9118 -1.1770
16419SOL     OW54103   4.254   9.070   8.972  0.9218  0.0931 -0.4612
16419SOL    HW154104   4.188   9.135   8.949  1.2796  0.1215 -1.4405
16419SOL    HW254105   4.232   9.044   9.061  0.8015  1.5960 -0.0277
16420SOL     OW54106   4.355   7.085   6.716  0.1476 -0.2296  0.0709
16420SOL    HW154107   4.432   7.138   6.737 -1.9731  3.3292 -0.2123
16420SOL    HW254108   4.291   7.108   6.783 -1.1982 -1.8209 -0.6055
16421SOL     OW54109   5.214   6.655   9.058 -0.2858 -0.5579 -0.3507
16421SOL    HW154110   5.122   6.628   9.053 -0.8686  1.0642  0.7441
16421SOL    HW254111   5.254   6.590   9.116 -1.4884  0.3554  1.6373
16422SOL     OW54112   6.825   8.983   6.594  0.1566  0.4443  0.5276
16422SOL    HW154113   6.743   9.026   6.621 -0.4094  0.3867 -0.9460
16422SOL    HW254114   6.836   8.911   6.655 -2.9253 -1.8361 -1.2921
16423SOL     OW54115   3.573   9.824   8.909  0.0825  0.4328  0.2010
16423SOL    HW154116   3.523   9.760   8.959 -0.0758  0.0434 -0.4370
16423SOL    HW254117   3.538   9.909   8.935  0.1767  0.2527  0.9281
16424SOL     OW54118   4.245   6.211   7.036 -0.2425 -0.1584  0.2215
16424SOL    HW154119   4.170   6.195   6.978 -0.4543  1.0124  0.1441
16424SOL    HW254120   4.321   6.205   6.978 -0.2219 -1.5955  0.3453
16425SOL     OW54121   6.154   9.682   9.835  0.1733  0.9541  0.0466
16425SOL    HW154122   6.111   9.618   9.779  2.4557 -0.2500 -0.4019
16425SOL    HW254123   6.192   9.746   9.775  0.2447  1.2135  0.3635
16426SOL     OW54124   6.259   7.572   7.953 -0.5542 -0.1425 -0.9609
16426SOL    HW154125   6.209   7.575   8.034  0.1702  2.0670 -0.5321
16426SOL    HW254126   6.230   7.650   7.904  1.4325  0.4341 -1.2978
16427SOL     OW54127   3.271   7.456   7.781 -0.3661 -0.1496  0.1532
16427SOL    HW154128   3.179   7.430   7.789 -0.4846  0.3426  0.4645
16427SOL    HW254129   3.267   7.542   7.739  0.1090 -1.4916 -2.9068
16428SOL     OW54130   4.162   1.030   6.365  0.1338  0.2377  0.4719
16428SOL    HW154131   4.166   1.097   6.434  2.3710 -2.3667  3.1781
16428SOL    HW254132   4.245   1.040   6.318 -0.3527  0.4873 -0.3579
16429SOL     OW54133   4.888   7.007   0.361  0.8222  0.2879  0.1726
16429SOL    HW154134   4.919   7.071   0.425 -0.0285 -0.5326  1.4410
16429SOL    HW254135   4.792   7.010   0.367  0.7248 -2.3022  1.5766
16430SOL     OW54136   3.218   8.100   9.356 -0.3079  1.1304  0.8316
16430SOL    HW154137   3.195   8.036   9.423  1.7514  1.1108  1.5799
16430SOL    HW254138   3.227   8.049   9.275  1.3475  0.3981  1.4280
16431SOL     OW54139   4.900   6.708   8.500  0.1228  0.3610  0.3543
16431SOL    HW154140   4.959   6.651   8.549 -0.5514  0.3672  1.2101
16431SOL    HW254141   4.834   6.650   8.464  1.1488  0.2336 -1.4104
16432SOL     OW54142   3.794   8.731   6.555  0.2253 -0.2362 -0.0034
16432SOL    HW154143   3.739   8.677   6.612 -1.1153  0.1850 -0.8477
16432SOL    HW254144   3.757   8.819   6.563  0.8620  0.0845 -0.5006
16433SOL     OW54145   7.540   7.132   6.221 -0.1512 -0.8889  0.1655
16433SOL    HW154146   7.576   7.210   6.263 -2.4118 -0.7029  1.9682
16433SOL    HW254147   7.447   7.134   6.243 -0.6427 -3.0740 -1.4092
16434SOL     OW54148   6.184   8.543   9.009  0.2021  0.4105 -0.0512
16434SOL    HW154149   6.202   8.472   9.070  0.2626 -0.5149 -1.1290
16434SOL    HW254150   6.092   8.566   9.025 -0.2409 -0.8654 -0.6467
16435SOL     OW54151   2.267   5.831   7.111  0.0049 -0.3734 -0.5786
16435SOL    HW154152   2.179   5.865   7.098 -0.4818 -0.3915  1.9945
16435SOL    HW254153   2.298   5.875   7.190  2.2659 -0.4814 -1.3377
16436SOL     OW54154   5.492   9.171   7.007 -0.0564  0.2290 -0.3344
16436SOL    HW154155   5.565   9.145   7.062  0.2105 -0.3514 -0.9493
16436SOL    HW254156   5.418   9.119   7.038  0.2767 -0.6690 -1.0164
16437SOL     OW54157   3.761   9.340   7.820  0.5352  0.6166 -0.8191
16437SOL    HW154158   3.767   9.434   7.838  1.5823  0.3700  0.2504
16437SOL    HW254159   3.675   9.315   7.854 -0.0687  1.3084 -1.7827
16438SOL     OW54160   5.556   9.414   7.143  0.3152 -0.0254  0.4774
16438SOL    HW154161   5.533   9.345   7.080 -0.6855  0.2651  0.5241
16438SOL    HW254162   5.591   9.366   7.219 -0.4115 -0.4843  0.5272
16439SOL     OW54163   5.596   8.442   0.343 -0.1269 -0.1230  0.0312
16439SOL    HW154164   5.549   8.440   0.427 -0.8874 -0.8802 -0.4032
16439SOL    HW254165   5.684   8.412   0.365 -0.0924  0.4274  0.6913
16440SOL     OW54166   5.038   8.530   9.855 -0.0402  0.2010  0.4296
16440SOL    HW154167   5.129   8.505   9.839 -0.2265 -0.2798  0.1137
16440SOL    HW254168   4.994   8.449   9.881 -0.2768  0.5228  1.0637
16441SOL     OW54169   3.840   7.728   9.321  0.7292  0.0040  0.4408
16441SOL    HW154170   3.825   7.644   9.365 -0.4514  0.4226  0.8650
16441SOL    HW254171   3.762   7.741   9.267  1.2975  0.4218 -0.2978
16442SOL     OW54172   4.525   9.396   6.561  0.5657  0.5321 -0.1801
16442SOL    HW154173   4.544   9.313   6.605 -0.5279 -0.4035 -1.3772
16442SOL    HW254174   4.536   9.377   6.468  1.8500  2.1842 -0.4124
16443SOL     OW54175   2.252   8.546   0.089  0.9385  0.1206 -0.1136
16443SOL    HW154176   2.198   8.500   0.025  0.4042  0.9075 -0.2440
16443SOL    HW254177   2.295   8.616   0.039 -1.0606  2.0682  0.6895
16444SOL     OW54178   3.638   0.304   6.744  0.1665  0.2323 -0.5980
16444SOL    HW154179   3.714   0.332   6.693  0.1928  0.9528 -0.1688
16444SOL    HW254180   3.673   0.282   6.830 -0.1547  0.9512 -0.2724
16445SOL     OW54181   3.859   0.120   6.019  0.1928  0.0199 -0.1511
16445SOL    HW154182   3.828   0.153   5.935 -0.3012 -2.6151 -1.1142
16445SOL    HW254183   3.954   0.113   6.008  0.1040 -0.5725 -0.6275
16446SOL     OW54184   4.097   6.496   7.081 -0.1965  0.0084 -0.4913
16446SOL    HW154185   4.184   6.473   7.114  0.5559 -0.9609 -2.9240
16446SOL    HW254186   4.038   6.434   7.123  0.7482 -1.3437 -1.0792
16447SOL     OW54187   2.386   0.455   8.177  0.0493 -0.0488  0.0568
16447SOL    HW154188   2.341   0.432   8.258  0.3561 -0.3240  0.1483
16447SOL    HW254189   2.333   0.526   8.140 -0.3572 -0.2454  0.2561
16448SOL     OW54190   4.546   0.767   7.677  0.3061 -0.1600 -0.0267
16448SOL    HW154191   4.602   0.815   7.737  0.2141  0.6273 -0.5626
16448SOL    HW254192   4.486   0.718   7.734 -0.4854  1.4112  0.5387
16449SOL     OW54193   5.254   0.118   6.982  0.2975 -0.0752  0.1389
16449SOL    HW154194   5.257   0.183   6.911 -1.9285  0.0915  0.1284
16449SOL    HW254195   5.305   0.158   7.053 -0.0887  1.1986 -0.2688
16450SOL     OW54196   4.071   1.918   8.718  0.1533  0.3579 -0.1585
16450SOL    HW154197   4.107   1.936   8.804 -1.9078  1.0264  0.6411
16450SOL    HW254198   4.058   1.823   8.716  1.0901  0.2287 -0.1098
16451SOL     OW54199   4.990   7.889   9.310  0.2620  0.0824  0.4644
16451SOL    HW154200   4.956   7.878   9.399 -1.2031 -0.3538 -0.1180
16451SOL    HW254201   5.080   7.858   9.315  0.4101  0.6600  1.9333
16452SOL     OW54202   3.628   0.147   9.828 -0.3334  0.4990  0.2067
16452SOL    HW154203   3.673   0.119   9.908 -2.1363 -1.7307  0.5432
16452SOL    HW254204   3.662   0.089   9.759 -1.3234 -0.0038  0.1174
16453SOL     OW54205   5.989   1.664   9.193 -0.2543  0.0535 -0.2021
16453SOL    HW154206   5.965   1.584   9.147  2.3744 -1.5802  1.0710
16453SOL    HW254207   6.084   1.659   9.203 -0.3400  1.7501  2.7477
16454SOL     OW54208   4.605   8.941   8.610  0.3771  0.2893  0.1586
16454SOL    HW154209   4.585   8.950   8.517  0.8935  1.1542  0.1137
16454SOL    HW254210   4.520   8.943   8.653  0.2183  2.0061 -0.1617
16455SOL     OW54211   6.838   7.926   7.883 -0.1762 -0.4501 -0.1983
16455SOL    HW154212   6.911   7.980   7.853 -1.2990  1.4121  0.2410
16455SOL    HW254213   6.864   7.898   7.971 -0.3145  0.9687  0.3338
16456SOL     OW54214   0.831   6.775   9.557  0.3419 -0.3492 -0.1196
16456SOL    HW154215   0.907   6.780   9.615  2.1820 -0.1719 -2.4002
16456SOL    HW254216   0.757   6.759   9.615  2.0169  0.1398  2.2650
16457SOL     OW54217   5.078   8.417   6.758 -0.2100  0.8757 -0.1105
16457SOL    HW154218   4.995   8.406   6.806 -1.3041  0.6258 -1.9324
16457SOL    HW254219   5.130   8.340   6.783 -1.6262 -0.4253 -0.9149
16458SOL     OW54220   5.602   7.683   7.600  0.4734 -0.3873  1.0020
16458SOL    HW154221   5.565   7.751   7.657  1.4697 -0.9084  2.3222
16458SOL    HW254222   5.589   7.717   7.511 -2.5637 -0.2651  1.3799
16459SOL     OW54223   3.077   9.619   7.786 -0.0528  0.0975  0.3378
16459SOL    HW154224   3.096   9.662   7.869 -0.2757 -0.9926  0.9681
16459SOL    HW254225   3.162   9.609   7.744  0.6787 -3.0160  2.2846
16460SOL     OW54226   5.243   5.788   9.056 -0.4016 -0.0952  0.1609
16460SOL    HW154227   5.322   5.746   9.090 -0.9755 -1.8463 -0.5449
16460SOL    HW254228   5.198   5.821   9.134  0.4307 -0.1534  0.6801
16461SOL     OW54229   3.180   1.864   7.703 -0.3917  0.3942  0.3130
16461SOL    HW154230   3.139   1.872   7.617 -0.4971  2.2402  0.4968
16461SOL    HW254231   3.230   1.783   7.698 -0.9604  0.1055 -1.2443
16462SOL     OW54232   5.412   8.873   8.381  0.2522  0.2771 -0.6039
16462SOL    HW154233   5.421   8.958   8.422  1.4693  0.1015 -0.4696
16462SOL    HW254234   5.390   8.813   8.452 -0.3565  0.4327 -0.6592
16463SOL     OW54235   3.469   9.196   7.902 -0.3153 -0.1523 -0.1593
16463SOL    HW154236   3.419   9.221   7.825 -1.2187 -0.0214  0.4533
16463SOL    HW254237   3.412   9.218   7.976  1.1389  1.2167  0.6355
16464SOL     OW54238   4.310   8.488   9.376 -0.1080  0.0057 -0.3051
16464SOL    HW154239   4.360   8.549   9.432 -1.2006  0.6217  0.0332
16464SOL    HW254240   4.359   8.406   9.381  1.6064  0.9180 -1.0528
16465SOL     OW54241   5.422   4.925   7.704  0.0398 -0.5067 -0.5091
16465SOL    HW154242   5.466   4.930   7.789 -1.5968 -0.9641  0.4034
16465SOL    HW254243   5.441   5.010   7.663  0.8893 -0.2967  0.2753
16466SOL     OW54244   3.175   6.538   9.009 -0.0084  0.1715  0.2013
16466SOL    HW154245   3.102   6.595   9.033 -1.8234 -1.6287 -0.7115
16466SOL    HW254246   3.214   6.579   8.932 -0.3663  0.9006  0.4048
16467SOL     OW54247   5.463   8.267   8.114  0.0907  0.1417  0.0605
16467SOL    HW154248   5.479   8.223   8.030  0.2427  2.2573 -1.1076
16467SOL    HW254249   5.551   8.291   8.144 -0.0137 -0.0164  0.4898
16468SOL     OW54250   5.769   9.271   5.489 -0.2897  0.3825 -0.2493
16468SOL    HW154251   5.789   9.333   5.419 -0.8456  1.9407  0.8996
16468SOL    HW254252   5.675   9.278   5.501  0.0061  1.8412  2.0472
16469SOL     OW54253   5.679   7.361   7.887 -0.8605 -0.9948  0.7371
16469SOL    HW154254   5.676   7.457   7.882 -1.3196 -0.9824  1.1503
16469SOL    HW254255   5.684   7.332   7.796  1.2879 -0.5355  0.6417
16470SOL     OW54256   2.780   6.984   9.405  0.6614 -0.4790  0.5546
16470SOL    HW154257   2.707   7.046   9.411  0.2003 -0.8655 -0.8019
16470SOL    HW254258   2.818   6.984   9.493 -0.4798  0.3201  1.0755
16471SOL     OW54259   5.702   9.218   0.594 -1.1595 -0.5106 -0.7432
16471SOL    HW154260   5.787   9.231   0.551 -0.3084  0.9852  1.2126
16471SOL    HW254261   5.641   9.202   0.522  0.3083  1.0397 -2.4443
16472SOL     OW54262   2.800   6.778   5.279 -0.0533  0.0595 -0.2122
16472SOL    HW154263   2.705   6.773   5.280 -0.1460  1.5983  0.6245
16472SOL    HW254264   2.829   6.707   5.336 -0.6246 -1.0803 -1.2800
16473SOL     OW54265   4.609   7.227   8.155 -0.0615  0.3418  0.1921
16473SOL    HW154266   4.537   7.182   8.198  0.9787 -2.2843 -0.5999
16473SOL    HW254267   4.686   7.205   8.207  0.6476  0.3422 -0.8264
16474SOL     OW54268   5.476   8.936   0.272  0.2252 -0.1617  0.1931
16474SOL    HW154269   5.484   8.889   0.355 -0.1468 -1.0365 -0.2553
16474SOL    HW254270   5.415   8.883   0.220 -0.0106  0.6914 -0.4168
16475SOL     OW54271   4.657   8.649   8.582  0.2791 -0.1984 -0.6222
16475SOL    HW154272   4.656   8.743   8.599 -0.1184 -0.2509 -0.3418
16475SOL    HW254273   4.650   8.643   8.486  1.7707  0.0770 -0.7790
16476SOL     OW54274   5.549   2.300   0.796  0.2018  0.0402  0.0156
16476SOL    HW154275   5.476   2.362   0.795  2.8159  3.3667  0.8870
16476SOL    HW254276   5.544   2.259   0.882 -0.8499 -0.1309 -0.1080
16477SOL     OW54277   4.189   6.669   7.474 -0.0836 -0.1419  0.7598
16477SOL    HW154278   4.236   6.747   7.446  0.4429 -0.7739 -0.1925
16477SOL    HW254279   4.232   6.642   7.555 -1.5805  1.6821  2.2436
16478SOL     OW54280   5.126   9.519   7.721 -0.5942 -0.1401  0.4188
16478SOL    HW154281   5.164   9.443   7.765  0.4182  0.8459  1.3360
16478SOL    HW254282   5.196   9.585   7.723 -1.7952  1.1742  0.5921
16479SOL     OW54283   2.984   5.778   0.247  0.3747  0.2201  0.0628
16479SOL    HW154284   3.053   5.764   0.183  0.1883  1.7551 -0.5070
16479SOL    HW254285   2.906   5.795   0.195  0.2290  1.5573  0.6628
16480SOL     OW54286   4.050   0.026   0.265  0.4248  0.2373 -0.0131
16480SOL    HW154287   4.023  -0.050   0.315 -0.9470 -0.3614 -1.5839
16480SOL    HW254288   4.146   0.019   0.259  0.4062 -0.7744  0.7306
16481SOL     OW54289   5.640   8.279   7.685  0.5318  0.0107 -0.2130
16481SOL    HW154290   5.682   8.226   7.617  1.3727 -0.4989  0.6734
16481SOL    HW254291   5.713   8.307   7.741 -0.4245 -2.6481  2.6152
16482SOL     OW54292   6.636   8.802   7.156  0.1297  0.4366  0.0483
16482SOL    HW154293   6.542   8.808   7.170 -0.3758 -1.2232 -2.0945
16482SOL    HW254294   6.665   8.893   7.144 -1.0055  1.0316  1.5678
16483SOL     OW54295   4.093   8.543   9.540  0.7127  0.4126 -0.1761
16483SOL    HW154296   4.154   8.506   9.476  0.3324 -0.0475 -0.2848
16483SOL    HW254297   4.007   8.513   9.510  0.4537  0.9119  0.0701
16484SOL     OW54298   3.995   0.304   8.435 -0.2710 -0.2247  0.0201
16484SOL    HW154299   3.903   0.323   8.418 -0.4417 -0.0625  1.0813
16484SOL    HW254300   4.012   0.342   8.521 -0.1420 -3.2495  1.4730
16485SOL     OW54301   6.268   7.683   7.369  0.6881  0.2981 -0.0799
16485SOL    HW154302   6.177   7.711   7.367 -0.0869 -1.9918 -0.1283
16485SOL    HW254303   6.265   7.590   7.348  2.9861  0.0167  0.5341
16486SOL     OW54304   4.524   9.674   6.351  0.1059 -0.0484  0.2673
16486SOL    HW154305   4.615   9.672   6.382  0.5345 -2.3314 -0.9250
16486SOL    HW254306   4.525   9.622   6.271 -2.3552 -0.5202  0.4768
16487SOL     OW54307   5.899   7.037   9.736 -1.2469  0.9162  0.5061
16487SOL    HW154308   5.960   6.979   9.690 -1.3053  0.5793  0.8548
16487SOL    HW254309   5.850   7.080   9.665 -0.9004  0.8738  0.2348
16488SOL     OW54310   4.078   9.528   8.813 -0.1334  0.4911 -0.0278
16488SOL    HW154311   4.067   9.441   8.851 -2.1184  0.2508 -1.0561
16488SOL    HW254312   4.173   9.539   8.808  0.1684 -0.9669  1.5251
16489SOL     OW54313   3.790   7.419   9.244 -0.8325 -0.6297 -0.1384
16489SOL    HW154314   3.800   7.330   9.276 -0.7130 -0.7768 -0.5853
16489SOL    HW254315   3.780   7.472   9.323 -0.8273 -1.0283  0.1282
16490SOL     OW54316   6.160   7.954   9.013 -0.1758  0.4055  0.0298
16490SOL    HW154317   6.147   7.859   9.004 -0.8370  0.5788 -0.9599
16490SOL    HW254318   6.224   7.962   9.083 -1.2861 -0.7217  1.2359
16491SOL     OW54319   4.864   6.608   7.279 -0.1366 -0.4271  0.0273
16491SOL    HW154320   4.816   6.525   7.286  0.8930 -1.0127  0.2866
16491SOL    HW254321   4.796   6.675   7.285 -0.9353 -1.2424  0.3367
16492SOL     OW54322   5.569   6.254   0.069 -0.2773 -0.0329  0.0839
16492SOL    HW154323   5.547   6.248   0.162  2.7855 -0.5290  0.8901
16492SOL    HW254324   5.617   6.336   0.060  0.8564 -0.7606 -0.7160
16493SOL     OW54325   2.997   8.664   9.092  0.5434 -0.1379 -0.1646
16493SOL    HW154326   2.963   8.596   9.033 -0.6676 -0.2022  0.5688
16493SOL    HW254327   2.953   8.744   9.064  0.5957 -0.0072  0.1265
16494SOL     OW54328   3.562   6.902   8.959 -0.5881 -0.1719  0.4835
16494SOL    HW154329   3.642   6.952   8.976  0.0081 -1.0349  0.2521
16494SOL    HW254330   3.499   6.937   9.021 -0.2084  0.9288  0.2676
16495SOL     OW54331   1.567   6.988   9.246 -0.5148 -0.0220 -0.0913
16495SOL    HW154332   1.490   6.985   9.303 -0.3561 -0.1197  0.1201
16495SOL    HW254333   1.617   7.065   9.276  0.3063 -0.9011  0.8729
16496SOL     OW54334   3.300   7.968   8.997  0.6911 -0.0569 -0.4171
16496SOL    HW154335   3.311   7.894   8.937  0.3637 -1.4725  1.1996
16496SOL    HW254336   3.249   7.932   9.070 -0.1909  1.9859  0.0326
16497SOL     OW54337   4.511   0.493   9.592  0.0430 -0.1038 -0.1860
16497SOL    HW154338   4.495   0.437   9.516  2.1228 -1.1312  0.0754
16497SOL    HW254339   4.496   0.582   9.559 -1.0512 -0.6321 -1.2297
16498SOL     OW54340   4.141   0.486   8.958 -0.4962  0.1012  0.6223
16498SOL    HW154341   4.093   0.569   8.964 -1.6273 -0.3844 -1.0174
16498SOL    HW254342   4.232   0.512   8.944 -0.9110  1.0984 -0.3910
16499SOL     OW54343   3.402   6.427   6.691  0.3352 -0.2594  0.0370
16499SOL    HW154344   3.315   6.466   6.682 -0.2344 -0.8897  2.0862
16499SOL    HW254345   3.445   6.479   6.759  1.5676 -0.0019 -0.8927
16500SOL     OW54346   5.047   8.327   1.990  0.0543  0.1623  0.3429
16500SOL    HW154347   5.007   8.261   2.047 -2.6930 -0.7706 -2.3404
16500SOL    HW254348   4.983   8.399   1.988  0.4704  0.5270 -0.8086
16501SOL     OW54349   4.557   9.821   0.232  0.1815 -0.6075 -0.1757
16501SOL    HW154350   4.635   9.874   0.250  2.2353 -3.1595 -0.9096
16501SOL    HW254351   4.520   9.858   0.152  1.1426  0.1757 -0.2735
16502SOL     OW54352   4.073   9.617   9.490 -0.0710 -0.2223 -0.4770
16502SOL    HW154353   4.129   9.540   9.501  0.2484  0.0947  0.1956
16502SOL    HW254354   4.089   9.645   9.399 -1.2504 -1.7458 -1.2024
16503SOL     OW54355   5.966   8.075   9.537 -0.0700  0.2839 -0.2661
16503SOL    HW154356   6.046   8.094   9.489 -0.8431  0.1028 -1.7069
16503SOL    HW254357   5.986   7.997   9.589  0.7336  0.3509 -0.4682
16504SOL     OW54358   4.806   7.618   7.706  0.1051  0.3788  0.4545
16504SOL    HW154359   4.850   7.536   7.728 -0.0744 -0.0915 -0.8413
16504SOL    HW254360   4.862   7.687   7.742  1.9149 -0.1989 -1.0968
16505SOL     OW54361   1.469   9.222   9.009 -0.3153 -0.6912 -0.3664
16505SOL    HW154362   1.563   9.235   9.017 -0.1007 -0.8533 -2.2423
16505SOL    HW254363   1.455   9.130   9.030 -0.0096 -0.7625 -0.4713
16506SOL     OW54364   5.059   8.423   7.258 -0.5986  0.4035 -0.0152
16506SOL    HW154365   5.005   8.496   7.291  0.1541  1.4300 -0.9954
16506SOL    HW254366   5.003   8.380   7.193 -2.1672 -1.7503  2.5709
16507SOL     OW54367   2.373   5.765   6.467 -0.5881 -0.3113 -0.2172
16507SOL    HW154368   2.383   5.735   6.377 -0.2588 -0.7472 -0.0407
16507SOL    HW254369   2.282   5.745   6.488  0.0449 -2.9054  0.4720
16508SOL     OW54370   5.830   4.852   7.635 -0.1020 -0.0371  0.1863
16508SOL    HW154371   5.897   4.920   7.621  0.6720 -0.6730  0.7182
16508SOL    HW254372   5.825   4.842   7.730 -0.7568 -0.2029  0.1401
16509SOL     OW54373   4.859   8.215   9.041  0.0005 -0.6938  0.2283
16509SOL    HW154374   4.943   8.171   9.055  0.3439 -0.4031 -0.7748
16509SOL    HW254375   4.876   8.276   8.969 -1.1104 -0.7455 -0.0986
16510SOL     OW54376   4.134   0.806   8.618  0.0540  0.2453 -0.2617
16510SOL    HW154377   4.222   0.816   8.654  1.4534 -1.7225 -2.8052
16510SOL    HW254378   4.140   0.729   8.561 -3.8289 -1.1952  0.9116
16511SOL     OW54379   0.918   8.412   6.015  0.3570 -0.3168  0.6064
16511SOL    HW154380   0.929   8.372   6.102  2.4976  2.8935  2.0451
16511SOL    HW254381   1.001   8.459   6.000 -1.4180  2.5393 -1.3072
16512SOL     OW54382   4.024   8.014   6.876  0.0857 -0.2926 -0.0101
16512SOL    HW154383   4.070   7.958   6.813  0.5643  1.4387 -1.2809
16512SOL    HW254384   4.003   7.956   6.949  1.2655 -1.9239 -0.9015
16513SOL     OW54385   3.743   7.453   0.134  0.5673  0.7316 -0.2964
16513SOL    HW154386   3.803   7.455   0.060 -0.3699 -0.5259 -1.1350
16513SOL    HW254387   3.746   7.362   0.165  1.2016  1.3047  1.4507
16514SOL     OW54388   6.053   0.600   8.880 -0.4711  0.2345  0.1747
16514SOL    HW154389   5.974   0.615   8.933 -1.6760  1.4703 -1.8346
16514SOL    HW254390   6.076   0.687   8.847  1.0379 -0.3074 -0.2699
16515SOL     OW54391   3.108   8.309   8.328 -0.2648 -0.0734  0.0705
16515SOL    HW154392   3.108   8.279   8.237  2.6133 -1.3680  0.3753
16515SOL    HW254393   3.099   8.404   8.322 -2.2762 -0.2913 -1.3943
16516SOL     OW54394   5.075   8.381   9.246  0.3311  0.2550  0.1790
16516SOL    HW154395   5.134   8.316   9.207 -0.1121  0.9327 -1.6961
16516SOL    HW254396   5.068   8.450   9.180 -1.5007  0.8428  0.9359
16517SOL     OW54397   3.246   5.506   9.158  0.2325  0.0870  0.8802
16517SOL    HW154398   3.331   5.537   9.191  1.0591 -1.8113  0.6329
16517SOL    HW254399   3.266   5.424   9.113 -2.1007 -2.0695  3.4134
16518SOL     OW54400   3.899   7.563   1.176  0.6290  0.0578  0.3716
16518SOL    HW154401   3.900   7.645   1.224  2.5311  0.4928 -0.3181
16518SOL    HW254402   3.884   7.588   1.085  0.8304 -0.3927  0.2100
16519SOL     OW54403   3.321   0.475   1.128  0.1354 -0.3114 -0.5082
16519SOL    HW154404   3.362   0.437   1.050  0.7278  1.4375 -1.1012
16519SOL    HW254405   3.261   0.541   1.094  0.8038  0.8632  0.4936
16520SOL     OW54406   5.100   8.214   8.683 -0.2751 -0.5353 -0.1042
16520SOL    HW154407   5.025   8.243   8.735 -0.9587  1.2690 -1.9545
16520SOL    HW254408   5.063   8.191   8.598  1.0867 -1.1681 -0.5545
16521SOL     OW54409   6.590   1.190   8.119 -0.0870 -0.0249  0.0327
16521SOL    HW154410   6.568   1.174   8.211 -0.8935  1.5258  0.1570
16521SOL    HW254411   6.625   1.107   8.087 -1.0875 -1.0076  1.3693
16522SOL     OW54412   3.584   7.020   8.430 -0.2981 -0.5975 -0.0555
16522SOL    HW154413   3.508   7.007   8.487 -0.8117 -0.7544 -0.7552
16522SOL    HW254414   3.557   7.090   8.370  0.4532 -0.0280  0.2614
16523SOL     OW54415   4.580   6.171   8.988 -0.2550 -0.0830  1.0022
16523SOL    HW154416   4.528   6.250   8.976 -0.6480  0.3153  4.4679
16523SOL    HW254417   4.670   6.198   8.971 -0.5515  0.6759  0.5947
16524SOL     OW54418   5.576   7.835   7.879 -0.2840 -0.5180 -0.7987
16524SOL    HW154419   5.568   7.892   7.802 -0.3676  0.0237 -0.3969
16524SOL    HW254420   5.490   7.841   7.921 -0.3281 -1.0335 -0.8102
16525SOL     OW54421   3.907   0.321   8.088  0.0087 -0.2285 -0.0474
16525SOL    HW154422   3.999   0.326   8.116  0.5234 -1.5232 -1.4045
16525SOL    HW254423   3.881   0.231   8.106 -0.9886  0.1105  0.2527
16526SOL     OW54424   6.829   8.308   8.475  0.3556  0.1942  0.4234
16526SOL    HW154425   6.906   8.329   8.528  0.1668  1.7088  0.1561
16526SOL    HW254426   6.818   8.384   8.418 -0.6619 -0.5072 -0.3542
16527SOL     OW54427   4.382   0.615   8.928  0.1640 -0.9237 -0.2457
16527SOL    HW154428   4.412   0.561   8.855 -0.1856 -1.7619  0.2152
16527SOL    HW254429   4.425   0.700   8.914  0.0323 -1.0347 -1.4648
16528SOL     OW54430   3.817   0.305   7.627  0.1918 -0.5464  0.0434
16528SOL    HW154431   3.905   0.314   7.591  0.3064  0.1301  0.4836
16528SOL    HW254432   3.789   0.395   7.643 -0.5128 -0.7669  0.0729
16529SOL     OW54433   4.117   1.656   7.674 -0.2163  0.4073  0.8843
16529SOL    HW154434   4.140   1.737   7.627 -0.2446  0.8381  1.6039
16529SOL    HW254435   4.146   1.672   7.764 -1.7983  0.3112  1.4391
16530SOL     OW54436   4.698   9.729   8.637 -0.2306 -0.4867  0.2399
16530SOL    HW154437   4.634   9.780   8.686 -0.2342  0.3929 -0.6553
16530SOL    HW254438   4.684   9.639   8.666  0.0087  0.0358  2.1159
16531SOL     OW54439   3.478   8.724   1.100  0.0308 -0.4329 -0.2801
16531SOL    HW154440   3.491   8.802   1.046  0.3172  0.1233  0.5753
16531SOL    HW254441   3.511   8.748   1.186 -3.0248 -0.2835  0.9978
16532SOL     OW54442   2.908   8.813   0.296  0.0228 -0.4578  0.1599
16532SOL    HW154443   2.909   8.836   0.389  0.1613 -1.9187  0.5460
16532SOL    HW254444   2.875   8.892   0.252 -1.1224 -0.1159  1.5510
16533SOL     OW54445   6.210   8.309   9.678 -0.0038  0.4130  0.1116
16533SOL    HW154446   6.118   8.289   9.699  0.4005 -0.6083  1.0038
16533SOL    HW254447   6.260   8.242   9.725  1.1544  0.3122 -1.2033
16534SOL     OW54448   5.945   9.301   9.124 -0.2403 -0.0152  0.0158
16534SOL    HW154449   5.895   9.336   9.050  1.3339  1.5253 -0.3777
16534SOL    HW254450   5.990   9.225   9.088  0.1454  0.4494 -0.5040
16535SOL     OW54451   3.637   8.353   6.993  0.1659 -0.4021  0.5678
16535SOL    HW154452   3.723   8.368   6.954 -0.0544  1.5835  0.7753
16535SOL    HW254453   3.651   8.282   7.055  1.8581  0.4440  1.2010
16536SOL     OW54454   5.090   8.954   0.358 -0.2161  0.1962 -0.0159
16536SOL    HW154455   5.027   8.886   0.384 -1.1595  0.5989 -1.1696
16536SOL    HW254456   5.153   8.958   0.431 -1.3702 -0.3997  1.0445
16537SOL     OW54457   5.493   9.791   9.582  0.2532 -0.2386  0.3439
16537SOL    HW154458   5.547   9.838   9.519 -0.1019 -0.2844  0.0027
16537SOL    HW254459   5.504   9.699   9.558  2.8974 -0.6261  2.4982
16538SOL     OW54460   3.789   7.098   6.927  0.4025  0.0778  0.0295
16538SOL    HW154461   3.756   7.019   6.971  1.4587  0.6528  1.9930
16538SOL    HW254462   3.713   7.156   6.923  0.0518 -0.3544  0.2559
16539SOL     OW54463   4.247   0.041   8.592 -0.0170 -0.0291 -0.2233
16539SOL    HW154464   4.293   0.103   8.535  0.9034  0.1851  0.7213
16539SOL    HW254465   4.290  -0.043   8.577  0.6842  0.1615  0.6228
16540SOL     OW54466   4.450   7.307   7.935  0.1205  0.3426 -0.0176
16540SOL    HW154467   4.529   7.257   7.954  0.3945  1.7454  3.2989
16540SOL    HW254468   4.483   7.391   7.902 -0.0774  0.2831 -0.3687
16541SOL     OW54469   3.861   7.498   7.929  0.1495 -0.0261 -0.1188
16541SOL    HW154470   3.840   7.446   7.851  0.5309  0.0733 -0.2898
16541SOL    HW254471   3.926   7.562   7.899 -1.7188  1.8514 -0.3774
16542SOL     OW54472   4.443   9.017   7.991  0.3221 -0.0255  0.0001
16542SOL    HW154473   4.381   8.992   7.922 -1.9401  1.9211  1.1792
16542SOL    HW254474   4.526   9.028   7.946 -0.5814 -0.9543 -2.0141
16543SOL     OW54475   3.071   7.437   0.485 -0.1493  0.0304  0.0281
16543SOL    HW154476   3.164   7.459   0.496  0.2799 -0.7849 -1.5902
16543SOL    HW254477   3.044   7.486   0.408 -1.5319  1.4495  1.3448
16544SOL     OW54478   4.356   8.665   8.746  0.1251  0.0294  0.2395
16544SOL    HW154479   4.335   8.754   8.717 -0.6099  0.3625  1.6905
16544SOL    HW254480   4.408   8.628   8.675 -0.6961  1.1509 -0.9894
16545SOL     OW54481   3.805   5.024   8.995  0.5538 -0.4823  0.1096
16545SOL    HW154482   3.869   4.958   8.971  1.1799  0.2874 -0.3974
16545SOL    HW254483   3.722   4.993   8.957  0.9265 -0.7692 -0.4791
16546SOL     OW54484   5.247   6.557   8.303  0.4082  0.8322  0.3239
16546SOL    HW154485   5.238   6.551   8.399  1.6858  0.2970  0.4332
16546SOL    HW254486   5.223   6.469   8.272  3.1635 -0.0821  0.4821
16547SOL     OW54487   4.793   1.044   6.599 -0.3946  0.9826 -0.0211
16547SOL    HW154488   4.829   1.114   6.653  0.8191  1.3037 -1.1818
16547SOL    HW254489   4.800   0.966   6.654 -1.1255  1.6346  1.0294
16548SOL     OW54490   6.409   8.478   8.858 -0.4328  0.4221 -0.3907
16548SOL    HW154491   6.351   8.468   8.933  0.4942 -0.0877  0.2921
16548SOL    HW254492   6.377   8.556   8.813 -0.4153  1.3486  1.1068
16549SOL     OW54493   4.246   6.430   8.595 -0.3342 -0.1974 -0.1640
16549SOL    HW154494   4.259   6.370   8.521  0.6169  1.2421 -1.2199
16549SOL    HW254495   4.215   6.374   8.666 -0.3780 -1.7811 -1.3747
16550SOL     OW54496   5.208   5.612   8.850 -0.4809  0.2562 -0.0048
16550SOL    HW154497   5.229   5.688   8.904 -1.8228 -1.1428  2.7336
16550SOL    HW254498   5.114   5.617   8.836 -0.8858 -1.5425  1.5318
16551SOL     OW54499   2.664   6.425   9.576 -0.5615  0.3647  0.7324
16551SOL    HW154500   2.679   6.334   9.550 -0.8802  0.0022  1.7803
16551SOL    HW254501   2.570   6.438   9.566 -0.5219  0.5742  0.6182
16552SOL     OW54502   4.367   8.779   7.036 -0.6619 -0.3896 -0.1618
16552SOL    HW154503   4.293   8.725   7.063 -1.5313  0.5750 -0.5590
16552SOL    HW254504   4.347   8.867   7.071 -0.9063  0.4514 -2.2859
16553SOL     OW54505   3.855   9.790   8.818 -0.4591 -0.3674  0.0179
16553SOL    HW154506   3.876   9.697   8.819 -0.8272 -0.5159 -1.7968
16553SOL    HW254507   3.761   9.793   8.835 -0.4878 -0.3495 -0.1415
16554SOL     OW54508   3.921   8.988   9.092 -0.4470  0.0793  0.1404
16554SOL    HW154509   3.899   9.066   9.041 -0.7503 -0.2625 -0.2501
16554SOL    HW254510   4.000   9.013   9.140  1.4606 -0.4657 -2.4981
16555SOL     OW54511   5.668   0.733   8.962  0.0639 -0.1280 -0.1285
16555SOL    HW154512   5.593   0.741   9.021  0.9394 -0.2321  1.0653
16555SOL    HW254513   5.648   0.789   8.888 -0.0330  2.0004  1.4232
16556SOL     OW54514   7.066   7.047   8.110 -0.4687  0.1327 -0.2397
16556SOL    HW154515   6.994   7.036   8.171 -0.2309  0.0556  0.0295
16556SOL    HW254516   7.063   6.969   8.054  0.1667 -0.4873  0.5707
16557SOL     OW54517   5.545   7.108   8.329 -0.2272  0.1795  0.5430
16557SOL    HW154518   5.450   7.096   8.336 -0.2420 -2.7394 -2.3402
16557SOL    HW254519   5.558   7.146   8.242  1.2650  0.9148  1.0516
16558SOL     OW54520   4.786   8.069   8.062 -0.1358  0.2212  0.0315
16558SOL    HW154521   4.794   8.132   7.990  0.4827 -1.5032 -1.4780
16558SOL    HW254522   4.695   8.041   8.060 -0.0626  0.0030 -0.2293
16559SOL     OW54523   4.424   7.446   0.063 -0.0242  0.6692  0.5771
16559SOL    HW154524   4.375   7.511   0.014  1.7781  0.0927 -2.2323
16559SOL    HW254525   4.489   7.496   0.112  1.3878  1.1383 -1.6055
16560SOL     OW54526   6.320   0.270   0.556  0.3220 -0.1707  0.0948
16560SOL    HW154527   6.336   0.205   0.488 -0.1079  0.3802 -0.5532
16560SOL    HW254528   6.261   0.227   0.617  1.9957 -1.2506  1.0290
16561SOL     OW54529   3.530   8.437   8.615  0.0069 -0.1174  0.0289
16561SOL    HW154530   3.476   8.498   8.564 -0.6251 -1.6381 -1.2030
16561SOL    HW254531   3.617   8.446   8.578  0.4213  1.5346  1.2796
16562SOL     OW54532   5.879   9.016   0.300 -0.6458 -0.2368  0.4143
16562SOL    HW154533   5.812   8.978   0.242 -0.1933 -2.7357  1.4071
16562SOL    HW254534   5.962   8.996   0.256 -0.4122  0.1859  0.6598
16563SOL     OW54535   3.566   0.783   8.465  0.2441 -0.2751  0.6473
16563SOL    HW154536   3.523   0.760   8.383  0.8208  1.6182 -0.2486
16563SOL    HW254537   3.532   0.721   8.529 -1.4555 -0.7613 -0.6719
16564SOL     OW54538   4.419   9.277   9.065  1.1890  0.1069  0.4775
16564SOL    HW154539   4.371   9.195   9.052  1.9783 -0.6815  2.0976
16564SOL    HW254540   4.355   9.338   9.100  1.3706 -1.1199  3.2344
16565SOL     OW54541   4.594   9.535   0.359  0.1040  0.7549  0.0044
16565SOL    HW154542   4.684   9.563   0.344  0.3945 -0.1130  0.1300
16565SOL    HW254543   4.541   9.605   0.319  0.8156  1.4917  0.3244
16566SOL     OW54544   3.522   8.927   0.916 -0.3643 -0.1374 -0.2150
16566SOL    HW154545   3.533   8.997   0.981 -1.1172  0.9121 -1.1901
16566SOL    HW254546   3.427   8.914   0.912 -0.2669 -0.7841 -0.5171
16567SOL     OW54547   3.184   9.060   9.058  0.6320 -0.0797  0.1353
16567SOL    HW154548   3.224   8.980   9.026 -0.8829 -1.0934  0.6705
16567SOL    HW254549   3.151   9.104   8.979 -2.5898 -2.2916  0.0513
16568SOL     OW54550   5.911   7.639   8.441  0.4351 -0.4801 -0.0645
16568SOL    HW154551   5.992   7.619   8.490  1.2367  0.7698 -0.8311
16568SOL    HW254552   5.848   7.574   8.473  1.5213 -1.0199  1.1018
16569SOL     OW54553   2.796   9.538   6.666  0.2624 -0.1772 -0.2047
16569SOL    HW154554   2.867   9.584   6.620 -0.7006 -0.1816 -1.7657
16569SOL    HW254555   2.724   9.537   6.603 -0.8823 -0.8293  1.0786
16570SOL     OW54556   5.845   8.432   7.231  0.5638 -0.2841 -0.2400
16570SOL    HW154557   5.913   8.480   7.278 -1.0365  0.1175  1.7863
16570SOL    HW254558   5.822   8.360   7.289 -1.6835  0.3738 -0.2456
16571SOL     OW54559   4.517   9.044   9.184 -0.2201 -0.2817 -0.7041
16571SOL    HW154560   4.560   9.129   9.199 -1.9870  0.7634 -1.2916
16571SOL    HW254561   4.489   9.047   9.093 -2.0525 -0.6381 -0.1967
16572SOL     OW54562   3.279   9.751   8.843 -0.5102 -0.0900  0.2189
16572SOL    HW154563   3.254   9.720   8.756 -1.6034 -0.7445  0.7462
16572SOL    HW254564   3.294   9.671   8.893  1.4003  0.2792  0.3031
16573SOL     OW54565   5.631   9.742   8.586  0.2264  0.1486 -0.3890
16573SOL    HW154566   5.698   9.721   8.521  1.0387  1.3791  0.0301
16573SOL    HW254567   5.577   9.809   8.544  0.4003  0.5239 -0.0183
16574SOL     OW54568   6.430   7.504   6.897 -0.1676 -0.3439 -0.0761
16574SOL    HW154569   6.501   7.561   6.867 -0.6792  0.4388  0.1537
16574SOL    HW254570   6.448   7.419   6.856  1.3309 -0.3908  0.6189
16575SOL     OW54571   4.050   0.737   8.864  0.8169 -0.0168  0.0093
16575SOL    HW154572   4.068   0.748   8.771 -0.1826 -0.9033 -0.3033
16575SOL    HW254573   3.954   0.740   8.870  0.8841  2.3992  1.3178
16576SOL     OW54574   5.021   8.810   7.783  0.4173 -0.4453 -0.0154
16576SOL    HW154575   5.111   8.801   7.815  0.2114  0.3769  0.8374
16576SOL    HW254576   5.014   8.746   7.712  1.3353 -1.2862  0.6331
16577SOL     OW54577   5.431   8.479   9.535 -0.0577  0.4837 -0.2790
16577SOL    HW154578   5.514   8.433   9.525 -0.0938 -0.3678  2.5653
16577SOL    HW254579   5.450   8.549   9.598 -1.5152  0.0950  0.6394
16578SOL     OW54580   4.385   7.759   8.934  0.0515  0.2217 -0.7829
16578SOL    HW154581   4.467   7.787   8.893  0.6709  2.9318  1.9138
16578SOL    HW254582   4.324   7.832   8.920 -0.5731  0.0256  0.6232
16579SOL     OW54583   5.519   2.115   6.819 -0.4190 -0.4087  0.4189
16579SOL    HW154584   5.452   2.072   6.766 -0.0372  0.5148 -0.8726
16579SOL    HW254585   5.471   2.176   6.874 -0.9142 -2.0607  1.9104
16580SOL     OW54586   3.617   0.896   7.110  0.3620 -0.4391  0.1750
16580SOL    HW154587   3.537   0.884   7.162  0.3397  1.6785  0.7219
16580SOL    HW254588   3.670   0.956   7.162  1.1014  0.3538 -1.4310
16581SOL     OW54589   4.703   2.550   7.815 -0.1366 -0.4999  0.3191
16581SOL    HW154590   4.716   2.536   7.721  0.2116 -1.2363  0.4682
16581SOL    HW254591   4.645   2.480   7.843  0.8630 -1.1279  0.9035
16582SOL     OW54592   4.116   7.269   9.719  0.1214 -0.2497 -0.5579
16582SOL    HW154593   4.057   7.344   9.725 -0.5214 -0.6094 -2.0925
16582SOL    HW254594   4.191   7.301   9.670 -1.4192 -1.2820 -3.8396
16583SOL     OW54595   3.441   0.919   1.199 -0.2824  0.3303  0.5151
16583SOL    HW154596   3.534   0.895   1.193 -0.2525  0.2530  1.2904
16583SOL    HW254597   3.418   0.905   1.290 -1.2704 -0.4110  0.1668
16584SOL     OW54598   1.566   6.982   9.823  0.2258  0.2547  0.0801
16584SOL    HW154599   1.505   6.983   9.749  1.7677 -0.8817 -1.2802
16584SOL    HW254600   1.610   7.066   9.820 -1.1436  1.0487  1.0185
16585SOL     OW54601   4.105   8.650   9.011 -0.0008  0.1696 -0.4820
16585SOL    HW154602   4.060   8.704   8.946 -0.1522  1.0949  0.3713
16585SOL    HW254603   4.036   8.594   9.047 -0.3798  1.1742  0.4046
16586SOL     OW54604   4.644   0.232   0.050 -0.3195 -0.4742  0.4242
16586SOL    HW154605   4.708   0.295   0.017 -0.9253 -0.2542 -0.3573
16586SOL    HW254606   4.669   0.219   0.142  1.2851 -0.9573 -0.0429
16587SOL     OW54607   3.643   9.179   9.657  0.1207 -0.3056 -0.3835
16587SOL    HW154608   3.672   9.266   9.685  0.4187 -0.7170  0.6315
16587SOL    HW254609   3.585   9.150   9.727  1.2893 -1.5656  0.1089
16588SOL     OW54610   4.612   7.676   9.728  0.3324  0.3027 -0.0396
16588SOL    HW154611   4.635   7.769   9.725 -0.5049  0.5021 -0.4592
16588SOL    HW254612   4.520   7.675   9.752  0.2871 -0.4140 -0.2279
16589SOL     OW54613   5.342   9.210   8.795 -0.0579 -0.2462  0.4103
16589SOL    HW154614   5.342   9.248   8.707 -1.6728 -0.8803  0.0836
16589SOL    HW254615   5.434   9.209   8.821  0.4785 -0.1201 -1.3129
16590SOL     OW54616   3.077   9.032   1.421 -0.0598 -0.4730 -0.1161
16590SOL    HW154617   3.009   9.047   1.356 -0.4094  2.7146  0.8338
16590SOL    HW254618   3.119   9.117   1.432  1.2301 -1.3350  2.4565
16591SOL     OW54619   3.703   6.835   6.696  0.0209 -0.2413 -0.1326
16591SOL    HW154620   3.783   6.799   6.735 -0.6298  1.0456  2.6500
16591SOL    HW254621   3.728   6.924   6.671 -0.7409  0.6005  1.8662
16592SOL     OW54622   5.039   8.910   0.111  0.2278 -0.1597 -0.2673
16592SOL    HW154623   5.074   8.935   0.196 -0.3647  0.1816 -0.1161
16592SOL    HW254624   4.962   8.856   0.131 -0.0631  0.1303 -0.5747
16593SOL     OW54625   5.545   7.025   0.804 -0.1838 -0.2672 -0.9580
16593SOL    HW154626   5.614   6.979   0.851  0.2925 -0.2210 -1.5923
16593SOL    HW254627   5.534   7.107   0.850 -0.7554 -0.8312 -0.0596
16594SOL     OW54628   6.538   7.773   7.842  0.2721  0.3075  0.4553
16594SOL    HW154629   6.610   7.725   7.800  0.2929  0.5301  0.2347
16594SOL    HW254630   6.461   7.751   7.789  0.1585 -0.0065  0.7481
16595SOL     OW54631   2.951   7.402   0.150  0.0096 -0.7401 -0.3416
16595SOL    HW154632   2.911   7.479   0.110 -0.3787  0.0846  1.5279
16595SOL    HW254633   3.030   7.387   0.099  0.6108  1.5004 -0.1669
16596SOL     OW54634   5.933   8.598   9.098  0.7607  0.2943 -0.0146
16596SOL    HW154635   5.863   8.535   9.112  0.7364  0.4030  0.3682
16596SOL    HW254636   5.957   8.628   9.186 -0.0277  1.6805 -0.2388
16597SOL     OW54637   5.245   0.428   7.857 -0.4613 -0.1053  0.0454
16597SOL    HW154638   5.277   0.481   7.784 -0.3423 -1.4839 -0.9459
16597SOL    HW254639   5.190   0.488   7.908 -1.9400  0.4677 -2.1104
16598SOL     OW54640   3.110   9.302   0.502 -0.7608 -0.3887  0.3732
16598SOL    HW154641   3.075   9.274   0.417  0.2851  1.2547 -0.6555
16598SOL    HW254642   3.086   9.395   0.508 -1.1911 -0.5799  2.0944
16599SOL     OW54643   5.291   8.742   0.594  0.2564 -0.5712  0.4397
16599SOL    HW154644   5.384   8.732   0.572  0.0421 -1.0077 -0.3350
16599SOL    HW254645   5.247   8.678   0.538 -0.6851  0.9435 -0.6184
16600SOL     OW54646   6.483   7.021   9.638 -0.5129  0.4780  0.0674
16600SOL    HW154647   6.542   6.959   9.681 -1.0954 -0.5347 -0.5630
16600SOL    HW254648   6.418   7.042   9.704 -0.4014  0.2929  0.2385
16601SOL     OW54649   3.916   1.158   8.587  0.1715  0.0423 -0.6175
16601SOL    HW154650   3.882   1.074   8.616  1.5625 -0.3326  0.0283
16601SOL    HW254651   3.908   1.156   8.492  1.6260 -1.5181 -0.7582
16602SOL     OW54652   5.264   6.785   0.130  0.0281  0.0886  0.4729
16602SOL    HW154653   5.322   6.860   0.130  0.1693 -0.0106 -0.5739
16602SOL    HW254654   5.186   6.814   0.082  1.3385 -1.3196 -2.7986
16603SOL     OW54655   4.129   5.152   2.241  0.1076 -0.0189  0.3023
16603SOL    HW154656   4.198   5.164   2.306  1.3025 -1.0884 -0.7212
16603SOL    HW254657   4.172   5.168   2.157 -0.6216 -1.6482 -0.4251
16604SOL     OW54658   1.652   9.623   0.610 -0.1733  0.0907 -0.2367
16604SOL    HW154659   1.634   9.704   0.562 -0.4532  0.1607 -0.0106
16604SOL    HW254660   1.682   9.562   0.542 -0.5749  0.1865 -0.5057
16605SOL     OW54661   8.085   9.009   8.390  0.1068  0.6859 -0.5588
16605SOL    HW154662   8.017   9.074   8.373  0.1016  0.5513 -1.0595
16605SOL    HW254663   8.128   9.039   8.470 -1.1619  0.2746  0.3113
16606SOL     OW54664   4.194   6.534   1.358  0.4973  0.1676  0.1288
16606SOL    HW154665   4.148   6.528   1.442 -0.8693 -2.3620 -0.7094
16606SOL    HW254666   4.265   6.597   1.375  0.1460 -0.0601  3.0948
16607SOL     OW54667   2.946   9.333   9.447  0.1125  0.4152  0.0360
16607SOL    HW154668   2.942   9.277   9.370 -2.6447  0.6158 -0.0889
16607SOL    HW254669   2.919   9.276   9.520 -1.4292  1.1691  0.1131
16608SOL     OW54670   3.333   8.068   0.151 -0.0357  0.4927 -0.4816
16608SOL    HW154671   3.306   8.017   0.074  1.4867 -1.5986  0.2910
16608SOL    HW254672   3.256   8.121   0.172 -1.2328 -0.4839 -2.1418
16609SOL     OW54673   4.586   8.213   8.895 -0.5789 -0.1458 -0.4801
16609SOL    HW154674   4.509   8.167   8.862 -0.3100 -1.2545  0.3793
16609SOL    HW254675   4.554   8.300   8.920 -1.4096 -0.3742 -0.7362
16610SOL     OW54676   6.176   5.502   8.173 -0.0120 -0.7126 -0.3640
16610SOL    HW154677   6.142   5.572   8.117  0.1615 -0.6066 -0.3362
16610SOL    HW254678   6.102   5.443   8.184 -0.2241 -0.4227 -0.2085
16611SOL     OW54679   4.791   7.661   9.510  0.2380 -0.0515  0.1123
16611SOL    HW154680   4.722   7.647   9.575 -1.7249  1.3804 -1.5396
16611SOL    HW254681   4.843   7.733   9.547 -0.0904 -0.0862  0.6652
16612SOL     OW54682   6.152   9.204   8.504 -0.0540  0.3226 -0.0417
16612SOL    HW154683   6.067   9.228   8.541 -0.0193  0.0339  0.2181
16612SOL    HW254684   6.136   9.201   8.409 -0.3336  0.2624  0.0066
16613SOL     OW54685   2.339   6.798   8.902 -1.1704  0.6815  0.1418
16613SOL    HW154686   2.397   6.864   8.939 -0.0903 -1.3457  2.4005
16613SOL    HW254687   2.399   6.729   8.872 -2.2965  0.1491 -0.9679
16614SOL     OW54688   4.284   8.889   9.451 -0.2780 -0.3892 -0.1226
16614SOL    HW154689   4.237   8.904   9.533 -1.7535  1.0264 -1.1615
16614SOL    HW254690   4.336   8.810   9.467 -1.3412 -0.7573  1.8079
16615SOL     OW54691   4.762   8.261   0.293  0.5029  0.1892 -0.3800
16615SOL    HW154692   4.703   8.303   0.356  1.2611  0.3428  0.2528
16615SOL    HW254693   4.715   8.265   0.209  0.1342  1.4026 -0.1362
16616SOL     OW54694   6.500   9.344   9.781  0.9731 -0.3766  0.0432
16616SOL    HW154695   6.482   9.252   9.800  0.5046 -0.6398 -1.5262
16616SOL    HW254696   6.578   9.342   9.726  1.2692  0.2151  0.4281
16617SOL     OW54697   4.805   8.614   8.881 -0.3262  0.1320 -0.1495
16617SOL    HW154698   4.727   8.632   8.933 -0.7258 -1.2128 -0.2332
16617SOL    HW254699   4.776   8.619   8.790  0.0355  1.0536 -0.2255
16618SOL     OW54700   3.741   9.056   8.785  0.1070  0.5637  0.3954
16618SOL    HW154701   3.763   9.073   8.693  0.9169 -0.5973  0.3520
16618SOL    HW254702   3.807   9.105   8.835 -0.0327  0.7965  0.3529
16619SOL     OW54703   5.940   6.902   9.372 -0.0874 -0.1348 -0.7813
16619SOL    HW154704   5.967   6.988   9.405 -1.1942  0.4116 -1.2633
16619SOL    HW254705   5.849   6.893   9.399  0.4298 -1.8702  0.6477
16620SOL     OW54706   2.256   7.888   8.623  0.4499 -0.1033  0.4504
16620SOL    HW154707   2.264   7.793   8.618  1.0069 -0.0143 -0.7718
16620SOL    HW254708   2.346   7.919   8.631  0.2140  0.2998  1.8962
16621SOL     OW54709   6.822   6.054   7.866 -0.6288 -0.1071  0.0935
16621SOL    HW154710   6.766   6.018   7.797 -0.3816  2.0948 -1.3465
16621SOL    HW254711   6.911   6.047   7.831 -0.3999  0.1381  0.6121
16622SOL     OW54712   4.151   9.030   9.239 -0.5446  0.0308 -0.8225
16622SOL    HW154713   4.181   9.115   9.272 -0.7530  0.1909 -1.0385
16622SOL    HW254714   4.201   8.966   9.289 -2.0969  0.1977  1.0596
16623SOL     OW54715   4.149   8.454   8.722  0.4905  0.3257 -0.2041
16623SOL    HW154716   4.076   8.466   8.783  1.1769  0.6053  0.5870
16623SOL    HW254717   4.217   8.513   8.754  1.3761 -0.5417 -0.4262
16624SOL     OW54718   4.375   9.169   9.737 -0.2098  0.3336 -0.3600
16624SOL    HW154719   4.319   9.144   9.810 -0.8225  1.8197 -0.2905
16624SOL    HW254720   4.393   9.087   9.691 -0.7174 -0.4605  0.8203
16625SOL     OW54721   5.129   0.421   7.159  0.3235  0.5476 -0.0782
16625SOL    HW154722   5.156   0.513   7.155  2.8341 -0.0271  1.4902
16625SOL    HW254723   5.206   0.372   7.132 -0.1128 -1.1600  1.5698
16626SOL     OW54724   5.405   8.505   8.001 -0.4082  0.0428 -0.3867
16626SOL    HW154725   5.406   8.416   8.038 -0.0413 -0.1840 -0.9235
16626SOL    HW254726   5.437   8.560   8.072 -0.8529 -0.2247  0.0245
16627SOL     OW54727   4.630   7.180   0.700  0.0803 -0.1925  0.2170
16627SOL    HW154728   4.662   7.148   0.784  2.0122 -0.1715 -0.4560
16627SOL    HW254729   4.602   7.270   0.717 -1.2674 -0.7566  1.1853
16628SOL     OW54730   3.866   7.972   0.171  0.1642  0.1014  0.2835
16628SOL    HW154731   3.872   7.983   0.266 -0.8834  1.6017  0.2151
16628SOL    HW254732   3.775   7.994   0.150  0.4835  0.1770 -1.1115
16629SOL     OW54733   3.314   7.673   9.335 -0.2497  0.2010  0.3152
16629SOL    HW154734   3.264   7.604   9.291 -0.1325  1.2982 -1.6646
16629SOL    HW254735   3.368   7.627   9.399 -0.6444 -1.4713 -0.4991
16630SOL     OW54736   5.765   7.368   0.103 -0.8170  0.2518  0.1113
16630SOL    HW154737   5.765   7.284   0.149 -0.7132  0.9699  1.4773
16630SOL    HW254738   5.675   7.400   0.111 -0.2245  1.5837  2.1776
16631SOL     OW54739   4.837   7.842   0.715 -0.3861 -0.7207 -0.5107
16631SOL    HW154740   4.865   7.772   0.657  1.7085 -0.4266  0.0546
16631SOL    HW254741   4.866   7.813   0.802  2.4029  1.6475 -0.5074
16632SOL     OW54742   5.062   0.453   9.239 -0.4848 -0.0633 -0.4460
16632SOL    HW154743   5.023   0.536   9.212 -0.6751  0.4220  1.2503
16632SOL    HW254744   5.067   0.458   9.334 -0.0729 -1.8142 -0.3396
16633SOL     OW54745   4.664   8.541   9.296  0.2309 -0.0441 -0.5300
16633SOL    HW154746   4.594   8.572   9.353 -0.1116  0.6035 -1.2856
16633SOL    HW254747   4.677   8.450   9.322 -1.1026 -0.2712 -0.5694
16634SOL     OW54748   3.023   7.316   5.684 -0.2519 -0.1293 -0.0101
16634SOL    HW154749   3.115   7.295   5.667  0.1218 -0.4988  2.2024
16634SOL    HW254750   2.984   7.324   5.597  1.1639 -2.9919 -1.0214
16635SOL     OW54751   3.029   0.781   9.543 -0.1379 -0.0252 -0.6563
16635SOL    HW154752   2.977   0.703   9.562 -0.3304  0.2810  0.0863
16635SOL    HW254753   3.071   0.803   9.626 -0.3384  0.8537 -0.7749
16636SOL     OW54754   6.314   9.662   0.505  0.1409  0.1131  0.3721
16636SOL    HW154755   6.343   9.619   0.424 -1.6378  0.9141 -0.7473
16636SOL    HW254756   6.290   9.590   0.563  2.6509 -0.5225  0.7427
16637SOL     OW54757   5.317   7.975   8.782 -1.0196  0.0825  0.0784
16637SOL    HW154758   5.379   8.047   8.795 -0.7989 -0.0215 -0.3714
16637SOL    HW254759   5.279   7.961   8.869 -1.8185  1.4079 -0.0282
16638SOL     OW54760   5.414   0.702   2.307 -1.1006 -0.5416 -0.2996
16638SOL    HW154761   5.360   0.642   2.357 -2.3953  0.0100 -0.9984
16638SOL    HW254762   5.361   0.726   2.231 -0.7421  1.6798  0.0605
16639SOL     OW54763   5.621   0.855   3.160  0.2627 -0.0336 -0.2522
16639SOL    HW154764   5.618   0.950   3.145 -2.1150 -0.2775 -1.7530
16639SOL    HW254765   5.707   0.829   3.127  0.0877  1.3123 -1.9320
16640SOL     OW54766   4.748   0.147   0.303  0.0133  0.1133 -0.4432
16640SOL    HW154767   4.817   0.204   0.269 -0.1790 -0.5538 -2.0201
16640SOL    HW254768   4.794   0.089   0.364  0.5872  0.5668 -0.4292
16641SOL     OW54769   3.731   9.079   0.596 -0.5834 -0.5272 -0.5560
16641SOL    HW154770   3.737   9.145   0.527  0.0588 -1.4199 -1.3751
16641SOL    HW254771   3.710   9.129   0.675 -1.1108  0.5340 -1.3469
16642SOL     OW54772   5.799   0.235   0.607 -0.0049  0.1022  0.1429
16642SOL    HW154773   5.773   0.319   0.569  2.9019  0.5809 -1.0020
16642SOL    HW254774   5.890   0.223   0.579  0.2602 -2.5571  1.8419
16643SOL     OW54775   4.108   8.840   2.567 -0.0832 -0.1630  0.6754
16643SOL    HW154776   4.030   8.812   2.519  0.7961 -1.1890 -0.2014
16643SOL    HW254777   4.075   8.903   2.631 -1.6405 -0.6283  0.3809
16644SOL     OW54778   6.320   2.799   2.886 -0.2024 -0.1793 -0.3529
16644SOL    HW154779   6.280   2.742   2.821 -1.4275 -0.0826  0.2838
16644SOL    HW254780   6.253   2.808   2.954  0.8857  0.0511  0.7177
16645SOL     OW54781   6.393   9.745   1.399  0.0644  0.5830  0.0764
16645SOL    HW154782   6.309   9.738   1.445  0.0480  0.5097  0.0354
16645SOL    HW254783   6.426   9.655   1.397 -0.9469  0.2072 -1.9962
16646SOL     OW54784   4.939   9.155   1.419  0.4585  0.3606 -0.4415
16646SOL    HW154785   4.882   9.226   1.449 -1.9353 -2.4954  2.6122
16646SOL    HW254786   5.013   9.156   1.481 -0.5449 -0.8380  0.8377
16647SOL     OW54787   5.164   1.366   1.021 -0.0262 -0.2931  0.0213
16647SOL    HW154788   5.116   1.441   0.986  0.6926  0.5386  0.7639
16647SOL    HW254789   5.105   1.326   1.084  0.0381  0.4097  0.5420
16648SOL     OW54790   6.110   1.048   8.430 -0.5555  0.2608  0.3025
16648SOL    HW154791   6.200   1.022   8.448 -0.2060  0.6458 -0.8513
16648SOL    HW254792   6.115   1.099   8.350 -1.6808  1.0660  0.7203
16649SOL     OW54793   6.424   0.297   8.945 -0.1118  0.6091 -0.0434
16649SOL    HW154794   6.420   0.313   8.851  0.2754 -4.1265 -1.1052
16649SOL    HW254795   6.493   0.232   8.956 -1.0338 -0.0197  3.3124
16650SOL     OW54796   3.425   9.225   2.178  0.0550 -0.5099 -0.0001
16650SOL    HW154797   3.404   9.275   2.257  0.2458  1.0701 -0.9144
16650SOL    HW254798   3.509   9.260   2.149 -1.1456  0.6954 -2.2592
16651SOL     OW54799   3.355   9.580   2.800 -0.2055 -0.4495  0.2508
16651SOL    HW154800   3.305   9.534   2.732 -0.6828  0.1614  0.1738
16651SOL    HW254801   3.409   9.642   2.752 -0.5036 -0.0555  0.4178
16652SOL     OW54802   8.259   8.348   8.752  0.0221  0.2615 -0.1339
16652SOL    HW154803   8.342   8.319   8.790  0.0721  1.0370  0.3699
16652SOL    HW254804   8.192   8.303   8.804  0.0612 -2.7972 -2.4242
16653SOL     OW54805   4.383   9.655   9.619 -0.0737  0.0459  0.1017
16653SOL    HW154806   4.386   9.620   9.708  1.4339  1.8525  0.8260
16653SOL    HW254807   4.323   9.596   9.573 -0.3887 -1.3384  2.1118
16654SOL     OW54808   4.668   8.593   8.301  0.3212 -0.4287  0.1022
16654SOL    HW154809   4.646   8.642   8.222  0.3549 -2.3045 -1.1209
16654SOL    HW254810   4.649   8.502   8.279  1.5153 -1.1468  1.8403
16655SOL     OW54811   6.012   8.543   9.728  0.3790  0.1621 -0.2242
16655SOL    HW154812   5.984   8.452   9.736  1.6024 -0.2128  0.0735
16655SOL    HW254813   5.942   8.587   9.680 -1.1416 -0.4980  1.3035
16656SOL     OW54814   4.114   0.983   1.110  0.0775  0.1329  0.3629
16656SOL    HW154815   4.048   0.920   1.081 -0.4158  0.8003  0.0155
16656SOL    HW254816   4.164   0.936   1.178  0.0059 -0.7734 -0.2005
16657SOL     OW54817   5.825   1.250   0.215  0.4319  1.1118  0.0908
16657SOL    HW154818   5.851   1.185   0.280 -0.0179  1.1735  0.3351
16657SOL    HW254819   5.900   1.257   0.156  0.1686 -0.2698 -0.4572
16658SOL     OW54820   3.034   0.311   1.929 -0.0289  0.3400 -0.2523
16658SOL    HW154821   3.090   0.264   1.991 -1.3381 -0.1820  0.5744
16658SOL    HW254822   2.999   0.385   1.980  1.0122  1.5007 -1.1730
16659SOL     OW54823   5.003   8.849   8.118 -0.1514 -0.6908  0.2766
16659SOL    HW154824   5.029   8.759   8.136  0.6477 -0.5020  0.1169
16659SOL    HW254825   5.059   8.902   8.175 -0.1107 -0.2588 -0.1649
16660SOL     OW54826   4.893   8.289   3.031 -0.3334 -0.3118 -0.1519
16660SOL    HW154827   4.967   8.247   2.987 -0.7029 -0.9858 -0.1435
16660SOL    HW254828   4.916   8.288   3.124 -1.4421 -2.8487  0.1591
16661SOL     OW54829   4.957   9.742   8.695 -0.5609  0.6718 -0.1357
16661SOL    HW154830   4.949   9.687   8.617 -0.4258  2.9008 -1.8375
16661SOL    HW254831   4.867   9.753   8.725 -0.4275 -2.3369  1.7305
16662SOL     OW54832   3.754   8.795   3.790  0.0402 -0.1854  0.4126
16662SOL    HW154833   3.747   8.857   3.863 -2.1548  1.5270 -1.1340
16662SOL    HW254834   3.826   8.830   3.736 -0.8136  0.7432 -0.1563
16663SOL     OW54835   5.871   0.677   0.462  0.1143  0.2419 -0.1830
16663SOL    HW154836   5.802   0.743   0.456  0.1041  0.4985  1.8880
16663SOL    HW254837   5.825   0.598   0.490  0.5175  0.1994  0.3918
16664SOL     OW54838   5.804   8.614   8.460 -0.0923 -0.2996  0.2627
16664SOL    HW154839   5.861   8.570   8.524  0.7904 -2.2171 -1.7120
16664SOL    HW254840   5.716   8.608   8.498  0.5124 -0.5306  1.7029
16665SOL     OW54841   1.589   8.941   0.538  0.2963  0.6873 -0.1692
16665SOL    HW154842   1.671   8.900   0.565 -1.3595 -0.2482  4.4419
16665SOL    HW254843   1.566   8.998   0.611 -2.1354  2.6425 -2.2848
16666SOL     OW54844   4.834   9.856   9.644 -0.3656  0.0755  0.2371
16666SOL    HW154845   4.802   9.768   9.622 -1.4795  1.0786 -2.6247
16666SOL    HW254846   4.758   9.913   9.630  0.8100  1.7124  0.2298
16667SOL     OW54847   4.985   8.411   1.035 -0.6102 -0.0551  0.0615
16667SOL    HW154848   4.968   8.318   1.053  0.1696 -0.2440 -0.1536
16667SOL    HW254849   5.036   8.440   1.111  0.2943 -0.1500 -0.4912
16668SOL     OW54850   3.181   9.328   1.676 -1.1285  0.0509  0.1955
16668SOL    HW154851   3.087   9.317   1.669 -1.3885  0.9210  1.8788
16668SOL    HW254852   3.198   9.335   1.770  0.8587 -2.0051  0.0950
16669SOL     OW54853   4.050   0.906   3.051 -0.2641  0.3211 -0.5875
16669SOL    HW154854   4.078   0.829   3.100 -0.5761  0.0665 -0.8032
16669SOL    HW254855   4.052   0.978   3.114 -0.3312  0.0616 -0.2911
16670SOL     OW54856   1.409   9.440   0.094 -0.0761  0.2235 -0.1301
16670SOL    HW154857   1.455   9.435   0.178  2.4715  1.7764 -1.3251
16670SOL    HW254858   1.387   9.349   0.073 -1.5915 -0.1356  2.5586
16671SOL     OW54859   2.882   8.744   0.962 -0.0379 -0.2026 -0.8484
16671SOL    HW154860   2.883   8.668   1.021  0.1248  1.1206  0.9314
16671SOL    HW254861   2.973   8.755   0.935 -0.1402 -0.9157 -1.5145
16672SOL     OW54862   3.464   1.812   1.614  0.1729 -0.0891  0.1940
16672SOL    HW154863   3.455   1.810   1.519 -1.5841  2.7077  0.1768
16672SOL    HW254864   3.557   1.827   1.629  0.4422 -0.3428 -1.0976
16673SOL     OW54865   5.076   9.687   8.968  0.0331 -0.2870 -0.7780
16673SOL    HW154866   5.120   9.604   8.986 -1.0619 -0.9666 -1.1372
16673SOL    HW254867   5.018   9.669   8.894  2.1872  1.6776 -3.1259
16674SOL     OW54868   4.247   8.927   0.913 -0.1597  0.2686  0.2024
16674SOL    HW154869   4.326   8.956   0.868  0.3293 -0.3758  0.6149
16674SOL    HW254870   4.176   8.980   0.876  0.7775  2.5813  1.5097
16675SOL     OW54871   5.366   7.995   1.834  0.1004  0.6935 -0.0166
16675SOL    HW154872   5.292   8.055   1.822  0.2525  0.6092 -1.5891
16675SOL    HW254873   5.367   7.942   1.755  1.3719  0.1662  0.3253
16676SOL     OW54874   5.180   8.333   9.615 -0.0453  0.5793  0.2516
16676SOL    HW154875   5.249   8.383   9.571  0.5860 -0.3771  0.1324
16676SOL    HW254876   5.226   8.277   9.677 -0.6978 -0.1938  0.0591
16677SOL     OW54877   3.848   8.779   2.515 -0.7041 -0.3643 -0.0334
16677SOL    HW154878   3.824   8.832   2.439  0.8574 -0.5687 -0.7082
16677SOL    HW254879   3.829   8.834   2.591 -1.0008  0.3627 -0.6275
16678SOL     OW54880   3.520   6.934   0.753 -0.2114  0.0943  0.6183
16678SOL    HW154881   3.425   6.943   0.762 -0.1854 -0.1032  1.1190
16678SOL    HW254882   3.537   6.953   0.661 -0.6543  0.8205  0.6752
16679SOL     OW54883   4.988   8.664   3.193  0.2566  0.0775 -0.4738
16679SOL    HW154884   5.029   8.581   3.171 -0.9756 -0.8772  0.6688
16679SOL    HW254885   4.915   8.672   3.132  0.6296  0.5292 -0.8612
16680SOL     OW54886   4.094   0.353   0.485  0.1357 -0.0041 -0.0861
16680SOL    HW154887   4.125   0.405   0.411  0.2176  0.5379  0.3208
16680SOL    HW254888   4.041   0.414   0.536  1.4360  0.0968  1.1861
16681SOL     OW54889   3.677   9.254   0.836 -1.1204 -0.4230 -0.1743
16681SOL    HW154890   3.729   9.307   0.776 -0.0076 -1.4038 -0.1205
16681SOL    HW254891   3.639   9.317   0.897 -2.0117  0.5614 -1.6744
16682SOL     OW54892   6.154   0.075   4.230 -0.3445  0.4008 -0.3941
16682SOL    HW154893   6.102   0.021   4.289  0.9959 -0.0400  0.4296
16682SOL    HW254894   6.170   0.018   4.154  0.6014 -0.1828  0.2302
16683SOL     OW54895   4.556   9.716   2.293 -0.0148 -0.0355 -0.1805
16683SOL    HW154896   4.527   9.627   2.312 -0.5794 -0.0126 -0.8763
16683SOL    HW254897   4.648   9.718   2.319 -0.0258 -0.7959 -0.0726
16684SOL     OW54898   4.953   9.408   9.576  0.3963  0.0324 -0.5708
16684SOL    HW154899   4.996   9.489   9.549  1.6165 -0.8056 -1.2893
16684SOL    HW254900   4.866   9.413   9.538  0.7622  0.6170 -1.3581
16685SOL     OW54901   4.434   8.758   9.237 -0.0474  0.5557 -0.2218
16685SOL    HW154902   4.442   8.740   9.330 -1.2720  0.7594 -0.0518
16685SOL    HW254903   4.468   8.847   9.226  1.2404  0.0819 -0.1936
16686SOL     OW54904   6.571   8.969   8.976 -0.0959  0.2791 -0.0715
16686SOL    HW154905   6.576   9.014   8.892 -1.2869  0.8876  0.1541
16686SOL    HW254906   6.553   8.877   8.953 -2.5608  0.7870 -0.5108
16687SOL     OW54907   3.995   9.848   1.608  0.1231  0.2878 -0.3110
16687SOL    HW154908   4.068   9.832   1.667  0.7276 -0.5802 -1.2880
16687SOL    HW254909   4.035   9.883   1.528 -0.6672  1.2558 -0.3031
16688SOL     OW54910   2.541   1.072   1.137  0.0051  0.5224  0.0616
16688SOL    HW154911   2.522   1.029   1.054  1.8955  0.5222 -0.4319
16688SOL    HW254912   2.490   1.024   1.202  1.7358 -2.3561 -0.5047
16689SOL     OW54913   2.368   8.733   0.374  0.3950  0.1562  0.3212
16689SOL    HW154914   2.376   8.723   0.279 -0.0583  0.5298  0.2406
16689SOL    HW254915   2.458   8.746   0.404  1.0044 -3.3723  0.3828
16690SOL     OW54916   4.444   0.034   0.729  0.3274 -0.5888  0.0370
16690SOL    HW154917   4.422   0.115   0.684 -3.2894 -0.9309  0.8366
16690SOL    HW254918   4.536   0.043   0.752  0.6090  2.3246 -1.7406
16691SOL     OW54919   1.128   9.123   1.308 -0.0703 -0.1703 -0.9521
16691SOL    HW154920   1.070   9.177   1.362 -0.3720 -0.5611 -0.8775
16691SOL    HW254921   1.072   9.091   1.237  0.5447  1.1148 -2.0581
16692SOL     OW54922   5.849   8.990   9.236 -0.3647  0.2835 -0.3004
16692SOL    HW154923   5.793   9.061   9.206 -1.3937 -0.4451 -0.1495
16692SOL    HW254924   5.929   8.999   9.184 -1.2044  0.4367 -1.6222
16693SOL     OW54925   1.378   9.018   0.043 -0.3866 -0.2412  0.0966
16693SOL    HW154926   1.334   9.046   0.124  0.2472 -2.2947  1.2146
16693SOL    HW254927   1.334   9.067  -0.026 -2.7010 -0.2994  1.4272
16694SOL     OW54928   6.159   0.717   0.632 -0.2602  0.2823 -0.3043
16694SOL    HW154929   6.106   0.692   0.556  0.4475  1.4644 -1.2137
16694SOL    HW254930   6.225   0.777   0.597  1.6546 -1.0725  0.7868
16695SOL     OW54931   6.297   0.282   7.772 -0.4807 -0.1433  0.1182
16695SOL    HW154932   6.254   0.342   7.711 -2.1711 -0.7276  0.6669
16695SOL    HW254933   6.346   0.222   7.717  0.0941  0.8574 -0.5015
16696SOL     OW54934   4.605   0.843   2.270 -0.5691  0.3221  0.0035
16696SOL    HW154935   4.681   0.788   2.251 -0.4130  0.6269 -0.2681
16696SOL    HW254936   4.538   0.782   2.301 -0.6642 -0.1294 -1.0539
16697SOL     OW54937   3.943   1.364   1.880  0.3021 -0.3201 -0.2481
16697SOL    HW154938   3.992   1.331   1.955 -1.0560 -0.6139  0.5418
16697SOL    HW254939   3.861   1.395   1.917  0.3827  1.3667 -1.3644
16698SOL     OW54940   6.903   9.055   1.059  0.1145  0.2271  0.2357
16698SOL    HW154941   6.983   9.088   1.018 -0.1969  0.3349 -0.2825
16698SOL    HW254942   6.885   9.118   1.129  0.6205  0.0656  0.5152
16699SOL     OW54943   0.300   1.989   7.496  0.2026  0.1910  0.2064
16699SOL    HW154944   0.212   1.953   7.486  0.1941 -0.2394  1.6181
16699SOL    HW254945   0.302   2.025   7.585  1.3302  0.5617  0.0542
16700SOL     OW54946   3.891   0.266   2.023 -0.4990  0.2381 -0.2899
16700SOL    HW154947   3.799   0.241   2.017 -0.5249  0.0489  0.7192
16700SOL    HW254948   3.900   0.301   2.112  0.3367  0.5247 -0.4841
16701SOL     OW54949   5.640   7.990   0.284 -0.2051 -0.2244  0.3152
16701SOL    HW154950   5.670   7.906   0.317  1.8080 -1.1985 -3.3936
16701SOL    HW254951   5.550   7.974   0.257 -0.2342 -0.8486  0.7644
16702SOL     OW54952   4.744   8.478   2.015  0.7348  0.1776  0.6200
16702SOL    HW154953   4.672   8.415   2.015  0.9951 -0.2150 -1.5941
16702SOL    HW254954   4.704   8.560   2.045 -0.4593 -0.2286  0.2001
16703SOL     OW54955   5.144   1.393   8.099  0.2179 -0.0676 -0.4852
16703SOL    HW154956   5.072   1.409   8.159  0.8544  1.6709 -0.1169
16703SOL    HW254957   5.164   1.300   8.109 -0.5482 -0.0968  1.0287
16704SOL     OW54958   7.662   7.987   7.653 -0.2842 -0.1503  0.1403
16704SOL    HW154959   7.671   7.926   7.726  0.1074 -0.9908 -0.5863
16704SOL    HW254960   7.684   8.073   7.690  0.7143 -0.6796  0.8125
16705SOL     OW54961   4.192   0.740   1.565  0.0955  0.2040  0.2947
16705SOL    HW154962   4.272   0.756   1.616  0.5587 -0.0431 -0.3402
16705SOL    HW254963   4.121   0.772   1.621  0.6922  1.0644  0.5891
16706SOL     OW54964   5.321   6.598   2.543 -0.1292 -0.3227 -0.5165
16706SOL    HW154965   5.250   6.538   2.564 -0.3219  0.7125  2.1011
16706SOL    HW254966   5.316   6.666   2.610  2.0410  0.9226 -1.5027
16707SOL     OW54967   2.028   0.291   1.161 -0.4574  0.9588 -0.4513
16707SOL    HW154968   1.935   0.297   1.183 -0.4970  1.0850 -0.6549
16707SOL    HW254969   2.054   0.204   1.192 -0.4335  1.2506  0.3815
16708SOL     OW54970   7.656   1.298   2.450  0.1281 -0.2954 -0.2339
16708SOL    HW154971   7.631   1.218   2.496  0.6240 -0.1330  0.3278
16708SOL    HW254972   7.612   1.292   2.365 -2.7694  0.4959  1.0991
16709SOL     OW54973   3.740   3.074   5.647  0.2916  0.0694 -0.2461
16709SOL    HW154974   3.648   3.049   5.658  0.3352  0.2665  0.7060
16709SOL    HW254975   3.782   2.997   5.610 -0.2400 -0.0521 -0.6027
16710SOL     OW54976   6.155   1.795   2.664 -0.0622 -0.6210 -0.1879
16710SOL    HW154977   6.183   1.787   2.755 -0.2122  0.7830  0.0053
16710SOL    HW254978   6.230   1.764   2.613 -0.4592 -2.6862  0.4083
16711SOL     OW54979   4.020   9.084   2.658 -0.1202  0.1452  0.2955
16711SOL    HW154980   3.931   9.049   2.651 -0.5538  0.9287  1.5238
16711SOL    HW254981   4.030   9.140   2.581 -0.1487 -1.0427 -0.6084
16712SOL     OW54982   2.596   1.199   2.952  0.1884  0.2324 -0.0391
16712SOL    HW154983   2.666   1.234   3.007  1.4105 -0.2582 -1.2042
16712SOL    HW254984   2.558   1.128   3.002  3.4135 -2.3741 -0.9623
16713SOL     OW54985   4.827   0.812   2.522  0.2174 -0.3280 -0.1017
16713SOL    HW154986   4.741   0.774   2.543  0.3882  0.4063  2.1992
16713SOL    HW254987   4.810   0.867   2.445 -1.5153  0.2381  0.6210
16714SOL     OW54988   2.733   0.169   2.109 -0.2316 -0.2042 -0.2438
16714SOL    HW154989   2.755   0.253   2.148  1.0741  0.0163 -1.4078
16714SOL    HW254990   2.725   0.187   2.015 -0.8763 -1.2000 -0.3975
16715SOL     OW54991   4.814   1.060   5.196  0.0472  0.0564  0.8562
16715SOL    HW154992   4.799   1.154   5.205 -0.7902  0.2730 -1.8098
16715SOL    HW254993   4.798   1.043   5.103 -0.8551 -2.9169  1.4682
16716SOL     OW54994   5.672   9.659   5.319 -0.4782 -0.1527 -0.5435
16716SOL    HW154995   5.678   9.752   5.299 -0.9549  0.2140  0.9076
16716SOL    HW254996   5.578   9.640   5.314 -0.5355 -0.2183  0.4737
16717SOL     OW54997   1.431   7.725   4.808 -0.4297  0.4696 -0.0410
16717SOL    HW154998   1.473   7.668   4.744  1.0876  0.5646  0.8105
16717SOL    HW254999   1.345   7.745   4.771  0.2152  0.1195 -1.7874
16718SOL     OW55000   7.857   9.145   3.960 -0.2732  0.1488  0.0182
16718SOL    HW155001   7.776   9.094   3.964 -0.3902  0.2576 -0.7555
16718SOL    HW255002   7.925   9.082   3.937 -0.2963  0.2102 -0.2259
16719SOL     OW55003   3.191   7.884   2.118 -0.7667 -0.0355  0.3762
16719SOL    HW155004   3.273   7.856   2.078 -1.1485  0.3354 -0.6729
16719SOL    HW255005   3.216   7.954   2.178 -0.1199 -0.9828  1.2533
16720SOL     OW55006   3.478   0.551   3.363  0.5090  0.1807 -0.3541
16720SOL    HW155007   3.536   0.623   3.339  0.4306 -0.1751 -1.7186
16720SOL    HW255008   3.390   0.582   3.338  0.4396 -0.2614 -0.6665
16721SOL     OW55009   5.508   1.150   3.780 -0.1926 -0.2373  0.1269
16721SOL    HW155010   5.454   1.212   3.732  0.3114  0.7768  0.8163
16721SOL    HW255011   5.565   1.111   3.713 -1.2582 -0.7764 -0.4814
16722SOL     OW55012   3.136   1.113   3.384 -0.1170 -0.1452  0.1988
16722SOL    HW155013   3.081   1.188   3.359  2.3772  1.4706 -0.7974
16722SOL    HW255014   3.133   1.056   3.307 -2.4324 -1.4480  1.1473
16723SOL     OW55015   4.716   0.667   3.741 -0.3189 -0.0841  0.3181
16723SOL    HW155016   4.741   0.759   3.738  0.3578 -0.1522  2.1346
16723SOL    HW255017   4.622   0.666   3.727 -0.2032  0.7772 -0.6162
16724SOL     OW55018   3.882   9.828   4.069 -0.1374 -0.2552  0.0959
16724SOL    HW155019   3.880   9.816   4.164 -0.7230 -0.3117  0.0770
16724SOL    HW255020   3.819   9.765   4.035  0.1110 -0.2732 -0.3393
16725SOL     OW55021   4.890   8.997   2.837  0.3922  0.1091  0.8624
16725SOL    HW155022   4.871   9.044   2.756  1.2210 -0.0959  0.5364
16725SOL    HW255023   4.908   9.065   2.902 -0.3307  0.2754  0.8871
16726SOL     OW55024   2.711   0.279   3.099 -0.4432 -0.5069 -0.6071
16726SOL    HW155025   2.703   0.308   3.190 -1.5657  0.1873 -0.8997
16726SOL    HW255026   2.667   0.348   3.049  0.0646 -0.9420 -1.6636
16727SOL     OW55027   3.584   1.077   1.449  0.4981 -0.7694 -0.2029
16727SOL    HW155028   3.526   1.152   1.462 -1.0428 -2.1712  1.5149
16727SOL    HW255029   3.670   1.108   1.478 -0.1303  0.3173  0.5682
16728SOL     OW55030   2.523   2.264   3.906  0.4179 -0.2666  0.1659
16728SOL    HW155031   2.450   2.276   3.846 -1.2146 -1.7208  1.7640
16728SOL    HW255032   2.585   2.210   3.857 -0.2325 -0.2505 -0.7050
16729SOL     OW55033   6.166   1.762   2.933 -0.2951 -0.2087  0.7243
16729SOL    HW155034   6.124   1.803   3.009 -0.9907 -1.4307  1.0211
16729SOL    HW255035   6.259   1.755   2.957 -0.6017 -1.0884  1.7014
16730SOL     OW55036   3.811   1.035   2.357  0.3128  0.2724 -0.6592
16730SOL    HW155037   3.879   0.980   2.318 -0.3245 -1.8947  1.0342
16730SOL    HW255038   3.793   0.993   2.441  1.0188  4.1870  1.6489
16731SOL     OW55039   4.206   8.571   2.709 -0.5928 -0.0383 -0.0596
16731SOL    HW155040   4.240   8.501   2.764 -0.0378  1.7747  2.0758
16731SOL    HW255041   4.112   8.556   2.705 -0.5951 -0.4158  1.1234
16732SOL     OW55042   3.850   1.471   9.359  0.0875  0.1250  0.2441
16732SOL    HW155043   3.869   1.443   9.449 -0.5154  1.1646  0.7143
16732SOL    HW255044   3.755   1.486   9.359  0.3920  2.3615  0.1071
16733SOL     OW55045   4.608   8.601   1.313  0.1841  0.0858 -0.5578
16733SOL    HW155046   4.564   8.686   1.314  0.1567  0.0708 -0.0927
16733SOL    HW255047   4.569   8.555   1.238 -1.7306 -0.5035  0.7135
16734SOL     OW55048   2.912   9.245   1.158 -0.0933 -0.0248  0.3817
16734SOL    HW155049   2.872   9.262   1.243 -0.0053  1.6497  0.1083
16734SOL    HW255050   2.837   9.233   1.099 -0.1591  0.0657  0.4466
16735SOL     OW55051   5.109   1.462   2.194  0.3003 -0.2596 -0.5635
16735SOL    HW155052   5.164   1.514   2.135  0.2192  0.4791 -0.0010
16735SOL    HW255053   5.074   1.393   2.138  1.9392 -0.8771 -0.8883
16736SOL     OW55054   4.408   1.137   5.023 -0.1575 -0.2242 -0.4175
16736SOL    HW155055   4.418   1.058   5.076  2.2405  1.2458  1.4912
16736SOL    HW255056   4.428   1.209   5.082 -1.9514  1.8622 -2.1819
16737SOL     OW55057   5.169   8.318   2.828 -0.0649 -0.4137  0.2345
16737SOL    HW155058   5.143   8.236   2.870  0.3114 -0.2773  0.7579
16737SOL    HW255059   5.262   8.329   2.852 -0.3637  0.6509  1.0231
16738SOL     OW55060   3.756   8.479   0.822 -0.2626 -0.9200  0.2617
16738SOL    HW155061   3.750   8.498   0.729 -2.4157  1.3527  0.7571
16738SOL    HW255062   3.827   8.535   0.854 -2.4625  1.8730  0.6343
16739SOL     OW55063   5.457   6.925   1.766 -0.6195 -0.4330  0.5362
16739SOL    HW155064   5.514   6.937   1.690  0.7708 -1.9480  1.2972
16739SOL    HW255065   5.369   6.915   1.729  0.0443 -1.2291 -0.8911
16740SOL     OW55066   4.859   8.540   1.446 -0.2737 -0.0096 -0.5224
16740SOL    HW155067   4.831   8.606   1.509  0.2241 -0.2642 -0.0235
16740SOL    HW255068   4.783   8.527   1.389 -0.8815 -0.0798  0.2863
16741SOL     OW55069   4.063   0.536   1.013  0.0008 -0.1261  0.4242
16741SOL    HW155070   3.997   0.528   1.082 -0.4339 -1.0185 -0.0821
16741SOL    HW255071   4.146   0.537   1.061 -0.2704 -1.1964  0.9597
16742SOL     OW55072   2.161   2.289   3.418  0.3488  0.4415  0.4617
16742SOL    HW155073   2.183   2.370   3.464  1.1741  0.2191  0.4782
16742SOL    HW255074   2.086   2.312   3.363 -0.1785  0.8964  1.3616
16743SOL     OW55075   3.549   0.942   2.181 -0.3877  0.1076  0.1691
16743SOL    HW155076   3.642   0.918   2.180 -0.4942 -0.3174  0.4745
16743SOL    HW255077   3.528   0.959   2.089 -0.0662 -0.0232  0.0695
16744SOL     OW55078   5.121   9.488   2.116  0.2473  0.5947  0.2655
16744SOL    HW155079   5.029   9.493   2.140 -0.2869  1.0975 -1.6859
16744SOL    HW255080   5.135   9.396   2.093  0.6467  0.2072  1.9635
16745SOL     OW55081   5.712   8.616   2.337  0.5282 -0.2860 -0.0396
16745SOL    HW155082   5.714   8.594   2.244  0.3341 -1.1965  0.1539
16745SOL    HW255083   5.622   8.641   2.354  1.2207  3.1250 -0.7562
16746SOL     OW55084   6.938   5.290   1.337 -0.0077 -0.0087 -0.2162
16746SOL    HW155085   6.970   5.212   1.383 -0.3946 -0.7693 -1.1815
16746SOL    HW255086   6.908   5.348   1.406  0.5125 -0.6206  0.5419
16747SOL     OW55087   2.919   8.171   3.196  0.2483 -0.4608 -0.4326
16747SOL    HW155088   2.880   8.213   3.273 -1.0815  0.8169 -1.7372
16747SOL    HW255089   2.923   8.078   3.219  1.7701  0.0924  1.9230
16748SOL     OW55090   5.797   0.572   5.007 -0.2425 -0.2194  0.4352
16748SOL    HW155091   5.784   0.482   4.978 -0.0120 -0.5571  1.3491
16748SOL    HW255092   5.855   0.565   5.082 -0.5772  0.6560  0.7875
16749SOL     OW55093   4.839   8.966   2.274 -0.0301  0.6152 -0.1127
16749SOL    HW155094   4.829   9.056   2.245  2.9568  0.6298 -1.5633
16749SOL    HW255095   4.917   8.967   2.330 -1.5166 -0.6773  2.1119
16750SOL     OW55096   3.899   9.624   2.523 -0.2468 -0.1139 -0.4307
16750SOL    HW155097   3.904   9.577   2.607 -1.0086 -0.3513 -0.5085
16750SOL    HW255098   3.900   9.554   2.458 -3.4717 -0.2452 -0.5006
16751SOL     OW55099   2.157   1.099   3.327 -0.1182  0.0491  0.2477
16751SOL    HW155100   2.108   1.180   3.315  0.6008  0.4199 -0.2392
16751SOL    HW255101   2.211   1.114   3.404  0.9365  0.5110 -0.5580
16752SOL     OW55102   4.981   9.424   1.070 -0.5236 -0.3512  0.1438
16752SOL    HW155103   4.907   9.366   1.052  1.5263 -2.8385 -0.9196
16752SOL    HW255104   5.056   9.381   1.029  1.4342  2.3878  0.5460
16753SOL     OW55105   2.489   2.127   0.269 -0.2707 -0.0318 -0.1671
16753SOL    HW155106   2.549   2.133   0.343  0.9529 -2.4551 -0.8729
16753SOL    HW255107   2.405   2.102   0.309  0.1267 -0.3575  0.4910
16754SOL     OW55108   3.791   1.674   1.950  0.3006  0.4476 -0.1738
16754SOL    HW155109   3.877   1.642   1.979 -0.7705 -2.8700 -0.2437
16754SOL    HW255110   3.758   1.723   2.025  1.3806 -0.0816  0.6860
16755SOL     OW55111   4.473   8.426   0.355 -0.2502 -0.1595 -0.0076
16755SOL    HW155112   4.449   8.440   0.446 -1.1549 -2.6729  0.2368
16755SOL    HW255113   4.398   8.380   0.317  2.0114 -3.7878 -0.5908
16756SOL     OW55114   4.379   0.194   3.716  0.3705  0.2287  0.3760
16756SOL    HW155115   4.430   0.130   3.666  0.2084  1.9286 -2.1636
16756SOL    HW255116   4.445   0.247   3.761  0.5815 -0.4771  0.9207
16757SOL     OW55117   3.501   6.035   3.517  0.6721 -0.2066  0.4663
16757SOL    HW155118   3.483   5.974   3.446  0.2145  1.4841 -0.9678
16757SOL    HW255119   3.591   6.017   3.543  0.7033 -1.1468 -0.2652
16758SOL     OW55120   5.273   2.528   4.770  0.2360 -0.3049 -0.2852
16758SOL    HW155121   5.262   2.570   4.856 -0.6937 -0.3762 -0.3553
16758SOL    HW255122   5.231   2.442   4.780  1.4762 -0.9538 -0.3640
16759SOL     OW55123   3.499   9.067   2.489  0.2300  0.1718 -0.7057
16759SOL    HW155124   3.500   9.077   2.394 -1.0544  1.2524 -0.6395
16759SOL    HW255125   3.446   9.141   2.520 -1.0850 -1.2851  0.6833
16760SOL     OW55126   5.587   7.434   2.518  0.4543  0.2986  0.3610
16760SOL    HW155127   5.523   7.405   2.453 -0.8518 -1.3694  2.2268
16760SOL    HW255128   5.659   7.471   2.468 -1.7963  1.9224 -1.8768
16761SOL     OW55129   4.880   0.025   3.904 -0.3852 -0.1143 -0.0702
16761SOL    HW155130   4.947   0.033   3.836  0.6744  1.7907  1.1218
16761SOL    HW255131   4.825   0.102   3.893 -2.1090 -1.3787 -0.6713
16762SOL     OW55132   3.426   9.221   3.998  0.0708  0.3708  0.2004
16762SOL    HW155133   3.478   9.286   3.951 -2.0537  2.1990  0.2321
16762SOL    HW255134   3.461   9.222   4.087  0.3061  1.2311  0.1072
16763SOL     OW55135   7.002   9.145   2.425 -0.0633  0.2797  0.2039
16763SOL    HW155136   6.929   9.199   2.457 -0.0524 -0.1099  0.8960
16763SOL    HW255137   7.078   9.178   2.472  0.1401  0.3975 -0.2018
16764SOL     OW55138   5.669   6.935   5.329 -0.4160 -0.1945  0.4025
16764SOL    HW155139   5.653   6.860   5.271 -2.7599  1.7603 -1.6906
16764SOL    HW255140   5.603   6.926   5.398  0.3694 -0.8603  1.0962
16765SOL     OW55141   2.906   0.458   2.514  0.2574  0.5406 -0.1276
16765SOL    HW155142   2.973   0.416   2.461  0.1675 -0.0994  0.2515
16765SOL    HW255143   2.946   0.467   2.601  0.1957  1.0479 -0.1458
16766SOL     OW55144   4.012   7.587   4.739  0.8683  0.1875 -0.4165
16766SOL    HW155145   3.978   7.660   4.687  0.9618  0.2011 -0.4598
16766SOL    HW255146   4.105   7.608   4.750  0.6928  0.5760  0.3993
16767SOL     OW55147   4.856   8.533   2.370 -0.0008  0.4222 -0.4085
16767SOL    HW155148   4.820   8.444   2.376  0.9590 -0.0460 -1.2732
16767SOL    HW255149   4.786   8.583   2.328 -0.3183 -0.0625 -0.4732
16768SOL     OW55150   2.776   9.205   4.994  0.1182  0.7048 -0.8184
16768SOL    HW155151   2.722   9.142   4.947  0.2196 -0.7203  0.8941
16768SOL    HW255152   2.842   9.232   4.931  1.0487 -2.1272 -1.1955
16769SOL     OW55153   5.249   9.504   0.006 -0.8245  0.1646  0.4715
16769SOL    HW155154   5.232   9.410   0.003 -0.0454  0.0003  0.8064
16769SOL    HW255155   5.341   9.512  -0.019  0.4443  0.4267  4.5626
16770SOL     OW55156   3.412   0.246   2.783  0.1552  0.1262  0.4390
16770SOL    HW155157   3.371   0.330   2.761  1.6842  1.1614  1.3567
16770SOL    HW255158   3.461   0.222   2.705 -1.1119 -0.4897 -0.2080
16771SOL     OW55159   4.691   0.432   1.955 -0.7224 -0.1868  0.2252
16771SOL    HW155160   4.734   0.351   1.983 -0.8377 -0.1690  0.4558
16771SOL    HW255161   4.606   0.403   1.922 -0.0297 -0.3758 -1.4713
16772SOL     OW55162   5.015   2.944   0.506  0.3651  0.5430  0.1662
16772SOL    HW155163   4.925   2.915   0.495 -0.2746  1.7575  1.6781
16772SOL    HW255164   5.025   3.016   0.444 -0.2145  1.3677  1.0022
16773SOL     OW55165   3.420   9.355   2.412 -0.5751 -0.5726 -0.7065
16773SOL    HW155166   3.344   9.371   2.469 -0.8059 -2.0661 -0.5515
16773SOL    HW255167   3.455   9.442   2.393 -2.2891  0.1553 -0.7244
16774SOL     OW55168   5.589   1.054   9.751  0.5062  0.4858 -0.2318
16774SOL    HW155169   5.502   1.051   9.790  0.2987 -0.9627 -0.7596
16774SOL    HW255170   5.576   1.095   9.666  0.3403  0.2602 -0.3146
16775SOL     OW55171   5.569   2.069   3.441  0.0435  0.1856 -0.3979
16775SOL    HW155172   5.483   2.033   3.463  1.1368 -2.4788 -0.1759
16775SOL    HW255173   5.629   2.029   3.504  2.0990 -1.6298 -3.2994
16776SOL     OW55174   3.413   8.836   4.273  0.4641 -0.3358  0.5606
16776SOL    HW155175   3.385   8.798   4.356 -0.6315  0.1791  0.4483
16776SOL    HW255176   3.334   8.876   4.237  1.0876  0.0970 -0.3789
16777SOL     OW55177   3.603   8.162   3.638 -0.0695 -0.2339  0.2172
16777SOL    HW155178   3.577   8.207   3.719  0.9740  0.5209  0.1474
16777SOL    HW255179   3.520   8.138   3.597 -0.6305  0.2691  1.0217
16778SOL     OW55180   3.086   6.715   3.071  0.0220  0.0847 -0.5885
16778SOL    HW155181   3.117   6.710   3.162  0.2957  1.2780 -0.6029
16778SOL    HW255182   3.143   6.655   3.023 -0.5764 -1.1010  0.1252
16779SOL     OW55183   2.526   0.027   1.446  0.3823 -0.3094 -0.4417
16779SOL    HW155184   2.449   0.057   1.397 -0.9137  0.5324  1.9259
16779SOL    HW255185   2.492   0.002   1.532  2.7997  0.6111  0.8972
16780SOL     OW55186   2.577   7.101   1.772 -0.4373 -0.0703 -0.6251
16780SOL    HW155187   2.564   7.063   1.859  0.3427 -1.5896 -1.1290
16780SOL    HW255188   2.671   7.091   1.755 -0.6476 -0.2017 -1.8037
16781SOL     OW55189   2.702   9.083   4.562 -0.1631  0.2867  0.2612
16781SOL    HW155190   2.761   9.155   4.539 -0.5502  0.4171 -0.3616
16781SOL    HW255191   2.626   9.096   4.504  0.4974 -1.6125 -1.1311
16782SOL     OW55192   4.936   7.377   4.585  0.3989 -0.1627  0.0597
16782SOL    HW155193   4.898   7.364   4.499 -0.5685  0.5166  0.3636
16782SOL    HW255194   4.987   7.457   4.578  2.0275 -1.1841 -0.4053
16783SOL     OW55195   3.528   0.009   3.930  0.0137 -0.1536 -0.1903
16783SOL    HW155196   3.557  -0.052   3.998 -0.7142 -0.5294 -0.2076
16783SOL    HW255197   3.559   0.094   3.960 -0.2866 -0.3146  0.6164
16784SOL     OW55198   3.420   9.650   6.934  0.2050 -0.1951  0.4120
16784SOL    HW155199   3.452   9.617   6.850  0.5312  1.8399 -0.3038
16784SOL    HW255200   3.325   9.641   6.928  0.0892  1.4673 -0.9011
16785SOL     OW55201   4.240   1.203   4.811  0.1616  0.2434 -0.2365
16785SOL    HW155202   4.258   1.114   4.780  0.1851 -1.1634  3.3524
16785SOL    HW255203   4.284   1.209   4.895 -1.8854  2.7893  0.8084
16786SOL     OW55204   6.399   8.175   3.415  0.3101 -0.0041 -0.1473
16786SOL    HW155205   6.374   8.084   3.397  0.8310 -0.5371  1.6377
16786SOL    HW255206   6.449   8.201   3.338 -1.8538 -0.3779 -1.7907
16787SOL     OW55207   4.215   2.254   4.739 -0.2903  0.3374  0.9476
16787SOL    HW155208   4.121   2.255   4.721 -0.0929  5.2557 -1.3911
16787SOL    HW255209   4.223   2.209   4.823 -4.7710  0.0525  1.4329
16788SOL     OW55210   5.250   7.575   2.556  0.6498  0.6904 -0.1765
16788SOL    HW155211   5.206   7.658   2.572 -0.7792  0.1725 -1.2477
16788SOL    HW255212   5.192   7.509   2.592  0.3961 -0.0250 -1.7991
16789SOL     OW55213   2.675   0.595   3.998  0.3898  0.3948 -0.0567
16789SOL    HW155214   2.588   0.633   3.984  0.7685  1.1304 -0.4746
16789SOL    HW255215   2.672   0.561   4.088 -0.9450 -1.3096 -0.6913
16790SOL     OW55216   5.702   9.524   4.423  0.1406 -0.1682  0.8212
16790SOL    HW155217   5.735   9.507   4.511 -0.4858 -0.0248  1.0906
16790SOL    HW255218   5.678   9.438   4.389  1.7164 -0.4051  0.2300
16791SOL     OW55219   3.745   0.750   4.577 -0.2835 -0.4147 -0.3816
16791SOL    HW155220   3.679   0.819   4.577 -0.8408 -0.9447 -0.8108
16791SOL    HW255221   3.828   0.796   4.563 -0.1868  0.5884  2.6349
16792SOL     OW55222   6.129   9.231   6.044 -0.1856 -0.2321 -0.3115
16792SOL    HW155223   6.134   9.143   6.007 -1.8575  0.2241 -1.7294
16792SOL    HW255224   6.037   9.255   6.035  0.0520  1.2858  0.9830
16793SOL     OW55225   5.519   9.697   4.692  0.1639 -0.5278  0.1450
16793SOL    HW155226   5.539   9.613   4.732 -0.3712 -0.3678  0.7789
16793SOL    HW255227   5.463   9.741   4.757  0.4892  0.3371 -0.1468
16794SOL     OW55228   6.182   9.707   3.431  0.3402 -0.1412 -0.1524
16794SOL    HW155229   6.160   9.797   3.406  1.2575  0.0166 -0.4364
16794SOL    HW255230   6.179   9.658   3.349  1.9100  0.0751 -0.3586
16795SOL     OW55231   6.451   9.236   4.159 -0.4086 -0.3256 -0.4324
16795SOL    HW155232   6.539   9.211   4.132 -0.4833 -0.8316 -0.2151
16795SOL    HW255233   6.459   9.257   4.252 -0.7680 -1.6926 -0.0657
16796SOL     OW55234   5.255   1.454   5.501 -0.6488 -0.2904  0.3355
16796SOL    HW155235   5.286   1.454   5.592  0.6277  1.8735 -0.0346
16796SOL    HW255236   5.174   1.505   5.503  0.2183  1.1749  0.0805
16797SOL     OW55237   5.517   7.964   3.828  0.0599 -0.2906  0.1601
16797SOL    HW155238   5.518   7.966   3.924 -2.0258  0.2472  0.2054
16797SOL    HW255239   5.476   8.047   3.802  1.5543  0.0666 -1.2646
16798SOL     OW55240   2.502   9.548   2.965  0.1217  0.4053 -0.0401
16798SOL    HW155241   2.503   9.506   2.879  0.0503  0.6029 -0.1373
16798SOL    HW255242   2.412   9.576   2.977  0.2910  1.0452 -0.2259
16799SOL     OW55243   4.667   9.573   5.911 -0.5109 -0.1491 -0.1603
16799SOL    HW155244   4.652   9.481   5.935 -2.2816 -0.0318 -0.6626
16799SOL    HW255245   4.720   9.569   5.831  1.9619 -0.6224  1.4014
16800SOL     OW55246   4.049   8.649   4.856  0.2388 -0.5284 -0.4691
16800SOL    HW155247   4.077   8.739   4.873  0.2256 -0.4146 -1.0441
16800SOL    HW255248   4.017   8.650   4.766 -3.8157 -0.0924  0.7586
16801SOL     OW55249   5.092   7.700   2.123  0.6369 -0.1599 -0.2212
16801SOL    HW155250   5.179   7.666   2.147  0.9011  1.4235  1.2313
16801SOL    HW255251   5.101   7.726   2.031  1.2152 -1.4431 -0.5510
16802SOL     OW55252   4.405   9.683   5.269  0.0666 -0.2402 -0.6522
16802SOL    HW155253   4.388   9.740   5.195  0.6151  1.8605  0.7575
16802SOL    HW255254   4.482   9.631   5.243  0.2172  0.4260 -1.5670
16803SOL     OW55255   3.626   9.405   5.428 -0.1079 -0.2472 -0.3679
16803SOL    HW155256   3.706   9.353   5.427  0.6471  0.8087  0.6883
16803SOL    HW255257   3.657   9.496   5.431 -1.3118  0.1645  0.8201
16804SOL     OW55258   7.238   9.406   4.494 -0.1703 -0.3362 -0.2246
16804SOL    HW155259   7.270   9.337   4.437  0.7417 -0.4195  0.3618
16804SOL    HW255260   7.228   9.363   4.579  0.8759  0.3384  0.2646
16805SOL     OW55261   6.741   8.427   7.300 -0.0294  0.4337  0.2138
16805SOL    HW155262   6.694   8.370   7.359  1.1461 -0.6350  0.1648
16805SOL    HW255263   6.772   8.499   7.355  1.4155 -0.7642  1.0305
16806SOL     OW55264   5.019   8.968   3.811  0.7352  0.3614 -0.2947
16806SOL    HW155265   5.023   9.030   3.738 -0.4473  0.3933 -0.3520
16806SOL    HW255266   4.947   8.909   3.788 -0.2997  0.9503  1.2846
16807SOL     OW55267   6.453   7.708   2.946 -0.2291  0.1881  0.1585
16807SOL    HW155268   6.526   7.735   2.890 -0.1800  0.1191  0.1892
16807SOL    HW255269   6.441   7.615   2.927 -0.4473  0.2465 -0.0037
16808SOL     OW55270   4.925   9.594   5.169  0.0246 -0.5299 -0.1138
16808SOL    HW155271   4.910   9.648   5.091  0.4883  1.0109  0.8290
16808SOL    HW255272   4.841   9.592   5.214  0.2627  0.3219  0.3919
16809SOL     OW55273   3.172   0.491   4.489 -0.4080  0.1626 -0.3798
16809SOL    HW155274   3.229   0.458   4.558 -0.0889 -1.7201 -1.4746
16809SOL    HW255275   3.129   0.567   4.527  1.5023  0.5831  1.0814
16810SOL     OW55276   2.978   9.072   7.035 -0.4117 -0.0673  0.1162
16810SOL    HW155277   2.886   9.049   7.051 -0.2987 -1.1966 -0.6923
16810SOL    HW255278   2.976   9.164   7.008 -1.5083 -0.4760 -1.3598
16811SOL     OW55279   3.730   9.615   4.599  0.7866 -0.1385  0.6367
16811SOL    HW155280   3.776   9.682   4.649  1.3906  0.3666 -0.5526
16811SOL    HW255281   3.776   9.612   4.515  0.2200 -1.4331  0.3522
16812SOL     OW55282   5.922   9.418   4.176 -0.3472 -0.4540 -0.5238
16812SOL    HW155283   5.994   9.448   4.121 -0.0834 -1.3016 -0.6558
16812SOL    HW255284   5.897   9.495   4.226  3.4250 -0.9994  2.6871
16813SOL     OW55285   4.710   7.416   0.453 -0.0894  0.0769  0.8621
16813SOL    HW155286   4.630   7.422   0.505 -2.2284  1.9692 -2.3365
16813SOL    HW255287   4.721   7.503   0.416  1.3334 -1.0925 -1.7237
16814SOL     OW55288   5.459   9.572   5.017 -0.5587 -0.3280  0.3477
16814SOL    HW155289   5.503   9.534   4.941 -1.3011 -0.1094 -0.2097
16814SOL    HW255290   5.449   9.664   4.994 -0.3115 -0.1505  0.9475
16815SOL     OW55291   3.146   8.168   4.689  0.2298 -0.1596  0.6083
16815SOL    HW155292   3.084   8.240   4.701  0.1058 -0.6554  4.4776
16815SOL    HW255293   3.165   8.138   4.778  2.9572 -2.6843 -0.6303
16816SOL     OW55294   3.427   9.106   6.489 -0.2846  0.0966  0.2190
16816SOL    HW155295   3.401   9.198   6.500 -1.3096 -0.3257  1.5635
16816SOL    HW255296   3.479   9.106   6.409  0.5299  2.0089  0.6805
16817SOL     OW55297   2.912   7.897   5.090  0.1182  0.0581 -0.2388
16817SOL    HW155298   2.946   7.970   5.142  1.2139 -2.0001  2.1468
16817SOL    HW255299   2.989   7.858   5.049 -0.2341 -0.6238 -0.2692
16818SOL     OW55300   6.729   9.535   5.182 -0.0037 -0.0263  0.1395
16818SOL    HW155301   6.689   9.560   5.265 -1.4250 -1.7175  0.0069
16818SOL    HW255302   6.817   9.574   5.185 -0.1296  0.1877  2.2803
16819SOL     OW55303   6.123   7.526   2.929 -0.0534  0.1039 -1.0124
16819SOL    HW155304   6.198   7.526   2.869 -0.1942 -1.5107 -1.2452
16819SOL    HW255305   6.055   7.574   2.882  0.2265 -0.1035 -1.6402
16820SOL     OW55306   5.053   8.051   3.891  0.0566  0.5791 -0.1908
16820SOL    HW155307   5.072   8.078   3.801  2.4206  1.1314  0.3960
16820SOL    HW255308   5.098   8.116   3.945  1.3550 -1.4694  1.3361
16821SOL     OW55309   5.905   8.947   4.637  0.6058 -0.3029  0.4910
16821SOL    HW155310   5.899   8.891   4.559  2.2077  1.0851 -0.7103
16821SOL    HW255311   5.883   9.035   4.605  2.1862  0.4517  1.3508
16822SOL     OW55312   5.248   8.158   4.536  0.4857 -0.2188 -0.3096
16822SOL    HW155313   5.212   8.108   4.463 -1.0446 -0.5443  0.6183
16822SOL    HW255314   5.237   8.249   4.512  1.8012 -0.2923 -1.3080
16823SOL     OW55315   4.996   6.965   6.859 -0.3026 -0.2121 -0.1959
16823SOL    HW155316   4.902   6.979   6.865  0.0789  2.8542  0.2907
16823SOL    HW255317   5.018   6.987   6.769  0.1506  0.9926  0.1870
16824SOL     OW55318   3.977   9.608   5.932  0.8567  0.0691  0.0756
16824SOL    HW155319   3.990   9.693   5.891  1.1861 -1.3284 -2.9697
16824SOL    HW255320   4.058   9.560   5.914  0.6688 -0.9498  1.7057
16825SOL     OW55321   6.752   9.290   5.790  0.4160 -0.0674  0.0444
16825SOL    HW155322   6.704   9.276   5.871 -1.0492 -0.5387 -0.8715
16825SOL    HW255323   6.688   9.325   5.729  1.1821 -0.8558 -1.2708
16826SOL     OW55324   4.862   9.673   4.650  0.1100 -0.7625  0.0066
16826SOL    HW155325   4.864   9.620   4.729  0.5273  0.5784  0.9312
16826SOL    HW255326   4.886   9.761   4.679 -1.1873  0.0970 -1.3508
16827SOL     OW55327   3.937   6.374   3.158 -0.1647  0.2306 -0.1265
16827SOL    HW155328   4.017   6.392   3.109 -1.1580  3.9939 -0.7164
16827SOL    HW255329   3.870   6.364   3.091 -0.8382  1.3263  0.3422
16828SOL     OW55330   3.954   0.709   4.805  0.7902 -0.0837  0.3807
16828SOL    HW155331   3.905   0.706   4.887  0.0587  0.4447 -0.0222
16828SOL    HW255332   3.988   0.798   4.800 -1.9589  0.9904 -1.4224
16829SOL     OW55333   5.783   1.112   2.131 -0.4027 -1.0329 -0.2282
16829SOL    HW155334   5.769   1.017   2.132  0.3243 -1.1382  0.3639
16829SOL    HW255335   5.718   1.147   2.191  0.0423 -1.2644  0.3968
16830SOL     OW55336   6.503   6.793   2.444  0.4810  0.4705  0.4314
16830SOL    HW155337   6.573   6.857   2.430  0.4516  0.3583 -0.2722
16830SOL    HW255338   6.465   6.781   2.357  0.2686 -0.2541  0.6238
16831SOL     OW55339   3.778   7.135   4.516 -0.1507 -0.1780  0.5208
16831SOL    HW155340   3.823   7.182   4.586 -0.0190  2.6005 -1.2842
16831SOL    HW255341   3.701   7.097   4.558  0.4166  0.6146  2.3535
16832SOL     OW55342   5.213   9.449   4.980 -0.4671 -0.1308  0.0070
16832SOL    HW155343   5.305   9.477   4.984 -0.6587  0.6271 -0.6761
16832SOL    HW255344   5.204   9.408   4.895 -1.2367  1.6108 -0.7969
16833SOL     OW55345   2.473   7.798   6.688  0.2258 -0.0722 -0.2888
16833SOL    HW155346   2.554   7.761   6.725 -0.5615 -0.4223  1.1644
16833SOL    HW255347   2.481   7.784   6.594  0.3751 -3.2308  0.0797
16834SOL     OW55348   4.717   9.273   5.075  0.1798  0.8142 -0.2816
16834SOL    HW155349   4.805   9.247   5.046 -0.7228  1.8277 -4.6448
16834SOL    HW255350   4.671   9.190   5.087  0.9614  0.2737 -0.8943
16835SOL     OW55351   4.672   0.272   4.346 -0.7159 -0.0646 -0.0603
16835SOL    HW155352   4.613   0.286   4.421 -1.4732 -1.5360 -0.3446
16835SOL    HW255353   4.614   0.271   4.270  0.0232  1.1572 -0.6637
16836SOL     OW55354   4.100   0.932   4.566 -0.2226 -0.7034 -0.1709
16836SOL    HW155355   4.112   0.842   4.537  0.6373 -1.0257  1.1042
16836SOL    HW255356   4.184   0.974   4.550  0.3679 -0.9576  1.9558
16837SOL     OW55357   2.068   8.805   2.729 -0.5011 -0.0558  0.1823
16837SOL    HW155358   2.142   8.745   2.736 -0.6988 -0.2070  1.0512
16837SOL    HW255359   2.003   8.757   2.677 -0.0409  0.0338 -0.4848
16838SOL     OW55360   2.738   8.601   5.252 -0.5029 -0.0285 -0.0562
16838SOL    HW155361   2.695   8.657   5.317 -0.3206  1.3462 -1.0707
16838SOL    HW255362   2.739   8.654   5.173 -0.4071 -1.5326 -1.1001
16839SOL     OW55363   6.384   8.961   6.479 -0.1116  0.0116  0.2101
16839SOL    HW155364   6.437   9.015   6.538 -0.4915  0.7110 -0.0774
16839SOL    HW255365   6.411   8.987   6.391 -0.3157 -0.2507  0.0666
16840SOL     OW55366   4.021   0.586   2.005 -0.0512 -0.0454  0.4227
16840SOL    HW155367   3.992   0.559   1.918  0.1251  2.6833 -0.5765
16840SOL    HW255368   3.961   0.542   2.065 -1.5540 -0.3283 -1.2027
16841SOL     OW55369   3.230   8.899   4.085  0.1755 -0.3554  0.0967
16841SOL    HW155370   3.201   8.974   4.034  1.5762  0.1199 -0.0638
16841SOL    HW255371   3.268   8.839   4.021 -2.3268 -1.9640  0.0244
16842SOL     OW55372   5.286   8.037   6.046 -0.0364 -0.1186  0.2663
16842SOL    HW155373   5.344   7.961   6.050 -0.9528 -0.7824  1.7250
16842SOL    HW255374   5.309   8.090   6.122  0.0793  0.6892 -0.3184
16843SOL     OW55375   5.115   8.672   1.559  0.2588  0.3324 -0.3926
16843SOL    HW155376   5.132   8.592   1.509  2.9427  0.7639 -0.2889
16843SOL    HW255377   5.074   8.731   1.495 -2.1191 -1.1545 -0.3711
16844SOL     OW55378   3.733   8.763   7.562  0.1546 -0.2712 -0.4909
16844SOL    HW155379   3.754   8.708   7.486 -1.3244 -1.8618  0.1953
16844SOL    HW255380   3.813   8.813   7.578  0.7836 -0.5164 -2.5521
16845SOL     OW55381   4.751   9.566   1.893 -0.1086 -0.0377  0.0444
16845SOL    HW155382   4.733   9.648   1.847 -0.1347 -1.0919 -1.9487
16845SOL    HW255383   4.827   9.529   1.847 -0.0453 -1.0966  0.9550
16846SOL     OW55384   3.818   9.320   3.055 -0.3497 -0.7662  0.0010
16846SOL    HW155385   3.890   9.369   3.095 -0.8822  0.2064 -0.1911
16846SOL    HW255386   3.784   9.265   3.126  0.1238 -0.7101  0.2798
16847SOL     OW55387   5.301   8.700   5.910 -0.2328  0.1384  0.3458
16847SOL    HW155388   5.271   8.767   5.848 -1.1992 -0.5349  0.0552
16847SOL    HW255389   5.397   8.705   5.907 -0.2875  1.9825  0.8657
16848SOL     OW55390   0.674   8.582   6.120 -0.2275 -0.0136 -1.2164
16848SOL    HW155391   0.589   8.539   6.122 -0.9897  1.0177 -4.7636
16848SOL    HW255392   0.659   8.667   6.162 -0.3542 -0.6256  0.0248
16849SOL     OW55393   3.623   9.828   6.028  0.1931  0.1513 -1.0574
16849SOL    HW155394   3.543   9.880   6.033  0.5261  0.5843  2.3211
16849SOL    HW255395   3.693   9.894   6.026  0.5292 -0.0945  0.6733
16850SOL     OW55396   3.643   0.411   7.385  0.5370  0.0428  0.2151
16850SOL    HW155397   3.631   0.352   7.311  2.6053 -0.5365  0.2876
16850SOL    HW255398   3.628   0.499   7.349  1.0758 -0.2719 -0.8004
16851SOL     OW55399   4.204   0.273   5.072  0.3106  0.8440  0.0821
16851SOL    HW155400   4.115   0.306   5.061 -0.3243 -0.9130 -0.3668
16851SOL    HW255401   4.255   0.321   5.006 -0.4786  1.2259 -0.2637
16852SOL     OW55402   4.307   0.671   8.429 -0.6286 -0.4515 -0.3634
16852SOL    HW155403   4.371   0.601   8.414 -1.6238 -1.3099 -0.7473
16852SOL    HW255404   4.249   0.668   8.352 -0.9604  0.4945 -0.1679
16853SOL     OW55405   5.281   9.754   7.792  0.1605  0.2675  0.0173
16853SOL    HW155406   5.365   9.709   7.790  0.0198 -0.0323 -2.3562
16853SOL    HW255407   5.300   9.842   7.758 -0.2597  0.6610  0.7812
16854SOL     OW55408   4.393   0.217   5.902 -0.1932  0.4994 -0.3058
16854SOL    HW155409   4.400   0.204   5.807  2.0680  1.0901 -0.2737
16854SOL    HW255410   4.431   0.303   5.917  2.3744 -0.8023  1.3989
16855SOL     OW55411   3.226   0.520   7.638 -0.1168  0.5768  0.2954
16855SOL    HW155412   3.318   0.494   7.635 -0.3867 -0.5116  0.8021
16855SOL    HW255413   3.225   0.611   7.610  1.3303  1.1695  2.0409
16856SOL     OW55414   4.709   0.495   8.784  0.1340 -0.2220  0.1849
16856SOL    HW155415   4.712   0.578   8.737  0.8649  0.3318  1.1673
16856SOL    HW255416   4.790   0.450   8.761  0.0154 -0.4076  0.1186
16857SOL     OW55417   4.989   0.721   4.744  0.2816 -0.4725  0.1748
16857SOL    HW155418   4.917   0.688   4.798  1.2271  0.4922  2.0709
16857SOL    HW255419   4.970   0.814   4.733 -1.1957 -0.9955 -3.3293
16858SOL     OW55420   2.595   3.013   8.216 -0.2797  0.2898  0.3136
16858SOL    HW155421   2.594   2.929   8.171 -1.7163  1.0928 -1.2797
16858SOL    HW255422   2.513   3.014   8.266 -0.6339  0.9883 -0.2508
16859SOL     OW55423   5.085   9.402   6.758 -0.3263 -0.7047 -0.6074
16859SOL    HW155424   5.158   9.434   6.705  2.6741  1.8106  4.2246
16859SOL    HW255425   5.117   9.320   6.795 -1.1986 -1.0884 -0.6992
16860SOL     OW55426   4.942   8.804   5.525  0.2371 -0.5780  0.2301
16860SOL    HW155427   4.870   8.856   5.559  0.1988  0.7676 -1.7818
16860SOL    HW255428   4.980   8.857   5.455  3.3345 -1.1206  1.3214
16861SOL     OW55429   3.467   9.497   6.715 -0.3225 -0.0927  0.5289
16861SOL    HW155430   3.451   9.557   6.642 -0.1020  0.2304  0.7439
16861SOL    HW255431   3.560   9.506   6.735 -0.6671  0.9281  1.8115
16862SOL     OW55432   5.997   8.249   5.544 -0.4706  0.2654 -0.5475
16862SOL    HW155433   6.038   8.292   5.469  1.2540  0.3420  0.3941
16862SOL    HW255434   6.016   8.306   5.618 -1.9837  0.0907  0.0220
16863SOL     OW55435   3.348   9.382   6.368 -0.3191  0.7050 -0.2520
16863SOL    HW155436   3.285   9.428   6.313 -2.4522 -0.2055  1.2863
16863SOL    HW255437   3.402   9.452   6.406 -0.2618  1.4990 -1.7267
16864SOL     OW55438   5.429   9.310   8.271 -0.0080 -0.4994 -0.7039
16864SOL    HW155439   5.380   9.311   8.353  0.3048  0.5565 -0.5064
16864SOL    HW255440   5.488   9.385   8.278 -0.9984  0.5045 -2.4938
16865SOL     OW55441   5.453   9.185   4.370  0.3337  0.8291 -0.4200
16865SOL    HW155442   5.530   9.199   4.315  1.3489 -1.7919  0.2034
16865SOL    HW255443   5.476   9.221   4.455  1.5175 -1.1705  0.1712
16866SOL     OW55444   4.441   0.605   5.819  0.1848 -0.2228  0.1499
16866SOL    HW155445   4.461   0.687   5.774 -1.2760 -0.7048 -1.5085
16866SOL    HW255446   4.474   0.617   5.908 -0.9009  2.5686  0.2748
16867SOL     OW55447   4.600   7.819   8.016  0.8275 -0.1848 -0.2038
16867SOL    HW155448   4.614   7.877   7.941  3.5978 -1.7625 -1.0527
16867SOL    HW255449   4.541   7.868   8.073 -1.3410  1.1507 -3.2960
16868SOL     OW55450   5.748   8.520   6.150 -0.6562  0.3660  0.2610
16868SOL    HW155451   5.752   8.597   6.206 -0.9476  0.3349  0.3273
16868SOL    HW255452   5.789   8.547   6.068 -1.1281  0.7244  0.1349
16869SOL     OW55453   4.717   8.336   4.059  0.3843 -0.5152  0.5984
16869SOL    HW155454   4.678   8.332   3.972  1.9861  0.8245 -0.2571
16869SOL    HW255455   4.683   8.417   4.097  0.0803 -0.8383  1.0244
16870SOL     OW55456   3.732   8.492   7.645  0.1272  0.0144  0.1171
16870SOL    HW155457   3.669   8.504   7.716  0.1397  4.1687 -0.3410
16870SOL    HW255458   3.724   8.571   7.592  1.9978 -1.7266 -3.0575
16871SOL     OW55459   4.070   0.954   6.022 -0.0759  0.0195  0.5762
16871SOL    HW155460   3.986   0.940   6.064  0.1690 -0.5816  0.8742
16871SOL    HW255461   4.132   0.901   6.073  0.4458  0.3001  0.2451
16872SOL     OW55462   3.806   1.016   7.817 -0.8284 -0.6461  0.3109
16872SOL    HW155463   3.842   1.104   7.825 -1.7475 -0.3566  1.5874
16872SOL    HW255464   3.841   0.968   7.892 -0.6844 -1.2522 -0.1314
16873SOL     OW55465   4.465   0.720   8.066 -0.3911 -0.3329  0.8344
16873SOL    HW155466   4.449   0.665   7.990 -1.6479  0.7461  0.2651
16873SOL    HW255467   4.560   0.731   8.069 -0.1548 -2.1896  0.7533
16874SOL     OW55468   5.595   1.123   5.977 -0.0938 -0.1404 -0.3652
16874SOL    HW155469   5.623   1.213   5.995 -0.2534  0.1567 -1.5618
16874SOL    HW255470   5.532   1.104   6.046  0.8542  0.2186  0.6297
16875SOL     OW55471   5.289   8.386   7.118  0.1217  0.6983 -0.8631
16875SOL    HW155472   5.205   8.378   7.163  0.1707 -0.1508 -0.9193
16875SOL    HW255473   5.275   8.343   7.034  0.7682  0.0873 -0.6607
16876SOL     OW55474   3.924   8.625   6.343 -0.7687 -0.6944  0.0842
16876SOL    HW155475   3.877   8.680   6.406  1.5920  0.2062  1.1493
16876SOL    HW255476   3.986   8.684   6.301  2.1845 -2.5021  1.5986
16877SOL     OW55477   5.858   9.090   6.428  0.2771  0.4732  0.4613
16877SOL    HW155478   5.839   9.129   6.343 -0.7089 -1.1054 -0.0862
16877SOL    HW255479   5.848   9.162   6.490  2.2028  1.9692 -0.8178
16878SOL     OW55480   5.561   9.097   6.067 -0.5372  0.0266  0.0393
16878SOL    HW155481   5.640   9.066   6.023 -0.3286  1.4450 -0.6408
16878SOL    HW255482   5.586   9.182   6.103 -1.9673  0.8853 -0.8911
16879SOL     OW55483   2.835   6.551   6.370  0.3945 -0.1735 -0.0749
16879SOL    HW155484   2.897   6.567   6.442 -1.2422  1.3415  1.0954
16879SOL    HW255485   2.796   6.466   6.391 -1.4011  1.0497  1.9756
16880SOL     OW55486   6.294   8.135   7.281  0.1050 -0.0759 -0.2200
16880SOL    HW155487   6.221   8.152   7.341  0.1606 -1.3164  0.2160
16880SOL    HW255488   6.265   8.174   7.198  0.2210  2.0921  0.6711
16881SOL     OW55489   5.747   8.166   6.646 -0.4647  0.2164  0.1460
16881SOL    HW155490   5.703   8.167   6.731 -1.5870 -0.0708 -0.4123
16881SOL    HW255491   5.678   8.186   6.583 -0.3215 -2.4182 -0.9769
16882SOL     OW55492   3.202   0.130   7.566 -0.4253  0.3347 -0.3545
16882SOL    HW155493   3.121   0.118   7.516  1.2453 -0.3446 -3.1186
16882SOL    HW255494   3.236   0.214   7.536  0.0163  0.5226  0.6366
16883SOL     OW55495   3.481   8.447   4.747  0.0291 -0.6521 -0.2153
16883SOL    HW155496   3.456   8.376   4.688 -1.8695  1.2855 -1.9276
16883SOL    HW255497   3.432   8.430   4.827 -0.8951 -0.9556 -0.8312
16884SOL     OW55498   3.781   1.316   6.470  0.2659  0.0476  0.4155
16884SOL    HW155499   3.812   1.250   6.408 -0.4533 -2.1001  2.2442
16884SOL    HW255500   3.697   1.344   6.434  0.8025  0.4131 -0.6317
16885SOL     OW55501   2.863   9.602   6.950 -0.1362  0.2309 -0.1148
16885SOL    HW155502   2.780   9.626   6.992  0.1643 -0.2889  0.8192
16885SOL    HW255503   2.840   9.583   6.860 -1.3572 -1.6278  0.5349
16886SOL     OW55504   6.368   2.241   5.275  0.3169  0.3040 -0.2388
16886SOL    HW155505   6.330   2.231   5.187  1.1639 -0.5090 -0.5286
16886SOL    HW255506   6.371   2.152   5.310  2.6216  0.2077 -0.5315
16887SOL     OW55507   6.297   8.843   8.911  0.0918 -0.6326 -0.0611
16887SOL    HW155508   6.333   8.829   8.823 -0.9327  0.3931 -0.6633
16887SOL    HW255509   6.258   8.758   8.934 -0.0080 -0.7896 -0.7779
16888SOL     OW55510   5.168   2.279   4.482  0.0998 -0.1700  0.6282
16888SOL    HW155511   5.105   2.300   4.412 -1.5145  2.1434  2.6179
16888SOL    HW255512   5.252   2.310   4.448 -1.0811  3.4790  0.5920
16889SOL     OW55513   2.613   6.870   6.771 -0.1997 -1.0523 -0.0253
16889SOL    HW155514   2.536   6.895   6.721 -0.2491 -0.2068  0.4608
16889SOL    HW255515   2.598   6.906   6.858  1.8678  1.3608 -0.5757
16890SOL     OW55516   5.364   7.757   6.538 -0.2955  0.4754 -0.0923
16890SOL    HW155517   5.323   7.779   6.622 -1.7657 -1.4695 -0.2326
16890SOL    HW255518   5.383   7.664   6.544 -0.5977  0.2487 -1.9791
16891SOL     OW55519   3.651   0.853   6.539  0.6027  0.3489  0.0108
16891SOL    HW155520   3.599   0.896   6.471  0.2183  0.7466  0.5430
16891SOL    HW255521   3.612   0.884   6.621  1.6554  0.6145  0.4204
16892SOL     OW55522   3.139   0.831   4.916 -0.2638  0.3234 -0.6157
16892SOL    HW155523   3.134   0.817   4.821  0.4141  0.7338 -0.7140
16892SOL    HW255524   3.195   0.908   4.926 -1.2703  1.0009  0.0668
16893SOL     OW55525   4.163   1.530   7.176 -0.2335  0.3606  0.0803
16893SOL    HW155526   4.191   1.570   7.094  0.4658 -0.8176 -0.2759
16893SOL    HW255527   4.104   1.460   7.150  1.6289 -1.4158  0.4007
16894SOL     OW55528   3.380   2.274   6.395  0.4132  0.5025 -0.3534
16894SOL    HW155529   3.394   2.231   6.479 -1.7183  2.0147  0.8538
16894SOL    HW255530   3.357   2.202   6.335  0.0146 -0.4019  0.8453
16895SOL     OW55531   6.024   9.259   5.685  0.1376 -0.0975  0.2366
16895SOL    HW155532   6.018   9.339   5.632  0.1648 -1.1045 -1.3600
16895SOL    HW255533   5.978   9.192   5.634  2.5846 -1.8065  0.0743
16896SOL     OW55534   5.970   9.686   6.305 -0.2999 -0.0995  0.2693
16896SOL    HW155535   5.900   9.748   6.324  0.1333  0.0400  1.5231
16896SOL    HW255536   5.936   9.602   6.335 -0.3790 -0.2482 -0.2238
16897SOL     OW55537   4.158   9.367   5.511 -0.6311 -0.5197  0.0538
16897SOL    HW155538   4.090   9.329   5.456 -0.5587  1.4533 -1.5078
16897SOL    HW255539   4.116   9.376   5.597 -1.9229 -0.5136 -0.5459
16898SOL     OW55540   6.155   0.296   6.615 -0.2438 -0.3700  0.3085
16898SOL    HW155541   6.155   0.386   6.583  1.1529 -0.4801 -0.0501
16898SOL    HW255542   6.064   0.267   6.604 -0.1505  0.0833 -2.2139
16899SOL     OW55543   4.039   9.238   8.031 -0.0964 -0.0941  0.2891
16899SOL    HW155544   3.962   9.183   8.044 -0.3842  0.6633  1.9676
16899SOL    HW255545   4.004   9.324   8.010  0.3525 -0.2977 -1.5501
16900SOL     OW55546   4.914   0.266   5.423  0.0427  0.1203  0.0956
16900SOL    HW155547   4.889   0.356   5.404  0.0523  0.2064  0.4909
16900SOL    HW255548   4.873   0.246   5.507 -1.7072 -0.9320 -0.9396
16901SOL     OW55549   3.717   9.612   6.155  0.1179 -0.0192  0.5106
16901SOL    HW155550   3.686   9.698   6.128  0.4096 -0.2945 -0.7525
16901SOL    HW255551   3.789   9.592   6.096  1.4326 -0.2502  2.1255
16902SOL     OW55552   4.731   7.194   5.901 -0.5495 -0.4449  0.3850
16902SOL    HW155553   4.676   7.182   5.978 -0.8593  0.1229  0.2521
16902SOL    HW255554   4.737   7.289   5.890 -0.4605 -0.5218 -0.2547
16903SOL     OW55555   4.148   6.784   7.022  0.4724  0.7433  0.2211
16903SOL    HW155556   4.145   6.688   7.020 -0.2909  0.7123 -3.0113
16903SOL    HW255557   4.239   6.805   7.043  0.6632 -0.6718  0.9081
16904SOL     OW55558   4.374   9.437   5.841  0.4301 -0.6177 -0.0057
16904SOL    HW155559   4.300   9.498   5.840 -0.0649 -1.1999 -1.1113
16904SOL    HW255560   4.434   9.471   5.775  1.1424 -0.1750  0.8566
16905SOL     OW55561   3.712   0.635   5.373 -0.6531  0.2642 -0.6244
16905SOL    HW155562   3.649   0.638   5.301  0.1506 -3.7928 -1.7582
16905SOL    HW255563   3.662   0.662   5.450 -2.9140  0.0797 -1.9395
16906SOL     OW55564   5.121   1.197   6.920 -0.4908 -0.4981 -0.1377
16906SOL    HW155565   5.058   1.203   6.848 -1.9915 -1.7886  1.0099
16906SOL    HW255566   5.068   1.203   6.999  1.0044 -0.1867  0.8912
16907SOL     OW55567   6.568   9.481   6.231 -0.0683  0.6105 -0.2430
16907SOL    HW155568   6.563   9.524   6.145 -0.7202  0.0805 -0.4818
16907SOL    HW255569   6.488   9.429   6.236  0.2709  0.1409  0.4254
16908SOL     OW55570   5.831   9.228   5.217 -0.2478 -0.6081  0.2228
16908SOL    HW155571   5.831   9.287   5.142 -4.0970  1.2487  1.4119
16908SOL    HW255572   5.909   9.174   5.205  0.9606  1.5735 -3.4423
16909SOL     OW55573   4.862   9.576   7.687  1.1797 -0.0058  0.2729
16909SOL    HW155574   4.848   9.661   7.731  1.6530  1.1404 -1.6796
16909SOL    HW255575   4.955   9.560   7.696  1.1890 -0.0272  0.1263
16910SOL     OW55576   4.209   7.451   7.363 -0.5223 -0.2414  0.4332
16910SOL    HW155577   4.277   7.389   7.337 -1.3727 -0.9050 -0.3142
16910SOL    HW255578   4.136   7.431   7.304 -1.6043 -0.0356  1.6663
16911SOL     OW55579   3.880   9.313   8.310  0.0296 -0.4769  0.1399
16911SOL    HW155580   3.934   9.234   8.303  0.9739 -0.0287  1.7397
16911SOL    HW255581   3.927   9.378   8.258  0.3248 -0.4488  0.4373
16912SOL     OW55582   4.430   0.115   8.398 -0.0500 -0.8140  0.2917
16912SOL    HW155583   4.525   0.127   8.398  0.0382 -1.4134  0.7315
16912SOL    HW255584   4.407   0.104   8.306  0.2525 -0.2666  0.1485
16913SOL     OW55585   3.819   8.790   1.265  0.0080 -0.0767  0.1117
16913SOL    HW155586   3.897   8.754   1.307  0.0432  0.7528  0.7968
16913SOL    HW255587   3.746   8.755   1.316  0.0353  0.6706  0.6806
16914SOL     OW55588   5.888   0.014   8.992 -0.2128 -0.1382 -0.0091
16914SOL    HW155589   5.961   0.059   9.034 -0.2974 -0.2220  0.2298
16914SOL    HW255590   5.917  -0.077   8.983 -0.3636 -0.2159  0.2708
16915SOL     OW55591   4.933   9.088   7.837  0.6680  0.4730  0.0547
16915SOL    HW155592   4.989   9.152   7.792  0.4765  1.1961  0.8203
16915SOL    HW255593   4.970   9.003   7.812  0.7805  0.8549 -1.1794
16916SOL     OW55594   4.768   0.376   9.688 -0.2186  0.2059 -0.2124
16916SOL    HW155595   4.711   0.347   9.618 -0.5763  0.0189  0.1532
16916SOL    HW255596   4.852   0.332   9.671 -0.5833 -0.5930  0.0122
16917SOL     OW55597   3.435   0.402   7.146  0.0072 -0.0635 -1.1046
16917SOL    HW155598   3.372   0.432   7.213 -1.1210 -1.0019 -1.7024
16917SOL    HW255599   3.471   0.322   7.183  1.3488  0.7860 -0.4978
16918SOL     OW55600   4.097   1.203   9.168 -0.2203 -0.2657  0.3314
16918SOL    HW155601   4.121   1.157   9.248  1.0035  0.3096  0.3239
16918SOL    HW255602   4.059   1.135   9.112 -3.8555 -0.1715  2.3927
16919SOL     OW55603   5.171   0.428   8.333 -0.1075 -0.5174  0.2292
16919SOL    HW155604   5.238   0.390   8.276  0.8823  1.5523 -0.0938
16919SOL    HW255605   5.129   0.495   8.280  0.3682  0.9903  1.6490
16920SOL     OW55606   2.037   0.872   0.737  0.0719  0.0419  0.0844
16920SOL    HW155607   2.130   0.851   0.733  0.0652 -0.1254  0.7436
16920SOL    HW255608   2.028   0.929   0.813  0.0003  2.0433 -1.3281
16921SOL     OW55609   6.059   0.131   9.179  0.5664 -0.3088  0.5158
16921SOL    HW155610   6.147   0.124   9.141  0.0914  1.5826 -1.0934
16921SOL    HW255611   6.047   0.225   9.195 -0.8809 -0.6161  1.4773
16922SOL     OW55612   5.951   0.121   9.430 -0.1319 -0.3701 -0.4179
16922SOL    HW155613   5.890   0.060   9.470  0.0732  0.4671  1.2750
16922SOL    HW255614   5.970   0.084   9.344 -1.4196 -1.7010 -0.1654
16923SOL     OW55615   6.458   9.088   1.568 -0.2242 -0.1342  0.1539
16923SOL    HW155616   6.469   9.170   1.616 -0.7127  0.5440 -0.8551
16923SOL    HW255617   6.478   9.111   1.477 -0.5481 -1.0820 -0.1653
16924SOL     OW55618   4.053   2.285   8.145 -0.3148  0.1172  0.3578
16924SOL    HW155619   4.011   2.336   8.075 -1.6299 -2.3623 -0.7801
16924SOL    HW255620   3.996   2.210   8.158  1.7847 -1.3752  1.5829
16925SOL     OW55621   4.152   0.450   1.414  0.2406 -0.1962 -0.3109
16925SOL    HW155622   4.165   0.542   1.439  0.9899  0.4021 -2.5719
16925SOL    HW255623   4.079   0.453   1.352  1.3855 -0.8034 -1.7585
16926SOL     OW55624   6.158   8.907   9.228 -0.1373  0.0261 -0.0504
16926SOL    HW155625   6.144   8.965   9.303  0.5773 -0.6702  0.6271
16926SOL    HW255626   6.190   8.825   9.266  1.4192  0.0622 -1.1967
16927SOL     OW55627   4.236   0.773   7.538 -0.7813  0.6028  0.0107
16927SOL    HW155628   4.280   0.847   7.498 -0.9114  2.2648  2.6796
16927SOL    HW255629   4.292   0.698   7.519 -0.3190  1.4419 -2.2158
16928SOL     OW55630   3.583   9.745   5.062  0.0238 -0.8427  0.1881
16928SOL    HW155631   3.581   9.772   4.970  0.4367  1.8006  0.8954
16928SOL    HW255632   3.648   9.803   5.103 -2.2719  0.1184  2.7286
16929SOL     OW55633   5.082   8.839   7.432  0.7866  0.4848 -0.5003
16929SOL    HW155634   5.139   8.912   7.455  0.6437  0.0684  1.2969
16929SOL    HW255635   5.126   8.796   7.358  0.6150  2.6389 -1.9598
16930SOL     OW55636   5.053   9.820   1.335 -0.1177  0.0574 -0.3789
16930SOL    HW155637   5.085   9.790   1.250  1.1029 -1.7519  0.6363
16930SOL    HW255638   5.042   9.914   1.325  1.2983  0.0872 -2.1479
16931SOL     OW55639   2.862   0.175   8.823  0.4762 -0.4335  0.5252
16931SOL    HW155640   2.955   0.187   8.842  0.1948 -0.4904  2.1050
16931SOL    HW255641   2.817   0.215   8.898 -0.7506 -0.8433  0.0322
16932SOL     OW55642   5.002   9.818   9.201 -0.7433 -0.1874  0.0837
16932SOL    HW155643   5.098   9.817   9.209 -0.7578 -1.1690  0.2173
16932SOL    HW255644   4.984   9.776   9.117 -1.0899 -0.8171  0.4699
16933SOL     OW55645   6.497   0.751   6.359 -0.2790 -0.4123  0.0027
16933SOL    HW155646   6.449   0.723   6.282  0.5914 -3.2063  0.3615
16933SOL    HW255647   6.576   0.696   6.360  0.2307  0.2277  2.3227
16934SOL     OW55648   5.085   0.071   7.508 -0.1710  0.2883  0.0669
16934SOL    HW155649   5.175   0.093   7.484 -0.2172  1.4919  0.8916
16934SOL    HW255650   5.042   0.156   7.517 -0.4993 -0.1034  3.0065
16935SOL     OW55651   5.610   0.597   9.231  0.4184  0.1519 -0.1029
16935SOL    HW155652   5.533   0.568   9.183  1.3195 -0.4095 -1.2476
16935SOL    HW255653   5.574   0.648   9.305 -1.1000 -1.8462  0.6198
16936SOL     OW55654   4.354   8.482   5.183 -0.6073 -0.0511  0.0703
16936SOL    HW155655   4.333   8.437   5.100 -0.4255 -1.3578  0.6980
16936SOL    HW255656   4.299   8.438   5.248 -1.4400  1.5885  0.5167
16937SOL     OW55657   4.064   0.868   7.214 -0.1104  0.5239  0.0516
16937SOL    HW155658   4.058   0.846   7.121  0.9382 -0.1546  0.1373
16937SOL    HW255659   4.128   0.938   7.217 -0.8174  1.1810  0.1797
16938SOL     OW55660   4.077   9.719   9.234 -0.3486  0.7340 -0.5919
16938SOL    HW155661   4.148   9.678   9.184 -1.4620 -0.3479 -1.3578
16938SOL    HW255662   4.017   9.753   9.168 -1.5239 -0.1430 -0.0270
16939SOL     OW55663   5.495   0.812   9.370  0.1042  0.2776 -0.1498
16939SOL    HW155664   5.491   0.906   9.354 -0.5694  0.3604  0.3961
16939SOL    HW255665   5.436   0.799   9.445 -0.0188 -0.6099 -0.3889
16940SOL     OW55666   3.566   9.062   8.380 -0.1012  0.3760  0.3948
16940SOL    HW155667   3.590   9.117   8.305  0.3600  0.1819  0.3984
16940SOL    HW255668   3.547   9.124   8.450  0.8540  0.5297  0.5301
16941SOL     OW55669   6.345   8.433   0.083  0.2671 -0.2938  0.3687
16941SOL    HW155670   6.279   8.455   0.149 -2.3866  1.8011 -2.6496
16941SOL    HW255671   6.341   8.338   0.076 -1.4037 -0.3255  1.2540
16942SOL     OW55672   4.710   0.526   9.084  0.0480 -0.2344  0.3218
16942SOL    HW155673   4.714   0.545   8.990 -1.6623 -0.1925  0.2152
16942SOL    HW255674   4.669   0.439   9.089  0.9601 -0.6380  1.0171
16943SOL     OW55675   4.293   9.403   6.825 -0.6517  0.1918 -0.2827
16943SOL    HW155676   4.359   9.469   6.803  0.6917 -0.8106  0.5633
16943SOL    HW255677   4.333   9.320   6.801 -1.6324 -0.4381  0.1990
16944SOL     OW55678   5.926   7.565   1.201 -0.3304  0.1559 -0.3332
16944SOL    HW155679   6.005   7.557   1.149 -1.2931 -1.4615 -1.6456
16944SOL    HW255680   5.930   7.492   1.264  0.1536  1.2623  0.9598
16945SOL     OW55681   4.025   9.182   8.678  0.4807 -0.3852  0.3774
16945SOL    HW155682   3.949   9.225   8.638  0.6169  0.0212  0.5430
16945SOL    HW255683   4.010   9.192   8.772  0.6588 -0.4445  0.4103
16946SOL     OW55684   4.547   0.255   8.695  0.0371 -0.2192 -0.6169
16946SOL    HW155685   4.523   0.169   8.729 -1.6297  0.6115  0.3837
16946SOL    HW255686   4.615   0.287   8.755 -0.4763 -0.1732 -0.0582
16947SOL     OW55687   3.818   8.565   8.488  0.7390 -0.4970  0.7228
16947SOL    HW155688   3.781   8.637   8.438  0.9576 -0.2801  0.8732
16947SOL    HW255689   3.860   8.509   8.422 -1.4840 -1.7662  0.3026
16948SOL     OW55690   3.207   8.750   7.937  0.1410  0.5413  0.2321
16948SOL    HW155691   3.274   8.782   7.877  0.1327  1.7749  0.8446
16948SOL    HW255692   3.157   8.829   7.961 -1.3021 -0.2898  0.0687
16949SOL     OW55693   7.213   0.353   7.919  0.3706 -0.2288 -0.1366
16949SOL    HW155694   7.293   0.341   7.970  0.5349 -0.0590 -0.3482
16949SOL    HW255695   7.204   0.273   7.868 -1.0424 -1.3993  1.8287
16950SOL     OW55696   5.015   9.296   6.275 -0.6320  0.2703  0.2540
16950SOL    HW155697   4.951   9.353   6.318  1.1504  1.2903  1.6825
16950SOL    HW255698   5.066   9.258   6.346  0.3682 -0.5330 -0.8399
16951SOL     OW55699   4.485   1.031   6.643  0.1133  0.2227 -0.4136
16951SOL    HW155700   4.558   1.083   6.609 -0.4958  1.1081 -0.4178
16951SOL    HW255701   4.519   0.993   6.724  1.0030 -0.4814 -1.0915
16952SOL     OW55702   4.784   0.894   8.622 -0.1825 -0.3383 -0.3214
16952SOL    HW155703   4.733   0.813   8.614 -1.6120  0.1944  2.3496
16952SOL    HW255704   4.871   0.865   8.648 -0.2984 -1.0596 -0.7052
16953SOL     OW55705   4.659   8.361   8.588  0.1191 -0.0612  0.3291
16953SOL    HW155706   4.569   8.376   8.561  0.1670  0.2135  0.3176
16953SOL    HW255707   4.689   8.445   8.622  0.4061 -0.1227  0.2366
16954SOL     OW55708   6.023   0.597   9.499 -0.6539  0.2265  0.0968
16954SOL    HW155709   6.075   0.648   9.562  0.4935  1.0675 -1.4712
16954SOL    HW255710   5.952   0.655   9.474 -1.1475 -0.1327  0.6372
16955SOL     OW55711   3.706   0.020   7.881  0.1159 -0.0036 -0.4232
16955SOL    HW155712   3.630   0.043   7.934 -1.2735 -0.1523 -2.2248
16955SOL    HW255713   3.775  -0.003   7.944 -0.7689  1.8142  1.3017
16956SOL     OW55714   4.043   9.521   0.769 -0.0657 -0.0209 -0.2463
16956SOL    HW155715   4.121   9.576   0.764  0.7608 -1.1483 -0.0986
16956SOL    HW255716   4.038   9.494   0.861 -0.7357  0.1972 -0.2158
16957SOL     OW55717   4.606   9.319   6.293  0.1476 -0.5201  0.1011
16957SOL    HW155718   4.651   9.272   6.222 -0.4855 -1.8689  0.5575
16957SOL    HW255719   4.563   9.393   6.250  0.8565 -0.5659 -0.7084
16958SOL     OW55720   5.369   0.273   0.212  0.2759  1.0389  0.2116
16958SOL    HW155721   5.343   0.323   0.134  1.2268  1.3380  0.0842
16958SOL    HW255722   5.350   0.182   0.189 -0.5505  1.2329  0.0797
16959SOL     OW55723   5.495   9.207   8.032  0.1457 -0.6230  0.2806
16959SOL    HW155724   5.590   9.199   8.021  0.1744  1.3379 -1.4901
16959SOL    HW255725   5.485   9.249   8.118  0.9666  0.1633  0.0107
16960SOL     OW55726   6.979   0.206   9.226  0.3566  0.1485  0.1169
16960SOL    HW155727   6.968   0.115   9.200  2.1660  0.4380 -1.9295
16960SOL    HW255728   6.902   0.250   9.190 -0.0856 -0.4114  0.3588
16961SOL     OW55729   3.659   1.153   9.130  0.7412 -0.0455  0.0635
16961SOL    HW155730   3.684   1.084   9.190 -2.4155 -0.0363  1.5823
16961SOL    HW255731   3.602   1.110   9.066  0.4809  0.7373 -0.2508
16962SOL     OW55732   2.859   7.882   0.242  0.5299  0.2325 -0.1440
16962SOL    HW155733   2.796   7.814   0.217  0.2104  0.1974  0.7426
16962SOL    HW255734   2.805   7.959   0.259  0.8003  0.4155 -0.1144
16963SOL     OW55735   6.379   8.872   1.341 -0.0882 -0.2127 -0.7856
16963SOL    HW155736   6.451   8.912   1.293 -0.8918  0.9915 -1.0280
16963SOL    HW255737   6.405   8.780   1.351  0.3411 -0.4082 -3.1046
16964SOL     OW55738   3.208   0.445   8.308  0.1625  0.3593  0.3720
16964SOL    HW155739   3.191   0.395   8.388  2.2505  1.1846  1.4095
16964SOL    HW255740   3.187   0.385   8.237  1.1003 -1.4801  1.5725
16965SOL     OW55741   2.065   9.438   7.692 -0.9470  0.0043  0.5629
16965SOL    HW155742   1.992   9.377   7.702  0.6612 -2.0287  0.6002
16965SOL    HW255743   2.030   9.522   7.720 -3.6728 -0.5744 -0.7588
16966SOL     OW55744   4.584   9.594   9.131 -0.1184  0.1291 -0.9532
16966SOL    HW155745   4.563   9.606   9.224 -1.0492  0.1135 -1.1468
16966SOL    HW255746   4.499   9.581   9.089  0.3255 -0.2720 -1.7545
16967SOL     OW55747   4.346   2.671   7.758 -0.9406  0.4122 -0.1193
16967SOL    HW155748   4.341   2.742   7.693  1.2371  0.2999 -0.4892
16967SOL    HW255749   4.308   2.595   7.714 -1.4072  0.8514 -0.4848
16968SOL     OW55750   8.011   8.514   8.964  0.4395  0.3638 -0.4510
16968SOL    HW155751   7.979   8.571   9.033  0.8002 -0.4965  0.4550
16968SOL    HW255752   8.056   8.572   8.903  0.1070  1.1338  0.0215
16969SOL     OW55753   5.468   1.212   8.166 -0.2302  0.5924  0.4809
16969SOL    HW155754   5.406   1.142   8.147  1.0202 -0.2627 -0.6382
16969SOL    HW255755   5.445   1.240   8.254 -1.1944 -0.7772  0.7095
16970SOL     OW55756   4.588   8.440   9.058  0.2264 -0.3383 -0.5687
16970SOL    HW155757   4.639   8.482   9.127 -0.5117  2.0824 -1.3770
16970SOL    HW255758   4.497   8.458   9.082 -0.0685 -0.3814 -1.6215
16971SOL     OW55759   3.157   0.133   8.782 -0.1008  0.6726 -0.5123
16971SOL    HW155760   3.229   0.069   8.778 -1.1263 -0.5341 -0.3295
16971SOL    HW255761   3.144   0.147   8.876  0.6737  1.8357 -0.5561
16972SOL     OW55762   3.641   8.967   7.932  0.6397  0.0418 -0.4533
16972SOL    HW155763   3.572   9.031   7.913  1.3069  0.7632 -0.5339
16972SOL    HW255764   3.598   8.900   7.985  0.2333  1.2745  0.8356
16973SOL     OW55765   3.918   8.282   7.989 -0.2159 -0.3125  0.0897
16973SOL    HW155766   3.932   8.297   8.083  0.8118 -1.5203  0.1479
16973SOL    HW255767   3.824   8.266   7.982 -0.1582 -1.2537  1.0949
16974SOL     OW55768   4.138   8.217   9.461 -0.0866  0.0400  0.2841
16974SOL    HW155769   4.057   8.267   9.469  0.2132  0.7092 -0.6715
16974SOL    HW255770   4.156   8.186   9.550 -1.2926  0.0265  0.5386
16975SOL     OW55771   7.025   0.843   8.940 -0.2266  0.0193 -0.6869
16975SOL    HW155772   7.040   0.762   8.989 -1.1150  0.4073  0.2794
16975SOL    HW255773   7.109   0.888   8.941 -0.6252  0.9144  2.2399
16976SOL     OW55774   3.659   3.472   6.934  0.2047  0.0389  0.7184
16976SOL    HW155775   3.580   3.452   6.883 -0.2367 -0.1193  1.4341
16976SOL    HW255776   3.665   3.400   6.997  1.8999 -0.8724 -0.4047
16977SOL     OW55777   4.295   9.448   5.143 -0.0625 -0.0359  0.3752
16977SOL    HW155778   4.333   9.518   5.196 -0.2908 -0.2161  0.7907
16977SOL    HW255779   4.369   9.409   5.097 -0.0742  1.1486 -0.6790
16978SOL     OW55780   6.257   8.984   9.820 -0.7998  0.1819  0.3136
16978SOL    HW155781   6.343   9.018   9.843  0.0812 -1.0210 -1.0267
16978SOL    HW255782   6.196   9.051   9.849  0.7493  2.2243 -0.9061
16979SOL     OW55783   3.731   9.659   9.208  0.4082  0.0907 -0.7504
16979SOL    HW155784   3.753   9.751   9.222  1.4991  0.2104 -2.8372
16979SOL    HW255785   3.649   9.661   9.159  1.0449  0.0217 -1.8433
16980SOL     OW55786   5.096   9.405   9.056  0.3539  0.0664 -0.0653
16980SOL    HW155787   5.017   9.450   9.086 -0.7603 -1.0895 -1.1363
16980SOL    HW255788   5.167   9.448   9.104 -1.1579 -0.8591  3.3571
16981SOL     OW55789   4.697   1.550   9.559  0.3669 -0.5284 -0.2407
16981SOL    HW155790   4.712   1.547   9.654  0.4886 -1.1878 -0.2749
16981SOL    HW255791   4.720   1.639   9.534  0.4509 -0.3850  0.3336
16982SOL     OW55792   5.109   0.973   9.516 -0.2930  0.1276  0.2851
16982SOL    HW155793   5.053   1.047   9.540 -0.9050 -0.6992  1.5106
16982SOL    HW255794   5.124   0.926   9.598  1.8746  0.0710 -0.0989
16983SOL     OW55795   5.279   0.058   8.103 -0.4905 -0.2641  0.0244
16983SOL    HW155796   5.358   0.012   8.075  0.0277 -0.7416  2.1416
16983SOL    HW255797   5.215  -0.011   8.119 -1.3737  0.1151 -1.5891
16984SOL     OW55798   4.348   9.679   8.326  0.3754 -0.0625 -0.2774
16984SOL    HW155799   4.295   9.643   8.255 -3.5442  2.4006  1.0524
16984SOL    HW255800   4.355   9.773   8.306 -0.6123  0.6579  2.2904
16985SOL     OW55801   2.306   8.345   0.689 -0.2441 -0.6716 -0.1380
16985SOL    HW155802   2.252   8.306   0.620 -1.5688  0.7664  0.0225
16985SOL    HW255803   2.255   8.335   0.769  0.8935 -1.5403  0.5219
16986SOL     OW55804   5.310   8.253   8.840  0.1935 -0.7415 -0.5836
16986SOL    HW155805   5.321   8.347   8.847  2.3735 -0.9649 -0.4683
16986SOL    HW255806   5.225   8.242   8.797 -0.1784  1.2458 -0.4412
16987SOL     OW55807   4.510   9.567   8.062  0.1700 -0.0057  0.1453
16987SOL    HW155808   4.497   9.536   7.972 -0.8278 -0.5895  0.4761
16987SOL    HW255809   4.422   9.590   8.092  0.7518  2.3922  0.2075
16988SOL     OW55810   4.485   1.130   8.998 -0.1939  0.1684 -0.5961
16988SOL    HW155811   4.428   1.093   9.065  2.8902  0.4856  2.4880
16988SOL    HW255812   4.466   1.223   8.998  1.7214  0.6882  2.1985
16989SOL     OW55813   7.053   9.036   9.348 -0.5098 -0.0390 -0.1950
16989SOL    HW155814   7.108   9.093   9.401 -0.6103 -0.4591  0.3701
16989SOL    HW255815   6.964   9.055   9.376 -0.5249 -0.6795  0.2150
16990SOL     OW55816   6.711   9.773   8.123 -0.1034  0.4401 -0.1952
16990SOL    HW155817   6.804   9.785   8.101 -0.1387 -2.6265 -2.7314
16990SOL    HW255818   6.712   9.719   8.202  0.2879  0.0508 -0.4618
16991SOL     OW55819   4.305   0.033   0.393  0.0344 -0.4942  0.3666
16991SOL    HW155820   4.389   0.006   0.355  1.2161  1.1181  1.7386
16991SOL    HW255821   4.287   0.118   0.354 -0.2316 -0.1703  1.1803
16992SOL     OW55822   6.043   9.140   0.013  0.2374  0.9828  0.1942
16992SOL    HW155823   5.977   9.083  -0.028  1.3356 -0.7483  0.7355
16992SOL    HW255824   5.992   9.209   0.056 -1.2584 -0.5680  1.0060
16993SOL     OW55825   5.003   1.358   9.543 -0.6400 -0.1990 -0.4792
16993SOL    HW155826   5.001   1.431   9.605  0.9119 -1.6986  1.4768
16993SOL    HW255827   4.978   1.282   9.595 -0.0211 -1.4128 -1.8860
16994SOL     OW55828   3.783   0.715   8.890 -0.6400 -0.8244  0.3744
16994SOL    HW155829   3.756   0.654   8.959 -0.0323 -0.6183  0.8080
16994SOL    HW255830   3.776   0.664   8.809 -0.7707 -1.2642  0.6568
16995SOL     OW55831   4.825   9.596   0.947 -0.4152 -0.2322 -0.4028
16995SOL    HW155832   4.879   9.544   1.007  0.2373  0.9528  0.0629
16995SOL    HW255833   4.848   9.564   0.860  0.7941  0.0279 -0.1849
16996SOL     OW55834   4.992   8.787   1.329 -0.2982 -0.1385  0.1153
16996SOL    HW155835   5.049   8.863   1.327  1.1091 -1.1756 -1.7174
16996SOL    HW255836   4.917   8.811   1.275 -0.1598  0.1606  0.0580
16997SOL     OW55837   1.395   9.380   0.559 -0.6523 -0.1525  0.0424
16997SOL    HW155838   1.313   9.329   0.557  0.0593 -1.3270 -0.7391
16997SOL    HW255839   1.413   9.392   0.652 -1.8360  0.3241  0.2207
16998SOL     OW55840   5.299   0.111   9.626  0.1555 -0.1785 -0.2759
16998SOL    HW155841   5.321   0.187   9.572  0.2606  0.0026  0.0175
16998SOL    HW255842   5.374   0.052   9.615  0.7074  0.3441  0.5499
16999SOL     OW55843   5.032   0.291   9.697  0.0683  0.9003  0.7929
16999SOL    HW155844   5.047   0.348   9.621  0.0654  1.4394  1.1880
16999SOL    HW255845   5.100   0.317   9.759  0.1437  0.3785  0.9325
17000SOL     OW55846   4.312   1.169   8.300  0.2802 -0.1348 -0.2406
17000SOL    HW155847   4.276   1.204   8.382  0.4570  0.6245 -0.4848
17000SOL    HW255848   4.331   1.077   8.320  0.9047  0.1969  0.7564
17001SOL     OW55849   4.196   0.981   0.819 -0.2215 -0.2138  0.3084
17001SOL    HW155850   4.134   0.910   0.837 -0.7764  0.1327 -0.1726
17001SOL    HW255851   4.262   0.942   0.762  1.2217 -1.1571  2.5239
17002SOL     OW55852   5.025   8.642   9.429 -0.2654 -0.3032  0.3867
17002SOL    HW155853   5.074   8.576   9.379 -0.9839 -0.7689  0.2918
17002SOL    HW255854   4.981   8.695   9.362 -0.9923 -0.7459  0.5025
17003SOL     OW55855   5.905   0.854   1.291 -1.1082  0.0538 -0.8214
17003SOL    HW155856   5.867   0.932   1.252 -0.9719 -0.7194 -2.5781
17003SOL    HW255857   5.851   0.836   1.368 -1.2685  1.7290 -0.5137
17004SOL     OW55858   4.694   9.259   2.300 -0.3162  0.0462 -0.2570
17004SOL    HW155859   4.653   9.209   2.372 -2.0894  0.2090 -1.0885
17004SOL    HW255860   4.672   9.350   2.320  2.3597  0.5182  0.9125
17005SOL     OW55861   5.542   0.475   2.157  0.0159  0.4421  0.1112
17005SOL    HW155862   5.536   0.525   2.239 -0.3591  1.6870 -0.6477
17005SOL    HW255863   5.452   0.472   2.124  0.2903  0.7067 -0.6821
17006SOL     OW55864   6.255   0.288   9.509 -0.5865 -0.4339 -0.1466
17006SOL    HW155865   6.217   0.216   9.559 -0.1920 -0.2199  0.4745
17006SOL    HW255866   6.323   0.247   9.456 -0.8391 -0.6239 -0.3284
17007SOL     OW55867   7.342   3.449   1.411 -0.3354  0.0101 -0.4327
17007SOL    HW155868   7.253   3.415   1.417  0.4850 -2.3118 -0.6122
17007SOL    HW255869   7.378   3.437   1.498 -0.8817  3.2653  0.3792
17008SOL     OW55870   7.754   2.526   9.543  0.3296  0.0631  0.6223
17008SOL    HW155871   7.819   2.564   9.484  1.3982 -2.7783 -0.1531
17008SOL    HW255872   7.805   2.490   9.616 -0.6864  0.3826  1.5325
17009SOL     OW55873   5.436   8.828   2.042 -0.0923  0.3982 -0.0592
17009SOL    HW155874   5.378   8.783   2.103  1.0627 -1.0175  0.0438
17009SOL    HW255875   5.377   8.861   1.973 -1.2236  0.7500  1.0381
17010SOL     OW55876   5.462   8.280   0.882 -0.2566  0.4789 -0.6224
17010SOL    HW155877   5.447   8.349   0.817 -0.3262  2.1325  1.0359
17010SOL    HW255878   5.407   8.306   0.956  0.2888 -0.9760  0.3296
17011SOL     OW55879   4.839   9.238   2.074  0.2469 -0.0436 -0.1180
17011SOL    HW155880   4.849   9.332   2.062  0.2675  0.1523  1.3148
17011SOL    HW255881   4.782   9.229   2.151  0.7989 -1.1954  0.1823
17012SOL     OW55882   6.293   9.260   2.846  0.2737 -0.0609 -0.6320
17012SOL    HW155883   6.388   9.269   2.853  0.4990 -1.1699 -1.9960
17012SOL    HW255884   6.274   9.283   2.755 -0.8942  1.0331 -0.1388
17013SOL     OW55885   5.342   8.424   1.675 -0.1589 -0.3226  0.0566
17013SOL    HW155886   5.298   8.455   1.754  0.7344 -0.8045  0.7683
17013SOL    HW255887   5.276   8.431   1.606 -0.5055  1.5451  0.5173
17014SOL     OW55888   7.451   1.159   9.555 -0.4254 -0.1121  0.4810
17014SOL    HW155889   7.367   1.114   9.554 -0.7626  0.5018  0.2599
17014SOL    HW255890   7.486   1.148   9.466 -0.7012  0.4070  0.3049
17015SOL     OW55891   3.795   2.002   0.302 -0.1729 -0.9395  0.0065
17015SOL    HW155892   3.868   2.014   0.241 -0.7761  0.6854 -0.4624
17015SOL    HW255893   3.835   2.012   0.389 -0.0668  1.9515 -0.2775
17016SOL     OW55894   8.841   2.130   9.209  0.1690 -0.2353 -0.0238
17016SOL    HW155895   8.839   2.226   9.205 -1.5795 -0.2603 -0.9538
17016SOL    HW255896   8.756   2.103   9.172  1.0790 -2.1661 -0.8527
17017SOL     OW55897   7.991   2.192   1.833  0.5233  0.2979 -0.6103
17017SOL    HW155898   8.013   2.179   1.741  2.0523 -1.6716 -0.0183
17017SOL    HW255899   8.068   2.236   1.870  1.3652 -1.8866  0.3714
17018SOL     OW55900   3.871   0.477   2.218  0.1124  0.0401  0.4008
17018SOL    HW155901   3.784   0.472   2.257  0.6513  0.9406  1.7820
17018SOL    HW255902   3.930   0.494   2.291  1.3957  0.0417 -0.5821
17019SOL     OW55903   4.903   2.923   2.358  0.4606  0.0381 -0.3000
17019SOL    HW155904   4.996   2.936   2.339  0.2189 -0.3125 -1.9131
17019SOL    HW255905   4.899   2.840   2.405  1.1117  0.9791  1.5173
17020SOL     OW55906   5.873   8.935   9.808  0.2289  0.1271  0.0854
17020SOL    HW155907   5.804   8.915   9.871 -0.3947 -0.2379 -0.6916
17020SOL    HW255908   5.853   8.879   9.732  1.6835 -0.4044  0.0510
17021SOL     OW55909   5.980   8.770   1.337 -0.1175 -0.0110 -0.0091
17021SOL    HW155910   5.905   8.785   1.278  0.0248  2.1080  0.2572
17021SOL    HW255911   6.028   8.697   1.297 -1.8323 -0.8323 -0.6642
17022SOL     OW55912   9.253   2.458   1.178 -0.7608 -0.6435  0.2413
17022SOL    HW155913   9.173   2.484   1.131 -1.5416 -1.1406  1.2520
17022SOL    HW255914   9.243   2.497   1.265 -0.8270 -2.2804  1.0111
17023SOL     OW55915   6.542   0.949   9.468 -0.0943 -0.1954  0.5386
17023SOL    HW155916   6.541   0.861   9.507 -2.0028 -1.7376 -2.6061
17023SOL    HW255917   6.454   0.983   9.486  0.4394  0.8691  1.2075
17024SOL     OW55918   7.304   0.357   2.346  0.3323 -0.3042  0.1453
17024SOL    HW155919   7.367   0.296   2.386  1.5060  0.8512  0.1369
17024SOL    HW255920   7.302   0.331   2.254  0.3062 -0.7564  0.2692
17025SOL     OW55921   5.904   9.458   9.367  0.6103 -0.0325 -0.0793
17025SOL    HW155922   5.933   9.397   9.299 -0.1258  0.4774 -0.8652
17025SOL    HW255923   5.834   9.508   9.326 -0.9914 -0.8119  1.5559
17026SOL     OW55924   6.309   1.102   9.548 -0.2468  0.0960  0.1357
17026SOL    HW155925   6.257   1.129   9.625 -1.8127  0.9839 -1.1603
17026SOL    HW255926   6.246   1.056   9.492  0.5188  0.6772 -1.2381
17027SOL     OW55927   5.361   0.100   1.323 -0.0741 -0.4541  0.2948
17027SOL    HW155928   5.329   0.155   1.252  0.7932  0.6597  0.7472
17027SOL    HW255929   5.379   0.160   1.395  1.8218 -1.1694  0.4840
17028SOL     OW55930   7.152   1.755   1.216 -0.8365  0.3537 -0.3373
17028SOL    HW155931   7.146   1.715   1.302 -0.8219  0.7533 -0.1510
17028SOL    HW255932   7.075   1.724   1.169  0.3956 -1.9112 -1.0481
17029SOL     OW55933   7.098   0.073   1.521  0.1389 -0.1967 -0.4946
17029SOL    HW155934   7.168   0.074   1.455 -0.0244  0.5636 -0.6754
17029SOL    HW255935   7.128   0.011   1.587  2.2919  2.0718  0.8140
17030SOL     OW55936   5.267   0.401   2.180 -0.2002  0.4829 -0.4549
17030SOL    HW155937   5.192   0.437   2.134  0.1017 -0.1536 -1.4757
17030SOL    HW255938   5.230   0.364   2.261 -0.8110  1.1334 -0.4322
17031SOL     OW55939   7.251   1.451   0.588 -0.2062  0.3073  0.0340
17031SOL    HW155940   7.317   1.412   0.645  0.0183  0.5434 -0.0591
17031SOL    HW255941   7.178   1.471   0.646  0.0416  0.5946  0.2520
17032SOL     OW55942   4.611   3.890   2.659 -0.0021 -0.3433  0.2656
17032SOL    HW155943   4.696   3.846   2.667  0.7485  1.1035  0.5410
17032SOL    HW255944   4.620   3.970   2.712 -0.2748  1.6506 -2.4836
17033SOL     OW55945   5.455   2.103   2.270 -0.4782  0.2200 -0.6597
17033SOL    HW155946   5.532   2.109   2.327  0.5906 -1.3845 -1.8387
17033SOL    HW255947   5.389   2.060   2.325  0.8443 -2.2038 -0.8176
17034SOL     OW55948   6.617   2.283   1.864 -0.2334  0.0869 -0.0466
17034SOL    HW155949   6.644   2.324   1.781 -0.5062 -2.7697 -1.7027
17034SOL    HW255950   6.699   2.273   1.913  0.6047 -1.5190 -1.6605
17035SOL     OW55951   8.019   2.014   8.598  0.5109  0.2520 -0.0658
17035SOL    HW155952   7.927   1.999   8.620  0.7340  0.0841  0.7896
17035SOL    HW255953   8.055   1.926   8.586  1.3730  0.0533  3.0937
17036SOL     OW55954   7.308   1.170   0.698 -0.2932 -0.0917 -0.6549
17036SOL    HW155955   7.219   1.152   0.668 -0.8641 -0.0793  0.9214
17036SOL    HW255956   7.297   1.234   0.769  0.9780 -0.0092 -0.5060
17037SOL     OW55957   6.527   9.226   1.310 -0.2316 -0.1084  0.1521
17037SOL    HW155958   6.468   9.296   1.284 -0.8791 -0.4900  0.5492
17037SOL    HW255959   6.560   9.190   1.227 -0.7218 -0.0222 -0.0853
17038SOL     OW55960   6.674   1.582   0.090 -0.2949  0.1910  0.8967
17038SOL    HW155961   6.748   1.599   0.149 -1.7818  0.2376  2.8408
17038SOL    HW255962   6.695   1.499   0.048  2.1263  1.4925 -0.7398
17039SOL     OW55963   4.514   7.834   2.182 -0.0841 -0.3442  0.4754
17039SOL    HW155964   4.601   7.819   2.145 -0.7338 -1.4271 -0.7145
17039SOL    HW255965   4.456   7.776   2.132 -1.3197 -0.5049  1.9930
17040SOL     OW55966   5.397   9.308   0.487  0.1790 -0.4054 -0.6016
17040SOL    HW155967   5.379   9.227   0.535  0.4586  0.2048  0.5616
17040SOL    HW255968   5.491   9.303   0.466  0.4545  0.0855  0.4252
17041SOL     OW55969   7.147   8.057   9.093  0.2921  0.3544  0.1698
17041SOL    HW155970   7.085   8.052   9.020  0.9133 -0.2984 -0.3135
17041SOL    HW255971   7.122   8.137   9.139  0.9261  1.7266 -1.7186
17042SOL     OW55972   5.770   0.986   9.296  0.3818 -0.4570 -0.0564
17042SOL    HW155973   5.839   0.989   9.362  0.0311 -1.7626  0.3875
17042SOL    HW255974   5.702   1.044   9.330  0.4043 -0.7497  0.4913
17043SOL     OW55975   5.548   3.290   3.607  0.8138 -0.3356 -0.5770
17043SOL    HW155976   5.493   3.338   3.545  0.2017 -0.9316 -0.5143
17043SOL    HW255977   5.638   3.313   3.583  0.5656  3.0766  1.2474
17044SOL     OW55978   7.697   8.829   0.031  0.1721 -0.1490  0.3695
17044SOL    HW155979   7.608   8.824  -0.006  0.4803 -2.1807 -0.1843
17044SOL    HW255980   7.753   8.849  -0.044  0.4315 -1.1777  0.2731
17045SOL     OW55981   5.363   2.986   0.763  0.3032 -0.9045 -0.2211
17045SOL    HW155982   5.269   2.995   0.751  0.6954  1.9966 -2.2494
17045SOL    HW255983   5.378   2.892   0.771 -2.9889 -1.3295  3.4202
17046SOL     OW55984   5.617   0.774   9.682 -0.0736  0.1218  0.2371
17046SOL    HW155985   5.526   0.775   9.651 -0.0177  1.8928  0.0186
17046SOL    HW255986   5.646   0.865   9.673  2.0681 -0.5960 -0.6524
17047SOL     OW55987   5.572   2.410   1.973  0.0946  0.1730 -0.6453
17047SOL    HW155988   5.658   2.450   1.961 -0.3780  0.6777 -2.6960
17047SOL    HW255989   5.511   2.468   1.927 -1.2196 -0.6792 -0.0593
17048SOL     OW55990   5.100   0.104   1.581  0.6163  0.3064 -0.5438
17048SOL    HW155991   5.082   0.198   1.583 -0.2194  0.1297  0.4428
17048SOL    HW255992   5.019   0.065   1.549  1.0750 -0.0703 -1.2795
17049SOL     OW55993   7.292   1.995   0.075  0.2016 -0.0831 -0.5111
17049SOL    HW155994   7.370   1.998   0.130  0.1936  1.1629 -0.5204
17049SOL    HW255995   7.224   1.960   0.132  0.0890  1.6134  0.4595
17050SOL     OW55996   7.524   1.293   1.148  0.7626  0.1220 -0.2786
17050SOL    HW155997   7.477   1.268   1.228  0.8989  0.2008 -0.1712
17050SOL    HW255998   7.616   1.279   1.170  0.9342  1.7362  0.1700
17051SOL     OW55999   7.089   9.163   1.512 -0.0568  0.0779  0.5690
17051SOL    HW156000   7.015   9.155   1.572 -1.4167  1.9467 -0.7422
17051SOL    HW256001   7.150   9.222   1.556 -0.4316  0.3801  0.6850
17052SOL     OW56002   3.531   8.512   5.063 -0.0522  0.0132 -0.3212
17052SOL    HW156003   3.561   8.594   5.023  0.4640 -0.1219 -0.2268
17052SOL    HW256004   3.483   8.539   5.141  0.8281  0.2002  0.1662
17053SOL     OW56005   5.652   0.415   1.754  0.1306 -0.4035  0.0866
17053SOL    HW156006   5.607   0.353   1.812 -3.4999  1.8187 -0.0510
17053SOL    HW256007   5.674   0.363   1.677 -1.3654 -1.9053  0.5923
17054SOL     OW56008   7.784   9.680   2.855  0.7410  0.0722  0.2018
17054SOL    HW156009   7.752   9.592   2.837  0.5923  0.1656 -0.0117
17054SOL    HW256010   7.715   9.737   2.820  1.2965  0.2853 -0.5775
17055SOL     OW56011   7.834   0.914   0.384  0.6671  0.5426  0.0680
17055SOL    HW156012   7.740   0.914   0.365  0.9600  0.3255 -1.5218
17055SOL    HW256013   7.871   0.971   0.318  1.6448  0.8650  0.8709
17056SOL     OW56014   6.054   1.297   9.357 -0.0711 -0.4072  0.4267
17056SOL    HW156015   6.055   1.347   9.438  1.0485 -1.4264  1.0829
17056SOL    HW256016   6.031   1.208   9.383 -1.8978 -0.3117 -0.6970
17057SOL     OW56017   7.652   1.854   0.108 -0.1631  0.3199  0.7968
17057SOL    HW156018   7.666   1.759   0.106  0.1702  0.3741 -1.2570
17057SOL    HW256019   7.704   1.887   0.035  0.9706  2.2930  2.3946
17058SOL     OW56020   6.477   4.460   4.441 -0.2998 -0.2439  0.0902
17058SOL    HW156021   6.535   4.427   4.373  2.7467  0.8715  1.9806
17058SOL    HW256022   6.429   4.382   4.470  1.5596 -1.6304 -0.3353
17059SOL     OW56023   7.426   1.592   8.656 -0.8551 -0.2613  0.0722
17059SOL    HW156024   7.426   1.687   8.644 -0.6552 -0.2765 -0.0523
17059SOL    HW256025   7.334   1.567   8.646 -1.3899  0.2480  2.8611
17060SOL     OW56026   6.019   0.301   9.708  0.1466 -0.2421 -0.2779
17060SOL    HW156027   6.099   0.313   9.759  0.9562  2.0769 -1.9302
17060SOL    HW256028   5.961   0.252   9.766  2.6051 -1.7609  1.1055
17061SOL     OW56029   8.250   0.822   2.358  0.2034  0.5378  0.1722
17061SOL    HW156030   8.249   0.858   2.446  0.7659  0.6971  0.1240
17061SOL    HW256031   8.319   0.755   2.360 -0.7248 -0.4406  0.2165
17062SOL     OW56032   6.432   9.776   1.822 -0.2213  0.2619  0.5154
17062SOL    HW156033   6.351   9.792   1.870 -1.4490 -0.2321 -1.2720
17062SOL    HW256034   6.446   9.856   1.771  0.0494  0.1080  0.3436
17063SOL     OW56035   6.942   0.456   1.978 -0.1110  0.2250  0.2526
17063SOL    HW156036   7.021   0.406   1.999 -0.4660 -0.1502  0.7436
17063SOL    HW256037   6.965   0.547   1.995 -0.1537  0.0038  1.5870
17064SOL     OW56038   7.835   2.324   2.148  0.2674  0.1377  0.0745
17064SOL    HW156039   7.838   2.327   2.244  0.1155 -1.2198  0.1467
17064SOL    HW256040   7.915   2.369   2.120 -0.8248  2.6869  0.7267
17065SOL     OW56041   6.644   1.061   1.264 -0.1607 -0.3416 -0.4238
17065SOL    HW156042   6.647   0.968   1.241  1.7743 -0.6380  0.8193
17065SOL    HW256043   6.597   1.064   1.347  0.1232 -0.2667 -0.2635
17066SOL     OW56044   5.212   9.291   1.278 -0.9575  0.1266 -0.1238
17066SOL    HW156045   5.133   9.237   1.275 -0.1395 -1.0945 -2.6750
17066SOL    HW256046   5.268   9.248   1.343 -1.6839 -0.0404  0.4045
17067SOL     OW56047   7.777   0.197   0.206 -0.3895  0.0548 -0.5640
17067SOL    HW156048   7.850   0.211   0.145  0.6722  2.1710  1.0791
17067SOL    HW256049   7.809   0.130   0.266 -0.0497  0.4569 -0.2851
17068SOL     OW56050   7.009   3.390   1.209  0.4532 -0.3382  0.4338
17068SOL    HW156051   6.966   3.325   1.153  2.8688  0.1239 -2.2173
17068SOL    HW256052   7.032   3.462   1.149  2.2367  0.7083  2.2446
17069SOL     OW56053   6.899   9.239   8.139 -0.4395  0.2170  0.0977
17069SOL    HW156054   6.869   9.290   8.214  2.9716  0.4681  1.5059
17069SOL    HW256055   6.918   9.304   8.072  0.8113  0.5436  0.7280
17070SOL     OW56056   7.145   9.308   1.889 -0.2650  0.0008  0.4343
17070SOL    HW156057   7.214   9.351   1.940 -1.4345  1.3395  0.9764
17070SOL    HW256058   7.165   9.215   1.894  0.7445  0.2642  1.7145
17071SOL     OW56059   7.302   3.836   7.298  0.0237 -0.0897  0.7110
17071SOL    HW156060   7.209   3.816   7.290 -0.5790  2.1905  1.2226
17071SOL    HW256061   7.328   3.863   7.209  0.0159 -0.0765  0.7127
17072SOL     OW56062   6.504   0.575   8.320  0.1958  0.3262 -0.3244
17072SOL    HW156063   6.517   0.490   8.362  0.7456  0.1468 -0.8404
17072SOL    HW256064   6.549   0.638   8.376 -1.2407  0.4760  0.7242
17073SOL     OW56065   5.280   7.086   2.005  0.3468  0.0203  0.4297
17073SOL    HW156066   5.367   7.055   1.980 -0.2502  0.2248 -2.2652
17073SOL    HW256067   5.223   7.058   1.933 -1.3112  2.1963  0.7758
17074SOL     OW56068   7.348   8.837   9.435  0.7131  0.1539  0.4716
17074SOL    HW156069   7.271   8.781   9.427  1.1398 -0.3059 -0.7840
17074SOL    HW256070   7.329   8.895   9.508 -0.4960 -0.4590  0.6653
17075SOL     OW56071   7.930   0.064   1.576 -0.7002  0.3696  0.1114
17075SOL    HW156072   8.018   0.027   1.570 -0.4829  0.8478  0.2636
17075SOL    HW256073   7.928   0.131   1.507 -0.6596  0.9223  0.6358
17076SOL     OW56074   5.280   8.879   0.011 -0.4090  0.3069 -0.1903
17076SOL    HW156075   5.189   8.900   0.028 -0.3685  0.0355  0.3749
17076SOL    HW256076   5.309   8.831   0.088  0.3737  0.8953 -0.0967
17077SOL     OW56077   7.071   1.941   0.221 -0.3562  0.5019 -0.0876
17077SOL    HW156078   7.004   1.881   0.253 -0.7775  0.7272 -0.5308
17077SOL    HW256079   7.065   2.017   0.279 -1.4916  1.1431 -1.0019
17078SOL     OW56080   6.799   1.302   1.508  0.4236 -0.0773 -0.2555
17078SOL    HW156081   6.756   1.218   1.525 -1.6676  0.8454 -0.5561
17078SOL    HW256082   6.832   1.294   1.419  0.7174 -0.7602 -0.0936
17079SOL     OW56083   6.340   8.910   0.676 -0.3998  0.5343  0.3734
17079SOL    HW156084   6.411   8.954   0.723  1.2805 -0.9951 -0.6175
17079SOL    HW256085   6.373   8.901   0.587 -0.8844 -2.1961  0.4021
17080SOL     OW56086   5.436   2.325   0.031  0.1728 -0.0740  0.1047
17080SOL    HW156087   5.436   2.282  -0.054  1.5654 -0.2895  0.1958
17080SOL    HW256088   5.468   2.414   0.014 -3.6589  1.4309 -0.2586
17081SOL     OW56089   4.520   1.596   1.205  0.3175 -0.5550 -0.1225
17081SOL    HW156090   4.487   1.541   1.134 -0.1984 -0.4885  0.0661
17081SOL    HW256091   4.463   1.672   1.206 -0.6516 -1.2689  1.3569
17082SOL     OW56092   5.117   2.006   2.578 -0.5751  0.0156  0.1815
17082SOL    HW156093   5.146   1.922   2.614 -0.1479  0.1983  0.2738
17082SOL    HW256094   5.052   2.038   2.640 -1.8241 -0.9213 -0.5951
17083SOL     OW56095   3.465   8.663   0.260 -0.1462  0.2209 -0.0415
17083SOL    HW156096   3.516   8.672   0.180 -0.1132  1.1861  0.0791
17083SOL    HW256097   3.374   8.668   0.231 -0.1942 -1.2291 -0.2228
17084SOL     OW56098   7.046   9.708   9.539  0.0118 -0.0062  0.0694
17084SOL    HW156099   7.112   9.717   9.471  1.6268  0.0283  1.5539
17084SOL    HW256100   7.070   9.774   9.605 -1.4444 -0.0732  0.7073
17085SOL     OW56101   6.003   1.527   0.546  0.2667 -0.3449  0.0106
17085SOL    HW156102   6.000   1.521   0.642 -1.4815  0.1450  0.0203
17085SOL    HW256103   6.089   1.565   0.527 -0.5016  2.4738  1.5989
17086SOL     OW56104   3.933   9.060   1.356 -0.1923  0.2515  0.0089
17086SOL    HW156105   3.954   9.153   1.359 -0.2203  0.2618 -0.0964
17086SOL    HW256106   3.989   9.025   1.286  0.2021  0.0886  0.3996
17087SOL     OW56107   7.282   9.261   7.892  0.4130  0.2194 -0.0369
17087SOL    HW156108   7.262   9.345   7.850  0.1930 -0.3382 -1.0697
17087SOL    HW256109   7.326   9.285   7.973 -0.3235  1.3562  0.0467
17088SOL     OW56110   6.244   1.817   2.158 -0.3301  0.1085  0.0821
17088SOL    HW156111   6.286   1.824   2.072  1.2808 -0.8368  0.7366
17088SOL    HW256112   6.312   1.844   2.220 -0.9430 -0.7283  1.1474
17089SOL     OW56113   5.106   0.360   0.736  0.2908 -0.1702  0.2350
17089SOL    HW156114   5.117   0.353   0.641 -3.0157  1.2922 -0.3963
17089SOL    HW256115   5.077   0.273   0.764  1.6592 -0.7152  0.0191
17090SOL     OW56116   5.422   9.767   1.029  0.1886  0.4662  0.1110
17090SOL    HW156117   5.399   9.674   1.027 -0.6794  0.6445 -2.8421
17090SOL    HW256118   5.348   9.811   0.986  0.8435  2.4987  0.9185
17091SOL     OW56119   7.384   7.865   2.649 -0.4415  0.1192 -0.1359
17091SOL    HW156120   7.441   7.927   2.603 -1.0018 -0.6643 -1.9646
17091SOL    HW256121   7.308   7.917   2.674 -0.4887  0.3970 -0.8258
17092SOL     OW56122   5.261   0.717   8.420 -0.1683  0.1355 -0.5424
17092SOL    HW156123   5.202   0.646   8.445  1.6488 -0.6716  1.9239
17092SOL    HW256124   5.340   0.672   8.390  0.5726  1.1159 -0.1097
17093SOL     OW56125   7.014   0.305   0.017 -0.3900  0.0324  0.0690
17093SOL    HW156126   6.990   0.397   0.026 -1.9850 -0.2666 -0.7990
17093SOL    HW256127   7.047   0.297  -0.073  1.1532  0.0235  0.6074
17094SOL     OW56128   7.451   7.439   0.251  0.5215  0.2172 -0.2886
17094SOL    HW156129   7.546   7.434   0.265  0.4566  1.3363  0.7234
17094SOL    HW256130   7.425   7.348   0.236  2.0090  0.0916 -2.6045
17095SOL     OW56131   6.476   1.320   9.466  0.1008  0.0966 -0.5102
17095SOL    HW156132   6.398   1.267   9.481 -0.2640  0.9523  0.8098
17095SOL    HW256133   6.451   1.381   9.397 -0.7555  1.0032  0.5641
17096SOL     OW56134   7.437   1.734   0.213  0.7571  0.5786 -0.0537
17096SOL    HW156135   7.506   1.798   0.197  0.9236  0.1393 -1.2529
17096SOL    HW256136   7.396   1.721   0.127 -0.6476  0.6295  0.5709
17097SOL     OW56137   6.895   0.864   9.552  0.4069  0.5743 -0.3737
17097SOL    HW156138   6.839   0.851   9.476 -0.4737  0.0183  0.3544
17097SOL    HW256139   6.942   0.945   9.534 -1.5956  1.7784 -0.4250
17098SOL     OW56140   5.034   0.682   1.535  0.1934 -0.5425  0.1660
17098SOL    HW156141   5.094   0.608   1.542  0.5675 -0.1633  1.1232
17098SOL    HW256142   5.076   0.741   1.472  0.4746 -0.6182  0.2787
17099SOL     OW56143   9.606   1.358   3.455 -0.3097  0.0488 -0.9680
17099SOL    HW156144   9.550   1.280   3.457  0.2311 -0.3334  0.7075
17099SOL    HW256145   9.692   1.325   3.429  0.1717 -0.1168  0.7522
17100SOL     OW56146   6.224   2.003   3.376 -0.1710 -0.0626  0.2297
17100SOL    HW156147   6.223   2.051   3.294  2.6441  0.9060  0.6656
17100SOL    HW256148   6.187   2.064   3.440 -2.1992 -0.7545 -0.2099
17101SOL     OW56149   6.088   9.425   1.711 -0.2509 -0.1139  0.3810
17101SOL    HW156150   6.104   9.448   1.803 -3.0500  0.3829  0.8387
17101SOL    HW256151   6.114   9.333   1.705  0.7780  0.0746  1.4082
17102SOL     OW56152   4.100   0.802   9.119 -0.2934 -0.2121 -0.0766
17102SOL    HW156153   4.151   0.883   9.110 -0.5132 -0.0210  0.3628
17102SOL    HW256154   4.069   0.783   9.031 -1.0253  0.7020 -0.0329
17103SOL     OW56155   5.489   0.778   0.226  0.3810 -0.0999 -0.0520
17103SOL    HW156156   5.442   0.713   0.174  0.3041  0.3229 -0.5097
17103SOL    HW256157   5.422   0.840   0.253  0.5539  0.1098 -0.1025
17104SOL     OW56158   6.393   0.902   0.185  0.1869  0.1986 -0.0556
17104SOL    HW156159   6.466   0.906   0.246 -1.4178 -1.2528  2.0896
17104SOL    HW256160   6.333   0.970   0.215 -0.9480 -1.0065  0.5004
17105SOL     OW56161   7.552   9.567   9.768 -0.8159 -0.5072  0.1162
17105SOL    HW156162   7.591   9.488   9.807 -1.2061 -0.7202  0.0856
17105SOL    HW256163   7.484   9.593   9.830 -0.2173  0.2212  0.4712
17106SOL     OW56164   3.469   2.082   9.841  0.2756  0.3345  0.2420
17106SOL    HW156165   3.465   2.025   9.764  1.8201  1.2550 -0.5735
17106SOL    HW256166   3.425   2.032   9.910  0.8629 -1.4965 -0.6395
17107SOL     OW56167   7.028   1.092   9.819 -0.2202  0.2562 -0.3005
17107SOL    HW156168   7.113   1.073   9.777  0.6559  2.1776  0.4866
17107SOL    HW256169   6.983   1.149   9.756 -1.2321 -1.2371 -0.9854
17108SOL     OW56170   5.918   1.631   3.196 -0.2521  0.1008 -0.2888
17108SOL    HW156171   5.972   1.708   3.177 -1.1141  0.5372 -1.0092
17108SOL    HW256172   5.828   1.663   3.198 -0.5608 -0.7441  0.2249
17109SOL     OW56173   7.074   0.455   9.289 -0.1459 -0.0217  0.2553
17109SOL    HW156174   7.155   0.412   9.262 -0.8869 -0.5837 -1.2079
17109SOL    HW256175   7.007   0.387   9.279 -0.9007  0.6346  0.7682
17110SOL     OW56176   6.289   0.469   0.740  0.1965  0.2945 -0.0625
17110SOL    HW156177   6.342   0.444   0.664 -0.5808  0.6474 -0.7361
17110SOL    HW256178   6.275   0.563   0.729 -0.0582  0.3181  0.4412
17111SOL     OW56179   6.148   1.161   2.814 -0.3880  0.1090  0.1125
17111SOL    HW156180   6.203   1.089   2.783 -0.8967 -0.7229  1.0974
17111SOL    HW256181   6.195   1.197   2.889  0.4063  1.5512 -1.0253
17112SOL     OW56182   5.384   1.339   2.500  0.7152 -0.4329 -0.3238
17112SOL    HW156183   5.323   1.278   2.541  0.3205 -0.0828 -0.3799
17112SOL    HW256184   5.468   1.293   2.497  0.7258 -0.4978  0.7882
17113SOL     OW56185   7.799   0.788   1.276 -0.5290 -0.5271  0.0081
17113SOL    HW156186   7.759   0.719   1.223 -1.7502  0.5746 -0.5623
17113SOL    HW256187   7.854   0.837   1.214 -1.4709  0.3890 -0.1179
17114SOL     OW56188   5.452   1.226   2.086  0.2075 -0.2662  0.1860
17114SOL    HW156189   5.413   1.210   2.000  1.6642  0.0843 -0.5775
17114SOL    HW256190   5.398   1.176   2.147  0.1587 -1.9546 -1.1666
17115SOL     OW56191   7.496   9.524   9.482 -0.3267 -0.2215  0.6239
17115SOL    HW156192   7.541   9.507   9.565 -0.1150 -1.5916  0.2430
17115SOL    HW256193   7.407   9.494   9.496 -0.7668  1.1217  0.8853
17116SOL     OW56194   6.272   1.316   9.212 -0.6039 -0.3246 -0.1127
17116SOL    HW156195   6.298   1.224   9.204 -2.5358 -0.7984 -1.5389
17116SOL    HW256196   6.187   1.313   9.256  0.4238  0.9955  2.1028
17117SOL     OW56197   6.115   2.560   0.138  0.2644  0.1330 -0.0101
17117SOL    HW156198   6.174   2.488   0.115 -1.1326 -0.9251 -0.3913
17117SOL    HW256199   6.150   2.635   0.091 -0.0927 -1.0350 -2.2875
17118SOL     OW56200   6.056   9.682   9.298  0.1213  0.1185  0.2375
17118SOL    HW156201   6.058   9.676   9.202 -0.5037  2.3198  0.0352
17118SOL    HW256202   5.988   9.619   9.324 -0.2016  0.0048 -0.8218
17119SOL     OW56203   4.591   7.683   3.706  0.0238  0.1166  0.3107
17119SOL    HW156204   4.547   7.727   3.779 -1.0444 -2.8326  1.5915
17119SOL    HW256205   4.521   7.648   3.652  0.8130 -0.6965 -0.2166
17120SOL     OW56206   4.031   0.858   2.294 -0.0034  0.5106 -0.0801
17120SOL    HW156207   4.109   0.881   2.344  0.0211  1.9152 -0.7202
17120SOL    HW256208   4.005   0.772   2.328  1.9387 -0.1045 -0.0123
17121SOL     OW56209   6.950   0.049   9.713  0.4716  0.1807 -0.0745
17121SOL    HW156210   6.981   0.127   9.667  2.9606  0.1764  1.3668
17121SOL    HW256211   6.940   0.078   9.804  0.7549 -0.9924  0.3497
17122SOL     OW56212   5.303   2.515   0.634 -0.0239 -0.0831 -0.0795
17122SOL    HW156213   5.308   2.441   0.574 -0.6530 -0.4756  0.3440
17122SOL    HW256214   5.213   2.513   0.667  0.0265  0.7273  0.1169
17123SOL     OW56215   2.871   8.725   4.226  0.0225  0.0989  0.4909
17123SOL    HW156216   2.843   8.720   4.135  0.0472  0.8546  0.4306
17123SOL    HW256217   2.796   8.761   4.273 -0.6999 -2.0887  1.1355
17124SOL     OW56218   7.055   6.778   0.664 -0.3817 -0.2330  0.5629
17124SOL    HW156219   7.057   6.869   0.695 -2.5213 -0.1786  0.7087
17124SOL    HW256220   7.084   6.726   0.738  2.5691  0.3715 -0.0510
17125SOL     OW56221   4.765   9.760   2.573  0.5237 -0.7818 -0.1047
17125SOL    HW156222   4.752   9.794   2.661  0.0166  1.1585 -0.8705
17125SOL    HW256223   4.679   9.726   2.547  0.4499 -0.5641 -0.1500
17126SOL     OW56224   7.112   1.878   1.883 -0.4170 -0.2855 -0.2515
17126SOL    HW156225   7.191   1.909   1.838 -1.9340  2.3618 -1.3327
17126SOL    HW256226   7.047   1.871   1.813 -1.3550 -1.7464  0.7177
17127SOL     OW56227   6.992   9.059   8.874 -0.3847 -0.0976  0.6264
17127SOL    HW156228   6.974   8.972   8.909  1.1929 -1.1394 -0.9953
17127SOL    HW256229   7.033   9.106   8.947 -1.1188 -0.7430  1.4757
17128SOL     OW56230   6.030   0.676   0.035  0.2063 -0.0483 -0.2797
17128SOL    HW156231   5.984   0.592   0.030 -0.9732  0.6448 -1.6531
17128SOL    HW256232   6.105   0.666  -0.022 -0.1785 -0.0331 -0.7944
17129SOL     OW56233   4.368   8.297   2.732 -0.3783 -0.3676 -0.0425
17129SOL    HW156234   4.338   8.290   2.823  0.3103  0.9773  0.3205
17129SOL    HW256235   4.447   8.351   2.737  0.8366 -1.9249 -1.2282
17130SOL     OW56236   6.980   3.339   9.297  0.2953  0.4163 -0.0631
17130SOL    HW156237   6.933   3.259   9.272  1.1522  0.1949 -1.0101
17130SOL    HW256238   6.983   3.334   9.393  0.2444 -0.6352 -0.0967
17131SOL     OW56239   6.530   0.225   1.883  0.2936 -0.3892  0.2467
17131SOL    HW156240   6.447   0.212   1.838  0.1693 -2.8015  1.0298
17131SOL    HW256241   6.593   0.240   1.812 -0.1516 -2.5675 -0.6880
17132SOL     OW56242   5.859   9.607   3.277 -0.3431  0.3739  0.3543
17132SOL    HW156243   5.944   9.634   3.243  1.1265 -2.3209  1.5920
17132SOL    HW256244   5.819   9.557   3.206  0.2049 -0.4020  0.5794
17133SOL     OW56245   5.130   9.017   9.221 -0.1152 -0.2078  0.1468
17133SOL    HW156246   5.152   8.925   9.233 -0.4186 -0.1374  1.4123
17133SOL    HW256247   5.208   9.064   9.252 -0.6604 -0.0234  1.2955
17134SOL     OW56248   6.497   8.843   1.031 -0.3852  0.3209  0.0548
17134SOL    HW156249   6.592   8.847   1.039 -0.3689  0.5935 -0.2663
17134SOL    HW256250   6.477   8.749   1.031  0.0936  0.1758 -2.1084
17135SOL     OW56251   7.698   2.192   3.681 -1.1886 -0.5405  0.0642
17135SOL    HW156252   7.707   2.286   3.695  0.0190 -0.8053  1.3184
17135SOL    HW256253   7.661   2.184   3.593 -0.7099  1.0728 -0.3190
17136SOL     OW56254   6.892   2.583   1.951 -0.1771  0.1730  0.3600
17136SOL    HW156255   6.957   2.620   2.010 -1.5086  4.2462 -0.3620
17136SOL    HW256256   6.941   2.561   1.872  0.9756 -1.3954  1.4724
17137SOL     OW56257   5.494   1.656   4.179  0.5474 -0.3219 -0.4864
17137SOL    HW156258   5.463   1.624   4.264 -0.4209  0.4204 -0.5401
17137SOL    HW256259   5.576   1.702   4.200  1.9379 -2.6417 -0.3973
17138SOL     OW56260   5.734   2.703   1.710 -0.0758  0.0538 -0.5457
17138SOL    HW156261   5.822   2.733   1.688  0.5229 -0.7919  0.5403
17138SOL    HW256262   5.696   2.774   1.762 -0.2581  0.6554 -1.4827
17139SOL     OW56263   6.885   0.505   9.540 -0.2818 -0.3133  0.0254
17139SOL    HW156264   6.860   0.583   9.490 -0.8791 -0.5488 -0.0512
17139SOL    HW256265   6.868   0.529   9.631  3.2131  1.0684  0.4806
17140SOL     OW56266   7.618   9.468   2.728  0.3079 -0.4049 -0.8185
17140SOL    HW156267   7.534   9.492   2.769  0.2340 -1.6373 -0.1835
17140SOL    HW256268   7.592   9.427   2.646  0.1439 -2.1431  0.0375
17141SOL     OW56269   5.833   0.735   2.787  0.5993 -0.0178 -0.5581
17141SOL    HW156270   5.884   0.686   2.722  0.7119 -0.6993  0.0236
17141SOL    HW256271   5.898   0.769   2.848  0.5475  1.1589 -1.1397
17142SOL     OW56272   7.134   0.131   0.213  0.4671 -0.0105  0.1997
17142SOL    HW156273   7.207   0.110   0.154 -0.7187 -1.0162 -0.9594
17142SOL    HW256274   7.077   0.188   0.162  0.0988  0.2340  0.8667
17143SOL     OW56275   6.775   9.290   0.304  0.2486 -0.1375  0.2354
17143SOL    HW156276   6.811   9.284   0.215 -0.6398  1.2659 -0.2657
17143SOL    HW256277   6.693   9.241   0.300  0.6342 -0.8041  0.5251
17144SOL     OW56278   6.748   1.994   0.131 -0.1925 -0.4289  0.0531
17144SOL    HW156279   6.816   2.013   0.066 -0.5062 -2.7113 -1.0166
17144SOL    HW256280   6.782   1.920   0.181  0.2303  1.5288  2.8827
17145SOL     OW56281   9.164   1.149   1.725  0.3688  0.0100 -0.4033
17145SOL    HW156282   9.196   1.239   1.713  0.6366 -0.1314 -0.8105
17145SOL    HW256283   9.241   1.100   1.753  0.0253  0.0751  0.6685
17146SOL     OW56284   5.760   9.174   8.020 -0.0359 -0.0201  0.7157
17146SOL    HW156285   5.811   9.191   7.941 -0.0997  0.6174  0.8109
17146SOL    HW256286   5.791   9.088   8.050 -1.1841 -1.0714 -0.9190
17147SOL     OW56287   4.898   1.071   1.281  0.5264 -0.2903 -0.5600
17147SOL    HW156288   4.827   1.056   1.219  0.9459 -0.0231 -1.1181
17147SOL    HW256289   4.869   1.030   1.362 -0.4313  0.1600 -0.6720
17148SOL     OW56290   7.808   8.477   0.768  0.0566  0.0303 -0.9235
17148SOL    HW156291   7.887   8.464   0.820  1.3320  0.7214 -2.5990
17148SOL    HW256292   7.768   8.556   0.804  0.0809 -0.3647 -0.0119
17149SOL     OW56293   5.151   6.959   1.454 -0.2171  0.6450 -0.0556
17149SOL    HW156294   5.244   6.966   1.432 -0.1357 -2.6765 -1.2838
17149SOL    HW256295   5.147   6.887   1.517 -1.9786  0.5884 -0.1987
17150SOL     OW56296   7.159   2.347   8.735 -0.2435 -0.3585  0.4809
17150SOL    HW156297   7.149   2.436   8.770  0.2548 -0.7927  1.7838
17150SOL    HW256298   7.253   2.336   8.725 -0.2989 -0.7950  0.4377
17151SOL     OW56299   6.025   1.392   2.040 -0.2728  0.0246  0.5171
17151SOL    HW156300   6.027   1.348   1.955 -1.8283 -0.6581  0.7850
17151SOL    HW256301   6.040   1.322   2.103 -1.4025  0.0819  0.8846
17152SOL     OW56302   8.491   8.493   9.830 -0.2625 -0.8549 -0.1487
17152SOL    HW156303   8.573   8.542   9.824 -1.1179  0.8584  1.0826
17152SOL    HW256304   8.490   8.459   9.920 -0.4040 -1.8260 -0.5054
17153SOL     OW56305   6.305   0.992   0.804 -0.0879 -0.0002 -0.5863
17153SOL    HW156306   6.330   0.947   0.723 -0.0039  0.0247 -0.5751
17153SOL    HW256307   6.211   0.980   0.811 -0.1904  0.4975 -0.9972
17154SOL     OW56308   6.580   2.088   2.506  0.2375  0.2598  0.6920
17154SOL    HW156309   6.611   2.175   2.479  2.8365 -0.8533 -0.2923
17154SOL    HW256310   6.659   2.044   2.540 -1.0147 -1.6872  1.2460
17155SOL     OW56311   6.907   1.714   2.227 -0.2713 -0.1628  0.2751
17155SOL    HW156312   6.940   1.660   2.299  3.0764  2.0572  0.6232
17155SOL    HW256313   6.916   1.659   2.150  1.3791 -0.7865  0.8591
17156SOL     OW56314   4.507   9.647   2.594  0.3081  0.1055 -0.4874
17156SOL    HW156315   4.524   9.683   2.681 -0.1552  2.6450 -1.3656
17156SOL    HW256316   4.433   9.587   2.608 -0.3189  1.1048  0.7518
17157SOL     OW56317   6.543   0.594   0.902  0.0258  0.2244 -0.3926
17157SOL    HW156318   6.500   0.643   0.972 -1.6345  0.3597 -1.4307
17157SOL    HW256319   6.504   0.507   0.906  1.4237 -0.4033  0.1152
17158SOL     OW56320   4.644   2.231   2.227  0.0502  0.3917  0.3010
17158SOL    HW156321   4.692   2.310   2.251  0.5924 -0.3517  1.7378
17158SOL    HW256322   4.605   2.201   2.309 -1.1980 -0.1517 -0.4610
17159SOL     OW56323   4.064   9.552   2.236  0.0549 -0.0728  0.1491
17159SOL    HW156324   4.082   9.634   2.282  0.5127 -1.4738  2.6164
17159SOL    HW256325   4.147   9.528   2.196 -0.2129  0.8757 -1.0614
17160SOL     OW56326   6.782   0.776   1.769 -0.6962 -0.0780  0.0417
17160SOL    HW156327   6.746   0.825   1.842  0.2858  2.4559 -1.0646
17160SOL    HW256328   6.707   0.732   1.729 -1.5576  0.2244  1.2809
17161SOL     OW56329   8.157   0.599   1.796  0.2379 -0.1652  0.2356
17161SOL    HW156330   8.073   0.598   1.750  0.8995  0.0748 -1.0082
17161SOL    HW256331   8.185   0.690   1.793  1.1193 -0.4511 -0.4466
17162SOL     OW56332   6.520   1.724   0.267  0.3489 -0.1186  0.5097
17162SOL    HW156333   6.586   1.687   0.208 -0.9209 -1.4267 -0.1725
17162SOL    HW256334   6.446   1.664   0.259 -0.5671  0.7645  1.9905
17163SOL     OW56335   8.052   3.332   1.271  0.1767  0.2006 -0.2105
17163SOL    HW156336   8.112   3.298   1.205  0.6753  0.3070  0.1787
17163SOL    HW256337   8.108   3.352   1.346 -0.3273  0.4387  0.1084
17164SOL     OW56338   6.645   1.017   4.171  0.5358  0.3763 -0.3305
17164SOL    HW156339   6.649   1.095   4.116  1.6166 -0.2534 -1.1966
17164SOL    HW256340   6.726   1.020   4.223 -0.8278  1.3843  1.9015
17165SOL     OW56341   7.200   2.251   9.858 -0.3921 -0.2038 -0.0310
17165SOL    HW156342   7.251   2.314   9.909 -1.8004  1.4667 -0.5806
17165SOL    HW256343   7.242   2.166   9.875  1.8867  0.9234  0.3447
17166SOL     OW56344   5.300   9.316   3.007 -0.2541 -0.2067  0.1113
17166SOL    HW156345   5.331   9.252   3.071 -1.8835  0.6726  1.8672
17166SOL    HW256346   5.275   9.263   2.931  2.5236 -1.1924 -0.2224
17167SOL     OW56347   5.336   8.188   1.492  0.2258 -0.2457 -0.1886
17167SOL    HW156348   5.321   8.254   1.559  0.2560 -1.6504  1.2683
17167SOL    HW256349   5.249   8.160   1.465  0.2095  0.4739 -0.9461
17168SOL     OW56350   4.618   1.419   0.382  0.0307  0.1825  0.2506
17168SOL    HW156351   4.580   1.376   0.306  0.0593  0.9415 -0.1983
17168SOL    HW256352   4.614   1.353   0.451 -1.7465  0.0961  0.1153
17169SOL     OW56353   7.672   2.763   0.654 -0.1416  0.7473 -0.4481
17169SOL    HW156354   7.683   2.797   0.743  0.6057  2.7489 -1.2413
17169SOL    HW256355   7.631   2.678   0.666 -1.5402  1.6313  1.7378
17170SOL     OW56356   8.839   1.135   1.258 -0.0624  0.5790  0.3960
17170SOL    HW156357   8.919   1.185   1.273 -0.3422  1.1241  0.0963
17170SOL    HW256358   8.851   1.055   1.309  0.8661  0.4505 -0.0030
17171SOL     OW56359   3.860   0.561   1.744  0.2669 -0.9069 -0.3473
17171SOL    HW156360   3.795   0.544   1.677  0.2087 -0.4576 -0.4080
17171SOL    HW256361   3.903   0.642   1.716 -1.2397  0.5337  1.2445
17172SOL     OW56362   6.202   9.535   1.929  0.2056 -0.1455 -0.0860
17172SOL    HW156363   6.187   9.615   1.979 -0.1719  0.3580 -0.9785
17172SOL    HW256364   6.292   9.543   1.896 -0.5630  1.0184 -2.0624
17173SOL     OW56365   5.847   9.086   1.659  0.0636 -0.2791  0.1473
17173SOL    HW156366   5.885   8.999   1.652 -2.3268 -1.5401  1.4995
17173SOL    HW256367   5.766   9.082   1.609 -1.0020  0.5563  1.7072
17174SOL     OW56368   7.310   0.066   0.021  0.3010 -0.3913  0.5268
17174SOL    HW156369   7.392   0.044   0.065 -0.4907  0.2866  2.4483
17174SOL    HW256370   7.333   0.138  -0.038  1.2126 -0.6501  0.5562
17175SOL     OW56371   4.576   1.878   4.077 -0.2460  0.0504  0.3268
17175SOL    HW156372   4.582   1.843   4.166 -0.8148 -0.6293  0.1074
17175SOL    HW256373   4.530   1.961   4.087  0.1346  0.2230  0.7184
17176SOL     OW56374   6.952   0.200   1.808 -0.8541  0.5534 -0.5731
17176SOL    HW156375   7.047   0.210   1.807 -0.9024  1.4134  0.4651
17176SOL    HW256376   6.925   0.242   1.890 -2.3142  2.0695 -1.7514
17177SOL     OW56377   7.907   2.129   1.532  0.0801 -0.4804 -0.1808
17177SOL    HW156378   7.995   2.161   1.511  0.7527 -2.4732 -0.6284
17177SOL    HW256379   7.848   2.189   1.486  1.2724 -0.0222 -1.1627
17178SOL     OW56380   7.943   1.068   1.438 -0.6919 -0.0193 -0.2804
17178SOL    HW156381   7.931   1.064   1.533 -0.9940 -0.2392 -0.3282
17178SOL    HW256382   7.856   1.050   1.402 -0.5879  0.1124 -0.5987
17179SOL     OW56383   5.738   1.479   1.578  0.0351 -0.5078  0.3319
17179SOL    HW156384   5.716   1.499   1.669  1.9802  0.6828  0.5836
17179SOL    HW256385   5.806   1.542   1.555  0.7291 -1.8314 -1.4409
17180SOL     OW56386   7.937   1.274   2.465  0.5534 -0.1897  0.2727
17180SOL    HW156387   7.929   1.284   2.371  1.0017 -1.5737  0.0633
17180SOL    HW256388   7.850   1.250   2.495  0.3992  0.3007  0.2362
17181SOL     OW56389   5.913   0.284   2.059  0.3595 -0.1125 -0.0313
17181SOL    HW156390   5.911   0.236   1.976 -0.3850  0.7958 -0.5596
17181SOL    HW256391   5.994   0.335   2.055  0.6417 -0.5475  0.0835
17182SOL     OW56392   3.914   3.885   0.877 -0.4862  0.4317 -0.3034
17182SOL    HW156393   3.994   3.930   0.852 -0.4030  1.4146  1.5432
17182SOL    HW256394   3.944   3.800   0.910  0.0559  1.3903  1.8922
17183SOL     OW56395   6.924   2.673   1.557  0.0328  0.0384 -0.1184
17183SOL    HW156396   6.848   2.685   1.614 -2.2121 -0.5443 -2.7598
17183SOL    HW256397   6.946   2.761   1.527  0.8044  0.2718  1.0834
17184SOL     OW56398   4.970   1.790   1.516 -0.1211 -0.3335 -0.2728
17184SOL    HW156399   5.026   1.713   1.528  0.3099  0.2447  1.7379
17184SOL    HW256400   4.994   1.849   1.588 -1.7517  0.8842 -0.6760
17185SOL     OW56401   6.789   0.851   0.159 -0.1205  0.3260  0.1980
17185SOL    HW156402   6.815   0.906   0.232 -0.5971  0.9173 -0.0744
17185SOL    HW256403   6.861   0.788   0.150 -0.9498 -1.1032  2.4989
17186SOL     OW56404   6.121   0.684   1.212 -1.3429  0.7509 -0.1349
17186SOL    HW156405   6.073   0.648   1.137 -1.3334  1.5326 -0.5241
17186SOL    HW256406   6.062   0.751   1.247 -1.1803  0.6554  0.3311
17187SOL     OW56407   6.765   1.272   1.095  0.0962 -0.0100 -0.0432
17187SOL    HW156408   6.843   1.221   1.074  0.5159  0.9775 -0.9371
17187SOL    HW256409   6.715   1.215   1.154  0.8821 -1.1606 -0.4479
17188SOL     OW56410   6.369   0.981   1.225 -0.2344  0.3005  0.5733
17188SOL    HW156411   6.420   1.041   1.171 -0.7270  1.2710  1.1482
17188SOL    HW256412   6.278   1.005   1.207 -0.7657 -3.1289 -2.4954
17189SOL     OW56413   5.349   1.075   2.849  0.4377 -0.1050  0.3346
17189SOL    HW156414   5.306   0.989   2.854 -0.1931  0.0810 -1.4059
17189SOL    HW256415   5.316   1.122   2.926 -3.0662  0.2549 -1.1771
17190SOL     OW56416   6.758   0.700   9.384  0.8990 -0.1970 -0.2571
17190SOL    HW156417   6.691   0.691   9.452  0.8347  0.0725 -0.2831
17190SOL    HW256418   6.713   0.677   9.302  0.9769 -0.5226 -0.2113
17191SOL     OW56419   8.133   0.488   3.783 -0.2695 -0.7010 -0.0440
17191SOL    HW156420   8.092   0.405   3.809 -1.7612 -0.0380 -0.2095
17191SOL    HW256421   8.134   0.485   3.688 -1.4107 -0.0522 -0.0974
17192SOL     OW56422   5.653   0.151   4.029 -0.4342  0.3026 -0.0087
17192SOL    HW156423   5.612   0.095   3.963 -0.0791 -0.1356  0.1403
17192SOL    HW256424   5.599   0.138   4.108  0.0607 -0.3788  0.2261
17193SOL     OW56425   4.823   0.185   2.591  0.0898 -0.1118  0.4098
17193SOL    HW156426   4.766   0.226   2.526 -1.0331 -0.8645  0.8869
17193SOL    HW256427   4.858   0.107   2.546  0.4785  0.1607  0.2335
17194SOL     OW56428   8.141   2.095   0.758 -0.1982  0.7721 -0.0598
17194SOL    HW156429   8.093   2.082   0.839  1.3064  1.2905  0.9703
17194SOL    HW256430   8.089   2.050   0.691  0.2607 -2.7928  1.7557
17195SOL     OW56431   6.555   2.424   2.630 -0.0446  0.1681 -0.0389
17195SOL    HW156432   6.586   2.339   2.599 -1.3166 -0.3065 -0.0439
17195SOL    HW256433   6.631   2.481   2.621  0.6727 -0.8319 -0.5475
17196SOL     OW56434   7.294   3.280   2.915 -0.3685 -0.7439 -0.2289
17196SOL    HW156435   7.319   3.329   2.994 -0.7265 -0.8223 -0.0663
17196SOL    HW256436   7.299   3.188   2.941 -0.7857 -0.7616 -0.2054
17197SOL     OW56437   4.050   1.631   2.023 -0.4224  0.4080 -0.5226
17197SOL    HW156438   4.119   1.617   1.959  0.0305 -0.5626  0.1464
17197SOL    HW256439   4.083   1.590   2.103 -1.7324 -0.0425 -0.1812
17198SOL     OW56440   4.602   0.448   1.537  0.1307 -0.2283  0.1449
17198SOL    HW156441   4.673   0.440   1.474 -1.4882 -1.2785 -1.6524
17198SOL    HW256442   4.609   0.537   1.571  0.1568  0.9233 -2.6722
17199SOL     OW56443   5.998   1.143   1.530  0.2218  0.1224 -0.0784
17199SOL    HW156444   6.024   1.094   1.607 -0.0188  0.4958  0.2430
17199SOL    HW256445   5.906   1.165   1.545  0.8311  2.4220  0.7538
17200SOL     OW56446   7.904   1.246   2.797 -1.0695  0.3885  0.1203
17200SOL    HW156447   7.857   1.310   2.744 -0.0468  0.4691 -0.7274
17200SOL    HW256448   7.987   1.232   2.751 -1.3195 -1.6842  0.1900
17201SOL     OW56449   6.773   9.841   1.780 -0.0901  0.2542 -0.2148
17201SOL    HW156450   6.832   9.916   1.793  0.0827 -0.0761  1.1141
17201SOL    HW256451   6.696   9.879   1.738  0.1649  1.1123  0.0632
17202SOL     OW56452   6.138   2.222   1.313  0.0560  0.2597  0.5291
17202SOL    HW156453   6.203   2.185   1.254  0.4115  0.4516  0.7978
17202SOL    HW256454   6.181   2.223   1.398 -0.7806 -0.9216  1.0063
17203SOL     OW56455   3.667   0.676   0.944 -0.1433  0.4729  0.2900
17203SOL    HW156456   3.576   0.695   0.924 -0.0772 -0.2035 -0.7447
17203SOL    HW256457   3.663   0.609   1.013 -0.5620 -2.3170 -2.2416
17204SOL     OW56458   6.324   0.181   1.646 -0.0424 -0.3419 -0.8005
17204SOL    HW156459   6.233   0.159   1.625 -0.8799  0.1770  1.8698
17204SOL    HW256460   6.329   0.275   1.634  0.1316 -0.3618 -0.8854
17205SOL     OW56461   5.762   2.765   0.781  0.2179 -0.2777 -0.6125
17205SOL    HW156462   5.667   2.754   0.780 -0.5327  4.2064 -0.7150
17205SOL    HW256463   5.783   2.793   0.691  1.3569  0.2443 -0.1962
17206SOL     OW56464   9.150   1.959   3.095  0.1868 -0.5441  0.6811
17206SOL    HW156465   9.186   1.878   3.131 -0.7118 -1.3077 -0.0744
17206SOL    HW256466   9.057   1.941   3.083  0.0464  0.4607  0.1137
17207SOL     OW56467   7.112   0.176   3.413  0.1651  0.4673  0.9901
17207SOL    HW156468   7.191   0.177   3.468  0.1159 -0.4246  1.0866
17207SOL    HW256469   7.117   0.094   3.365 -1.2618 -0.1525  1.8361
17208SOL     OW56470   5.004   1.771   2.266  0.3302 -0.1670 -0.0594
17208SOL    HW156471   4.934   1.836   2.269  0.6112  0.0961  1.7339
17208SOL    HW256472   5.083   1.821   2.245  0.7559  0.3289  2.4678
17209SOL     OW56473   7.656   2.452   3.756 -0.2034 -0.1662 -0.1541
17209SOL    HW156474   7.626   2.498   3.678  0.5569  0.4715 -0.0888
17209SOL    HW256475   7.739   2.495   3.779 -0.3597 -0.4131  0.9420
17210SOL     OW56476   4.351   2.416   2.925 -0.1489  0.5557 -0.3172
17210SOL    HW156477   4.316   2.343   2.975  2.4801 -0.4479  0.2307
17210SOL    HW256478   4.436   2.435   2.966  0.0150  2.7806 -1.5293
17211SOL     OW56479   7.830   7.831   3.648 -0.3558 -0.2835  0.2148
17211SOL    HW156480   7.819   7.824   3.553 -0.7847  3.3577 -0.1829
17211SOL    HW256481   7.923   7.848   3.660 -0.4408  0.1422  0.3056
17212SOL     OW56482   6.155   5.033   4.509  0.0311 -0.0504 -0.4398
17212SOL    HW156483   6.230   5.078   4.471  0.1967  0.4720  0.4687
17212SOL    HW256484   6.189   4.991   4.588 -0.2682 -1.2542 -0.9291
17213SOL     OW56485   5.197   9.286   1.742  0.0980 -0.3791  0.3823
17213SOL    HW156486   5.160   9.209   1.699 -1.3349  0.5610 -0.1521
17213SOL    HW256487   5.254   9.326   1.676 -0.0904 -0.3356  0.2453
17214SOL     OW56488   8.689   2.442   4.454  0.2420 -0.1407  0.5308
17214SOL    HW156489   8.706   2.429   4.361  0.4600 -0.3183  0.5943
17214SOL    HW256490   8.747   2.379   4.498  0.0442 -0.1501  0.7804
17215SOL     OW56491   5.597   1.989   2.464  0.4950  0.3546 -0.3325
17215SOL    HW156492   5.685   2.003   2.428  1.6429 -1.1471  1.7098
17215SOL    HW256493   5.586   1.894   2.465  0.1880  0.3421  2.2995
17216SOL     OW56494   3.926   1.438   4.487  0.1501 -0.2300  0.1133
17216SOL    HW156495   3.916   1.472   4.397 -1.6903 -0.4527  0.1870
17216SOL    HW256496   4.000   1.378   4.482 -2.2614 -3.3501 -2.3018
17217SOL     OW56497   5.167   1.520   2.500 -0.1899  0.1369  0.0874
17217SOL    HW156498   5.219   1.599   2.486 -1.4133  0.4884 -3.6418
17217SOL    HW256499   5.231   1.449   2.503  0.7511  0.9831  0.6769
17218SOL     OW56500   5.475   9.731   3.432 -0.1647 -0.0826 -0.0088
17218SOL    HW156501   5.395   9.681   3.413 -0.2747  0.1010 -0.0376
17218SOL    HW256502   5.465   9.812   3.381  0.2237 -0.2310 -0.3226
17219SOL     OW56503   7.740   9.569   2.095 -0.3836  0.7791  0.4837
17219SOL    HW156504   7.665   9.535   2.142  0.2768 -0.8606  0.4364
17219SOL    HW256505   7.717   9.559   2.002 -0.5822  1.4067  0.4632
17220SOL     OW56506   4.245   8.568   3.135 -0.1741  0.3335  0.1940
17220SOL    HW156507   4.244   8.619   3.054  0.4074 -1.2292 -0.8402
17220SOL    HW256508   4.164   8.519   3.134 -0.0375  0.1024  0.4220
17221SOL     OW56509   4.509   3.011   4.324  0.4895  0.6308  0.0412
17221SOL    HW156510   4.561   2.983   4.399  1.0091  1.8562  0.1511
17221SOL    HW256511   4.425   3.038   4.361  0.4764  0.5183  0.0937
17222SOL     OW56512   5.944   2.394   5.199  0.0652 -0.6663 -0.2657
17222SOL    HW156513   5.869   2.440   5.238 -0.4999 -1.7544 -0.0228
17222SOL    HW256514   5.909   2.358   5.117  0.7024 -0.0644 -0.8118
17223SOL     OW56515   7.545   0.363   3.515  0.3100 -1.0064 -0.7435
17223SOL    HW156516   7.589   0.414   3.447  1.5402 -1.1116 -0.0675
17223SOL    HW256517   7.581   0.397   3.597 -0.4128 -1.5406 -0.1966
17224SOL     OW56518   5.909   0.657   2.088 -0.9671  0.2163  0.4207
17224SOL    HW156519   5.858   0.658   2.169  0.0206  0.2359  1.0596
17224SOL    HW256520   5.977   0.592   2.104  0.6833  1.8935  0.5247
17225SOL     OW56521   6.008   9.796   0.628 -0.4074  0.1697  0.4584
17225SOL    HW156522   6.045   9.783   0.540  0.4048  0.4704  0.7459
17225SOL    HW256523   6.002   9.708   0.665 -1.4893 -0.0481 -0.1716
17226SOL     OW56524   4.496   2.096   1.449 -0.1359  0.3310 -0.6379
17226SOL    HW156525   4.584   2.067   1.474 -1.1823 -1.1373  1.5837
17226SOL    HW256526   4.455   2.018   1.412 -0.6562  0.8970 -1.2665
17227SOL     OW56527   6.504   0.794   2.713  0.4472  0.1071  0.0075
17227SOL    HW156528   6.506   0.722   2.649  1.6919 -0.6319  0.8333
17227SOL    HW256529   6.544   0.868   2.667  0.1546 -0.0345 -0.4877
17228SOL     OW56530   6.743   1.782   1.510  0.5460  0.1902 -0.4868
17228SOL    HW156531   6.703   1.760   1.425 -0.5893 -0.2480  0.1345
17228SOL    HW256532   6.740   1.700   1.559 -3.9267  1.4417  1.9436
17229SOL     OW56533   8.311   0.924   3.231 -0.0491  0.1821  0.1159
17229SOL    HW156534   8.326   0.831   3.212 -1.6903 -0.2653  0.8133
17229SOL    HW256535   8.243   0.950   3.168 -1.3635  0.2209  1.4948
17230SOL     OW56536   5.177   7.088   7.006 -0.0448  0.4863  0.5815
17230SOL    HW156537   5.162   7.175   6.968  0.7563  0.2108 -0.4305
17230SOL    HW256538   5.109   7.033   6.968 -1.1828  0.8558  2.0026
17231SOL     OW56539   7.428   9.226   5.195 -0.3031  0.7811  0.4129
17231SOL    HW156540   7.522   9.225   5.211 -0.3190 -0.4086  0.5012
17231SOL    HW256541   7.417   9.173   5.116 -1.2225 -2.3730  2.4983
17232SOL     OW56542   8.121   1.975   5.407 -0.1288 -0.0039 -0.5908
17232SOL    HW156543   8.099   1.903   5.466 -1.5432  0.7508 -0.1393
17232SOL    HW256544   8.202   2.012   5.443 -1.5078  1.1222  1.6161
17233SOL     OW56545   7.280   9.196   3.200 -0.4198  0.3248  0.4284
17233SOL    HW156546   7.373   9.200   3.180 -0.4340 -0.8702  0.0619
17233SOL    HW256547   7.245   9.280   3.171  0.3989  0.4652 -0.1747
17234SOL     OW56548   7.627   2.805   3.589 -0.5468  0.2541 -0.3981
17234SOL    HW156549   7.635   2.716   3.553 -0.4759  0.6670 -1.4188
17234SOL    HW256550   7.537   2.810   3.622 -0.8261  0.0957 -1.1345
17235SOL     OW56551   9.426   1.337   0.788  0.6563  0.0345  0.1796
17235SOL    HW156552   9.496   1.292   0.834  1.4361  0.0536 -0.9436
17235SOL    HW256553   9.471   1.392   0.724 -0.3803 -0.0796 -0.6719
17236SOL     OW56554   9.201   0.836   3.305 -0.2097 -0.2845  0.6347
17236SOL    HW156555   9.232   0.802   3.389  0.0508  0.0150  0.6579
17236SOL    HW256556   9.261   0.907   3.283 -0.4694 -0.1486  0.3501
17237SOL     OW56557   6.778   1.749   3.663 -0.1891  0.0248  0.2163
17237SOL    HW156558   6.788   1.826   3.719 -1.6174  0.7468 -0.4617
17237SOL    HW256559   6.805   1.778   3.576  0.2686 -0.5543  0.1598
17238SOL     OW56560   6.558   1.422   1.833  0.5201  0.1658 -0.0535
17238SOL    HW156561   6.627   1.357   1.850  1.3750  1.2382  0.7027
17238SOL    HW256562   6.488   1.372   1.790  1.6301 -1.0140 -0.5523
17239SOL     OW56563   7.590   0.390   2.201  0.0750 -0.4326 -0.4113
17239SOL    HW156564   7.510   0.353   2.162 -1.3470  2.6283 -0.7622
17239SOL    HW256565   7.591   0.356   2.290 -1.3676 -0.9584 -0.5645
17240SOL     OW56566   6.445   1.163   2.217  0.0140 -0.0044 -0.1186
17240SOL    HW156567   6.434   1.165   2.122 -0.3533  2.7535 -0.0907
17240SOL    HW256568   6.356   1.157   2.251  0.0774  0.0736  0.0600
17241SOL     OW56569   5.825   3.924   3.987 -0.0393  0.8658  0.7378
17241SOL    HW156570   5.784   3.979   3.920  0.1537 -0.8482 -0.8562
17241SOL    HW256571   5.912   3.903   3.951 -0.2935 -0.8550  1.0729
17242SOL     OW56572   5.737   1.357   3.969 -0.0970 -0.3586  0.5569
17242SOL    HW156573   5.684   1.287   3.931  0.0776  0.2743 -0.8851
17242SOL    HW256574   5.816   1.359   3.915 -0.3569  1.3507  0.2026
17243SOL     OW56575   5.355   9.164   9.308  0.0205 -0.0082 -0.6930
17243SOL    HW156576   5.356   9.171   9.404 -0.6710  0.3900 -0.7135
17243SOL    HW256577   5.406   9.239   9.278 -0.1009  0.0916 -0.6488
17244SOL     OW56578   8.119   2.408   0.885  0.1366 -0.6353 -0.3346
17244SOL    HW156579   8.127   2.496   0.849 -0.7332 -0.3183  0.2430
17244SOL    HW256580   8.149   2.351   0.813  1.0324  0.1282 -0.5922
17245SOL     OW56581   5.087   2.012   4.936  0.3116 -0.5077  0.2780
17245SOL    HW156582   5.085   2.042   4.845  1.3766 -0.8375  0.1340
17245SOL    HW256583   5.092   2.093   4.987  0.0470 -0.3308  0.0271
17246SOL     OW56584   4.736   0.616   2.200  0.7078 -0.4195 -0.2969
17246SOL    HW156585   4.684   0.579   2.128 -0.4629  1.6378 -0.5798
17246SOL    HW256586   4.698   0.577   2.279 -0.9760  0.6242 -0.5415
17247SOL     OW56587   4.242   7.504   4.209 -0.0947  0.2784  0.5585
17247SOL    HW156588   4.165   7.467   4.166  0.2859  0.3552 -0.2173
17247SOL    HW256589   4.226   7.491   4.302 -1.2684  0.7389  0.4387
17248SOL     OW56590   5.259   1.200   9.753  0.2844 -0.6629 -0.4479
17248SOL    HW156591   5.195   1.237   9.814 -0.5903 -0.1114 -1.6650
17248SOL    HW256592   5.272   1.110   9.783 -1.3760 -0.9137 -0.3943
17249SOL     OW56593   7.703   0.775   2.471  0.1600  0.0472 -0.4932
17249SOL    HW156594   7.782   0.822   2.499  0.4417 -0.2522 -0.7801
17249SOL    HW256595   7.730   0.684   2.463 -0.3776 -0.1628  0.0211
17250SOL     OW56596   6.354   3.009   2.456  0.2576 -0.2968 -0.2195
17250SOL    HW156597   6.344   3.057   2.374  0.8028  2.1708  1.0396
17250SOL    HW256598   6.272   2.961   2.466 -0.4779  0.6273 -1.4431
17251SOL     OW56599   7.193   1.371   2.483 -0.3302 -0.4132  0.7068
17251SOL    HW156600   7.190   1.303   2.416  1.1799  0.4046 -0.2575
17251SOL    HW256601   7.272   1.352   2.533 -0.1054  0.3880  0.6738
17252SOL     OW56602   8.358   0.149   4.459 -0.7302 -0.0548  0.0541
17252SOL    HW156603   8.366   0.054   4.461 -0.2056 -0.0640 -1.1834
17252SOL    HW256604   8.403   0.175   4.378 -1.6904  1.1621 -0.1274
17253SOL     OW56605   4.568   1.417   1.798 -0.0273  0.4322  0.1394
17253SOL    HW156606   4.526   1.378   1.722 -0.5179 -1.0673  1.1261
17253SOL    HW256607   4.642   1.467   1.763  0.3193 -1.0008 -1.2349
17254SOL     OW56608   5.811   9.282   3.542 -0.0387  0.3470  0.3881
17254SOL    HW156609   5.793   9.236   3.460  1.4088  0.7766 -0.1910
17254SOL    HW256610   5.881   9.343   3.520  0.2961  0.5398  1.9269
17255SOL     OW56611   3.891   1.909   3.710 -0.2108  0.3658  0.2787
17255SOL    HW156612   3.859   1.821   3.690 -0.1516  0.5885 -0.8536
17255SOL    HW256613   3.815   1.955   3.746 -0.4504  0.0935  0.1239
17256SOL     OW56614   8.614   2.832   1.997  0.5216  0.1332  0.3279
17256SOL    HW156615   8.584   2.741   1.998  0.1248  0.2150 -1.1179
17256SOL    HW256616   8.698   2.829   1.951  1.8539  0.1718  2.6329
17257SOL     OW56617   5.431   1.818   2.789  0.2008 -0.7041  0.1142
17257SOL    HW156618   5.407   1.770   2.710 -0.6615 -3.8344  2.0954
17257SOL    HW256619   5.387   1.903   2.780 -0.8664 -1.4227 -2.1735
17258SOL     OW56620   7.506   1.038   1.606 -0.1814  0.0736 -0.2633
17258SOL    HW156621   7.440   1.024   1.538  0.6550  1.7561 -1.4980
17258SOL    HW256622   7.501   0.960   1.661 -1.9637 -0.6340 -1.3474
17259SOL     OW56623   4.810   1.289   3.421 -0.2968  0.0308 -0.1112
17259SOL    HW156624   4.835   1.282   3.513 -2.6310  1.1873  0.6823
17259SOL    HW256625   4.738   1.227   3.411 -0.3618  0.2456 -1.0357
17260SOL     OW56626   7.906   1.564   1.754  0.0340  0.2077 -0.3747
17260SOL    HW156627   7.977   1.612   1.795  0.8632  1.6014 -3.1611
17260SOL    HW256628   7.944   1.480   1.730  0.0835  0.1126  0.0283
17261SOL     OW56629   4.707   9.789   2.850  0.1166  0.2297 -0.3091
17261SOL    HW156630   4.701   9.885   2.857  4.0028  0.6058  0.2033
17261SOL    HW256631   4.705   9.759   2.941 -3.1489 -0.5569 -0.4959
17262SOL     OW56632   5.413   0.265   2.870  0.4993 -0.0232 -0.0536
17262SOL    HW156633   5.410   0.360   2.862  0.9535 -0.0161 -0.1340
17262SOL    HW256634   5.322   0.240   2.889  0.3968  0.4303  0.0595
17263SOL     OW56635   4.933   1.642   4.585  0.0526 -0.2358  0.5948
17263SOL    HW156636   4.843   1.634   4.554  0.5775 -1.1793 -0.8246
17263SOL    HW256637   4.933   1.598   4.670 -0.7683 -0.4911  0.4759
17264SOL     OW56638   8.220   2.713   3.247 -0.3898  0.5211 -0.0434
17264SOL    HW156639   8.208   2.807   3.258  1.4658  0.8762 -0.7457
17264SOL    HW256640   8.279   2.687   3.318 -1.3461 -0.2381  0.4980
17265SOL     OW56641   7.656   2.264   1.154 -0.0900 -0.1643  0.2800
17265SOL    HW156642   7.583   2.321   1.130 -0.2233  0.3288  1.7942
17265SOL    HW256643   7.706   2.254   1.072 -1.0088  0.7133 -0.4145
17266SOL     OW56644   7.459   2.515   4.400  0.2951  0.4824  0.1330
17266SOL    HW156645   7.495   2.515   4.312  0.4070 -0.3878  0.1757
17266SOL    HW256646   7.529   2.480   4.455 -0.0906  0.1779  0.4338
17267SOL     OW56647   7.092   3.024   4.825  0.6196 -0.2923 -0.3112
17267SOL    HW156648   7.130   3.111   4.838  0.3016 -0.4480  2.2674
17267SOL    HW256649   7.140   2.987   4.751  1.3339  1.7543 -0.9254
17268SOL     OW56650   3.508   0.264   2.249  0.4786 -0.3474 -0.3065
17268SOL    HW156651   3.439   0.287   2.311  0.1054  2.3510 -1.6015
17268SOL    HW256652   3.588   0.302   2.287  0.4782  0.2006 -0.8494
17269SOL     OW56653   4.865   0.223   2.031  0.7733 -0.7437  0.5722
17269SOL    HW156654   4.861   0.227   2.126 -0.2046 -1.9716  0.6194
17269SOL    HW256655   4.954   0.249   2.008  1.1822 -0.9860  1.8578
17270SOL     OW56656   5.167   0.511   3.049  0.2897  0.8734  0.3353
17270SOL    HW156657   5.198   0.435   3.098 -0.2780  0.8128  0.6030
17270SOL    HW256658   5.219   0.510   2.969 -0.2632 -0.2653 -0.0322
17271SOL     OW56659   8.061   1.976   4.515  0.2464  0.3748  0.6392
17271SOL    HW156660   7.976   1.993   4.474 -0.3244 -0.0510  1.5992
17271SOL    HW256661   8.125   2.015   4.456 -0.5093 -0.5061 -0.8178
17272SOL     OW56662   8.649   2.228   4.659  0.1733 -0.6588 -0.4279
17272SOL    HW156663   8.610   2.309   4.692  1.1289  0.3446 -1.6475
17272SOL    HW256664   8.599   2.158   4.702 -1.3242  0.5602 -0.0846
17273SOL     OW56665   8.073   2.519   2.541  0.2660 -0.7539  0.2512
17273SOL    HW156666   7.987   2.479   2.526  0.5583 -0.5916 -2.3258
17273SOL    HW256667   8.132   2.471   2.483  1.4260  0.6672  0.2023
17274SOL     OW56668   6.730   3.401   3.835 -0.5338  0.2003  0.1017
17274SOL    HW156669   6.749   3.341   3.762 -1.7551  0.1795 -0.2216
17274SOL    HW256670   6.723   3.344   3.911 -2.1236 -0.1678 -0.2782
17275SOL     OW56671   8.107   1.001   3.013 -0.3341 -0.0764 -0.0968
17275SOL    HW156672   8.066   0.935   2.957 -1.6018 -1.8300  2.6661
17275SOL    HW256673   8.037   1.027   3.073  0.8727  1.9246  0.5186
17276SOL     OW56674   8.072   2.313   4.503  0.7760 -0.5634 -0.0242
17276SOL    HW156675   8.012   2.325   4.430 -0.4427 -1.9697  0.6808
17276SOL    HW256676   8.125   2.237   4.478  0.9087 -0.5451  0.1940
17277SOL     OW56677   5.435   9.491   1.479 -0.2882  0.3896  0.9642
17277SOL    HW156678   5.351   9.536   1.471  0.1517  1.1627  0.5653
17277SOL    HW256679   5.492   9.536   1.417 -0.0788 -1.3523 -0.1657
17278SOL     OW56680   7.501   1.604   5.182 -0.8207 -0.1557 -0.5328
17278SOL    HW156681   7.524   1.557   5.262 -2.1972  1.2047  0.7223
17278SOL    HW256682   7.406   1.591   5.173 -0.6497 -0.5359 -2.1426
17279SOL     OW56683   5.634   0.473   3.184 -0.2207  0.9908  0.9038
17279SOL    HW156684   5.671   0.514   3.106  1.8842 -0.2240  1.1849
17279SOL    HW256685   5.673   0.385   3.186 -1.1056  0.5808  2.7158
17280SOL     OW56686   6.738   5.422   5.792 -0.4304 -0.1798 -0.2885
17280SOL    HW156687   6.704   5.334   5.810 -0.5003  0.0020  0.4768
17280SOL    HW256688   6.772   5.452   5.876  0.1186  0.2992 -0.6797
17281SOL     OW56689   6.392   3.538   4.530  0.4034 -0.5036 -0.0157
17281SOL    HW156690   6.304   3.548   4.493 -0.1007 -0.2910  1.2003
17281SOL    HW256691   6.420   3.451   4.504 -0.0336 -0.4555 -0.6731
17282SOL     OW56692   5.757   8.264   3.227  0.2016 -0.4515 -0.1031
17282SOL    HW156693   5.675   8.312   3.214  0.5806  0.1632 -0.2589
17282SOL    HW256694   5.743   8.215   3.308 -0.1017  0.1076  0.1872
17283SOL     OW56695   4.408   8.482   2.478 -0.5813  0.3194 -1.3330
17283SOL    HW156696   4.385   8.389   2.480  0.9438 -0.1398  1.7941
17283SOL    HW256697   4.467   8.492   2.404 -0.1408 -1.4099 -1.2490
17284SOL     OW56698   5.734   2.488   2.445  0.4669 -0.7129 -0.3922
17284SOL    HW156699   5.799   2.418   2.459  1.5323  0.4538  0.6874
17284SOL    HW256700   5.778   2.551   2.389  0.4995  0.3529  0.7829
17285SOL     OW56701   6.626   1.634   3.112  0.2812 -0.3557 -0.3507
17285SOL    HW156702   6.607   1.553   3.065 -0.7097 -0.3019 -0.0572
17285SOL    HW256703   6.568   1.699   3.074 -1.9055 -0.7205  2.0952
17286SOL     OW56704   6.195   2.892   3.861 -0.6720  0.2446  0.2401
17286SOL    HW156705   6.281   2.868   3.895 -0.6056  0.9243  0.5743
17286SOL    HW256706   6.205   2.984   3.837 -1.8288  0.9094  2.0789
17287SOL     OW56707   5.462   0.030   2.060 -0.5811 -0.1008  0.3456
17287SOL    HW156708   5.528  -0.008   2.002  1.8345  1.5859  1.8017
17287SOL    HW256709   5.415  -0.046   2.095  1.6530 -1.5467  0.4364
17288SOL     OW56710   4.644   8.441   2.680 -0.2271 -0.5679  0.2893
17288SOL    HW156711   4.720   8.415   2.628 -0.3705 -1.0043  0.2940
17288SOL    HW256712   4.622   8.528   2.647 -0.0292 -0.6464 -0.0600
17289SOL     OW56713   6.033   1.882   3.168 -0.0498  0.6654  0.6869
17289SOL    HW156714   6.099   1.903   3.235  1.3345  1.4124 -0.8490
17289SOL    HW256715   6.014   1.966   3.126  1.9657 -0.2213 -2.3289
17290SOL     OW56716   6.688   1.655   4.076  0.0550  0.0979  0.2515
17290SOL    HW156717   6.639   1.573   4.073 -1.0685  0.7593 -1.3711
17290SOL    HW256718   6.651   1.703   4.150 -0.7870  0.0073 -0.1015
17291SOL     OW56719   5.078   2.748   0.984 -0.2600  0.6037 -0.2245
17291SOL    HW156720   5.068   2.785   1.072 -0.0920  0.6244 -0.2137
17291SOL    HW256721   5.172   2.753   0.966  0.0380 -1.4696  0.5110
17292SOL     OW56722   6.866   3.109   1.771 -0.3437  0.4979  0.2688
17292SOL    HW156723   6.789   3.061   1.799 -0.1167 -0.0472 -0.0077
17292SOL    HW256724   6.920   3.117   1.850  0.1144 -0.6788  0.1012
17293SOL     OW56725   7.975   8.788   3.212 -0.3650  0.2784  0.8278
17293SOL    HW156726   8.056   8.752   3.177 -0.0177 -0.0917  1.9776
17293SOL    HW256727   7.911   8.777   3.141  0.5090  0.3273  0.0162
17294SOL     OW56728   7.239   0.715   5.881 -0.4412  0.1495  0.6197
17294SOL    HW156729   7.298   0.770   5.933 -0.6487  0.1446  0.8577
17294SOL    HW256730   7.263   0.735   5.790 -1.3561  1.5695  0.6524
17295SOL     OW56731   6.428   3.210   4.304 -0.0634 -0.2466  0.8318
17295SOL    HW156732   6.358   3.269   4.277 -0.3297 -0.0674  1.9098
17295SOL    HW256733   6.385   3.140   4.352  0.5130 -0.0036  1.7217
17296SOL     OW56734   4.696   9.429   3.896  0.6743 -0.1802  0.3937
17296SOL    HW156735   4.608   9.403   3.922  0.3808  1.4181  1.0798
17296SOL    HW256736   4.740   9.452   3.978  1.5110 -0.2574 -0.0161
17297SOL     OW56737   4.776   0.689   1.650  0.1512  0.3447  0.0114
17297SOL    HW156738   4.825   0.637   1.713  0.9591  1.1571  0.0755
17297SOL    HW256739   4.820   0.673   1.566 -0.1443  0.2492 -0.1297
17298SOL     OW56740   4.529   2.466   1.733  0.4818  0.3259  0.1376
17298SOL    HW156741   4.509   2.377   1.704  0.5813  0.3665 -0.0609
17298SOL    HW256742   4.530   2.518   1.652  0.7028  0.4525  0.2210
17299SOL     OW56743   6.448   0.308   0.871  0.0272  0.2384 -0.2801
17299SOL    HW156744   6.375   0.351   0.828 -0.0270 -0.5610 -1.0210
17299SOL    HW256745   6.445   0.218   0.839 -0.0144 -0.4049  1.4137
17300SOL     OW56746   5.124   8.335   0.572 -0.7759  0.5864  0.3917
17300SOL    HW156747   5.097   8.385   0.649 -0.0007  1.0612  0.3721
17300SOL    HW256748   5.166   8.257   0.607 -2.7164 -0.4946  0.4187
17301SOL     OW56749   4.423   9.252   3.904  0.1314 -0.7123 -0.3154
17301SOL    HW156750   4.335   9.269   3.938 -0.8252 -0.0889 -2.8806
17301SOL    HW256751   4.446   9.166   3.940 -2.3992 -1.8489 -1.1754
17302SOL     OW56752   6.193   6.799   5.034  0.3027  0.2915  0.3971
17302SOL    HW156753   6.239   6.738   5.092  0.4296  2.1428  2.3706
17302SOL    HW256754   6.202   6.884   5.077 -3.0175  1.1226 -0.3020
17303SOL     OW56755   5.496   1.270   3.447 -0.7022  0.0350  0.2006
17303SOL    HW156756   5.406   1.286   3.474 -0.2231  4.3633  0.0142
17303SOL    HW256757   5.513   1.336   3.379  2.0509 -1.9274 -1.2262
17304SOL     OW56758   8.372   1.752   1.690  0.2732  0.0672 -0.0429
17304SOL    HW156759   8.300   1.692   1.708  1.2686 -0.7418  1.5293
17304SOL    HW256760   8.335   1.839   1.698 -1.6703 -0.1248 -4.1679
17305SOL     OW56761   6.874   2.437   0.163 -0.7003 -0.1134  0.2932
17305SOL    HW156762   6.793   2.464   0.119 -0.7872 -4.4084 -2.8241
17305SOL    HW256763   6.934   2.511   0.149 -2.1582  0.6305 -3.2224
17306SOL     OW56764   6.054   3.838   3.890 -0.0640  0.2088 -0.8084
17306SOL    HW156765   6.099   3.915   3.855  0.2842  0.5086  0.2381
17306SOL    HW256766   6.123   3.786   3.931 -0.7679  1.6530  2.5936
17307SOL     OW56767   4.513   2.871   3.543 -0.7261  0.3354  0.1658
17307SOL    HW156768   4.603   2.865   3.511 -1.4748  1.2703 -2.3527
17307SOL    HW256769   4.490   2.780   3.565  0.4797 -0.0721 -0.1603
17308SOL     OW56770   8.419   1.584   3.146 -0.7162 -0.3386 -0.5769
17308SOL    HW156771   8.360   1.590   3.221  0.6077 -2.0983  0.6794
17308SOL    HW256772   8.460   1.498   3.154  0.2572 -0.1493 -2.7527
17309SOL     OW56773   8.704   9.219   4.304  0.0744  0.4193  0.1255
17309SOL    HW156774   8.740   9.131   4.320  0.2968  0.3151 -0.8948
17309SOL    HW256775   8.700   9.226   4.209  1.5278  2.1239  0.1497
17310SOL     OW56776   5.806   0.095   4.369  0.4956  0.5814 -0.4459
17310SOL    HW156777   5.714   0.114   4.387  0.4533  0.6316 -0.7145
17310SOL    HW256778   5.838   0.170   4.319  1.1882  1.4599  1.2261
17311SOL     OW56779   9.015   1.787   9.556 -0.0073 -0.2060  0.4877
17311SOL    HW156780   9.108   1.771   9.538  0.0300 -0.2982  0.7592
17311SOL    HW256781   8.989   1.853   9.491  0.1265 -0.5329  0.0959
17312SOL     OW56782   6.072   1.480   2.863  0.3004 -0.7418 -0.1347
17312SOL    HW156783   6.122   1.559   2.883 -0.3610 -0.1425 -0.8068
17312SOL    HW256784   6.120   1.438   2.792 -0.0344 -0.2671 -0.6488
17313SOL     OW56785   6.654   0.135   4.598  0.0301 -0.2430  0.4720
17313SOL    HW156786   6.720   0.203   4.582 -1.2524  0.5590 -1.7340
17313SOL    HW256787   6.705   0.057   4.620  1.6130  0.8452  0.8331
17314SOL     OW56788   6.692   1.360   2.977  0.3177  0.1813 -0.1787
17314SOL    HW156789   6.756   1.353   3.049 -1.4437  2.3023  1.7380
17314SOL    HW256790   6.733   1.418   2.914  1.9743 -1.8549 -1.1230
17315SOL     OW56791   7.900   1.794   4.023  0.0341 -0.2431  0.6549
17315SOL    HW156792   7.855   1.767   4.103 -0.2858 -0.4146  0.4197
17315SOL    HW256793   7.990   1.811   4.050 -0.1969  0.2161  1.1600
17316SOL     OW56794   7.639   0.731   0.772  0.0635 -0.4067 -0.0289
17316SOL    HW156795   7.546   0.713   0.786  0.0900 -1.8514 -1.3227
17316SOL    HW256796   7.660   0.685   0.691  1.4451  1.6017 -0.8988
17317SOL     OW56797   4.691   9.152   4.685 -0.2949 -0.8079  0.1779
17317SOL    HW156798   4.622   9.205   4.725  0.5210  0.3635  0.0892
17317SOL    HW256799   4.754   9.137   4.755 -0.1043 -0.9390 -0.0198
17318SOL     OW56800   4.586   2.482   3.023 -0.2252  0.0614  0.2326
17318SOL    HW156801   4.620   2.514   2.940  0.1960  1.4076  0.8891
17318SOL    HW256802   4.659   2.432   3.061 -0.6198 -1.0641 -0.4506
17319SOL     OW56803   5.292   9.821   1.699  0.2352  0.1340  0.2788
17319SOL    HW156804   5.373   9.870   1.684  0.7694 -0.9857 -0.6664
17319SOL    HW256805   5.228   9.860   1.641  0.0558  1.0721  1.0818
17320SOL     OW56806   4.731   1.692   3.913 -0.3105 -0.0270 -0.1251
17320SOL    HW156807   4.686   1.742   3.980 -0.5219 -0.8143  0.3264
17320SOL    HW256808   4.718   1.601   3.938  0.0716 -0.3113 -0.9350
17321SOL     OW56809   5.329   9.645   2.163  0.0602 -0.5442 -0.0354
17321SOL    HW156810   5.309   9.697   2.241 -0.2746 -1.0035  0.1822
17321SOL    HW256811   5.254   9.588   2.151  1.2654 -2.4226  0.9120
17322SOL     OW56812   5.968   1.516   5.365  0.3380  0.1646  0.5539
17322SOL    HW156813   6.004   1.431   5.339 -0.1955  0.3913 -1.1015
17322SOL    HW256814   6.029   1.549   5.430 -0.2980 -2.1640  2.4568
17323SOL     OW56815   5.393   3.061   1.592  0.3783  0.0608 -0.1622
17323SOL    HW156816   5.333   3.134   1.606 -1.0538 -1.0418 -0.3938
17323SOL    HW256817   5.467   3.100   1.546 -0.7385  1.2089 -1.0541
17324SOL     OW56818   4.961   0.378   2.257  0.2410 -0.1939  0.2455
17324SOL    HW156819   4.878   0.385   2.304  0.7755  0.5975  1.0930
17324SOL    HW256820   5.013   0.451   2.289  0.3770  0.8417 -2.1229
17325SOL     OW56821   6.644   8.289   5.064 -0.4640 -0.1585  0.1791
17325SOL    HW156822   6.631   8.382   5.045 -1.2214 -0.4157 -0.6192
17325SOL    HW256823   6.556   8.254   5.077 -0.3527 -1.1388 -1.4404
17326SOL     OW56824   5.589   0.948   4.522  0.5622 -0.5030 -0.1620
17326SOL    HW156825   5.683   0.937   4.532  0.5070 -0.3538  0.5912
17326SOL    HW256826   5.565   0.888   4.451  0.8030 -2.7743  1.5425
17327SOL     OW56827   7.915   0.939   3.990 -0.2186  0.3806  0.2830
17327SOL    HW156828   7.968   0.980   4.058 -0.6996 -2.5434  2.6614
17327SOL    HW256829   7.970   0.941   3.912  1.2465  2.0049  1.2846
17328SOL     OW56830   5.763   3.790   3.016  0.1115  0.1992  0.3777
17328SOL    HW156831   5.794   3.823   3.100  2.0342  0.3237 -0.3249
17328SOL    HW256832   5.802   3.850   2.952 -4.9080  3.0156 -0.5622
17329SOL     OW56833   6.074   1.141   4.750  0.1052 -0.0677  0.2602
17329SOL    HW156834   6.133   1.138   4.675  1.9851  0.0696  1.6665
17329SOL    HW256835   6.034   1.054   4.753  0.4266 -0.2514 -0.5592
17330SOL     OW56836   5.563   0.875   2.718  0.2892 -0.2374  0.4593
17330SOL    HW156837   5.655   0.850   2.732 -0.0855 -1.3244  1.1004
17330SOL    HW256838   5.544   0.847   2.628  0.4139 -0.5737  0.5358
17331SOL     OW56839   7.056   9.594   2.071  0.0333 -0.4122  0.0601
17331SOL    HW156840   7.140   9.548   2.075 -0.4697 -1.3532  0.1067
17331SOL    HW256841   7.041   9.625   2.160  0.1976 -0.4920  0.1150
17332SOL     OW56842   7.795   0.725   4.139  0.2423  0.4333 -0.1421
17332SOL    HW156843   7.844   0.793   4.091  0.0150  1.4266  0.9825
17332SOL    HW256844   7.857   0.653   4.147  0.6209  0.6436 -1.0521
17333SOL     OW56845   3.794   2.224   3.694 -0.1307  0.0508 -0.1948
17333SOL    HW156846   3.816   2.289   3.627  0.4558 -1.1702 -1.2297
17333SOL    HW256847   3.879   2.204   3.735  0.1560 -1.8623 -1.5927
17334SOL     OW56848   7.981   9.472   2.835  0.2352 -0.3993  0.3227
17334SOL    HW156849   7.908   9.530   2.858 -0.1624 -0.5424 -0.5553
17334SOL    HW256850   8.050   9.496   2.897  1.0501  2.8755 -1.6240
17335SOL     OW56851   8.658   2.383   3.013  0.1535  0.0023  0.1230
17335SOL    HW156852   8.599   2.309   3.002 -2.1179  1.8854 -1.2052
17335SOL    HW256853   8.677   2.384   3.107 -0.4463 -1.7248  0.3034
17336SOL     OW56854   5.496   3.060   3.753 -0.0533 -0.2499  0.4714
17336SOL    HW156855   5.504   2.975   3.708 -2.0363  0.1717 -0.7914
17336SOL    HW256856   5.531   3.124   3.691 -1.9153  0.2294 -0.1355
17337SOL     OW56857   7.022   3.128   2.021  0.0293 -0.0206  0.2391
17337SOL    HW156858   7.067   3.049   2.051  2.0609  0.8512 -0.3390
17337SOL    HW256859   7.091   3.180   1.980 -1.3515  1.8618  0.2052
17338SOL     OW56860   2.548   3.486   1.384  0.3267 -0.4390  0.5273
17338SOL    HW156861   2.577   3.459   1.472  0.7456 -0.6850  0.3213
17338SOL    HW256862   2.524   3.404   1.341  2.5113 -0.6673 -0.4308
17339SOL     OW56863   6.681   2.899   1.902 -0.2592  0.4759  0.5047
17339SOL    HW156864   6.696   2.840   1.829 -1.1708  1.1328 -0.2463
17339SOL    HW256865   6.649   2.843   1.972 -3.6104  0.2717 -0.9683
17340SOL     OW56866   9.152   2.581   1.414  0.5425 -0.1057 -0.0582
17340SOL    HW156867   9.185   2.602   1.502  0.1928  0.7889 -0.1292
17340SOL    HW256868   9.089   2.510   1.429  0.9047 -0.3535  0.3364
17341SOL     OW56869   6.198   1.382   3.526 -0.3932 -0.4093  0.2971
17341SOL    HW156870   6.104   1.394   3.521 -0.2124  0.7005 -0.9912
17341SOL    HW256871   6.227   1.378   3.435  0.9006  0.2268  0.6521
17342SOL     OW56872   6.502   2.140   1.268 -0.0874  0.7904  0.1013
17342SOL    HW156873   6.446   2.063   1.260  0.1724  0.6564 -0.4718
17342SOL    HW256874   6.452   2.201   1.323 -0.1877  0.1222  0.7652
17343SOL     OW56875   6.521   9.061   2.838 -0.7071  0.6546  0.8583
17343SOL    HW156876   6.597   9.009   2.812 -1.3104 -0.7213  1.6900
17343SOL    HW256877   6.453   9.036   2.775 -0.4611  1.9782  0.0362
17344SOL     OW56878   8.725   0.623   1.736 -0.5157 -0.2784  0.5244
17344SOL    HW156879   8.809   0.591   1.768  0.9684  0.5639 -2.2124
17344SOL    HW256880   8.692   0.554   1.679 -0.1441  0.5766 -0.7866
17345SOL     OW56881   6.517   0.190   1.347 -0.5268 -0.3498 -0.1773
17345SOL    HW156882   6.539   0.097   1.341 -0.1530 -0.2751 -0.0440
17345SOL    HW256883   6.458   0.207   1.274 -2.0590 -1.0956  0.8367
17346SOL     OW56884   4.530   8.830   4.271 -0.2180 -0.3806  0.3100
17346SOL    HW156885   4.557   8.911   4.314 -0.5067  0.1023 -0.3946
17346SOL    HW256886   4.466   8.858   4.205 -1.2406 -1.3104  0.8769
17347SOL     OW56887   5.849   1.442   3.006 -0.6829 -0.0793 -0.1289
17347SOL    HW156888   5.882   1.504   3.072  0.4147  0.4035 -1.0924
17347SOL    HW256889   5.915   1.444   2.937 -2.1378 -0.0436 -1.5693
17348SOL     OW56890   6.147   3.767   3.546 -0.0391  0.2187 -0.2742
17348SOL    HW156891   6.104   3.850   3.525 -1.0411 -0.4934 -1.1608
17348SOL    HW256892   6.133   3.757   3.640 -1.8809  0.0347 -0.5145
17349SOL     OW56893   7.189   2.203   3.338 -0.0734  0.6248 -0.2988
17349SOL    HW156894   7.219   2.270   3.400  2.3464 -1.8983  1.5557
17349SOL    HW256895   7.240   2.219   3.259  3.0365 -0.7766  1.2375
17350SOL     OW56896   6.605   1.957   3.251  0.8445  0.5985  0.4405
17350SOL    HW156897   6.681   1.966   3.193 -0.3808 -0.4391 -1.4282
17350SOL    HW256898   6.626   1.881   3.306  0.3377 -1.0414 -1.5232
17351SOL     OW56899   5.428   1.573   1.138 -0.0011 -0.4427 -0.1266
17351SOL    HW156900   5.425   1.477   1.130 -0.0082 -0.6300  1.6550
17351SOL    HW256901   5.450   1.588   1.230  0.5920  1.2784 -0.5132
17352SOL     OW56902   5.702   1.251   4.315  0.2778 -0.2236  0.0950
17352SOL    HW156903   5.726   1.337   4.279 -0.9132  0.6558  1.3045
17352SOL    HW256904   5.783   1.216   4.351  0.5756  0.8702  0.5168
17353SOL     OW56905   5.074   9.116   4.467 -0.3178 -0.5137 -0.0763
17353SOL    HW156906   5.076   9.120   4.563 -0.4304  1.5008 -0.1222
17353SOL    HW256907   5.166   9.110   4.442  0.0111  2.3826  0.1241
17354SOL     OW56908   4.946   9.447   1.736 -0.1222  0.4672 -0.3746
17354SOL    HW156909   5.023   9.402   1.771  0.0048  0.4003 -0.7347
17354SOL    HW256910   4.974   9.479   1.650 -1.4696 -2.3969 -2.0124
17355SOL     OW56911   7.242   0.694   3.948 -0.5665 -0.0748 -0.5659
17355SOL    HW156912   7.270   0.602   3.948  0.7737  0.3166 -0.5741
17355SOL    HW256913   7.322   0.743   3.928 -0.5214  1.3191  2.5275
17356SOL     OW56914   7.072   9.027   0.670  0.1230  0.2023 -0.2559
17356SOL    HW156915   7.017   9.085   0.617 -0.4781  0.3694  0.5313
17356SOL    HW256916   7.094   9.079   0.747 -0.8566 -0.7707  0.7085
17357SOL     OW56917   7.495   0.858   1.816  0.4375  0.3477  0.5224
17357SOL    HW156918   7.412   0.809   1.811 -0.4390  1.6690  1.4488
17357SOL    HW256919   7.563   0.790   1.813 -0.6978 -0.8230  0.4753
17358SOL     OW56920   6.195   9.802   1.984  0.2496  0.0852  0.5951
17358SOL    HW156921   6.238   9.821   2.067  0.6040  0.0524  0.4202
17358SOL    HW256922   6.107   9.839   1.993  0.5899  0.8963  0.6384
17359SOL     OW56923   5.813   0.881   1.839 -0.0078 -0.1050 -0.0108
17359SOL    HW156924   5.906   0.887   1.862  0.0841 -0.0420 -0.3888
17359SOL    HW256925   5.797   0.787   1.829 -0.1370 -0.1556  0.6607
17360SOL     OW56926   4.863   1.996   2.246 -0.3816 -0.1033  0.0260
17360SOL    HW156927   4.900   2.016   2.160 -0.0185  0.4270  0.3015
17360SOL    HW256928   4.782   2.046   2.250 -0.4555 -0.2191 -0.0598
17361SOL     OW56929   6.897   1.347   3.180  0.0313  0.0155 -0.4039
17361SOL    HW156930   6.944   1.344   3.263  0.1095 -0.3809 -0.4617
17361SOL    HW256931   6.920   1.266   3.136  1.4262  1.0162 -1.6002
17362SOL     OW56932   6.442   1.783   2.943  0.2446 -0.3601  0.0384
17362SOL    HW156933   6.465   1.713   2.882  0.6738 -0.1635 -0.0323
17362SOL    HW256934   6.499   1.856   2.918 -1.0988  0.4531 -0.7064
17363SOL     OW56935   7.526   8.497   5.115 -0.3742  0.2294 -0.4174
17363SOL    HW156936   7.517   8.411   5.073  1.5721 -0.1030 -0.2240
17363SOL    HW256937   7.581   8.547   5.055 -1.1290  1.2107 -0.3077
17364SOL     OW56938   5.138   8.525   1.239  0.4342 -0.1753 -0.3046
17364SOL    HW156939   5.124   8.486   1.325 -1.4466  0.7299 -0.1637
17364SOL    HW256940   5.082   8.603   1.237  1.6557  0.7505 -1.7592
17365SOL     OW56941   6.164   9.724   4.056 -0.1533 -0.1491  0.6862
17365SOL    HW156942   6.185   9.631   4.065 -3.8005 -1.0165  1.8521
17365SOL    HW256943   6.163   9.739   3.961 -0.9486 -1.7075  0.4158
17366SOL     OW56944   7.623   1.934   2.160 -0.4357 -0.8118 -0.3157
17366SOL    HW156945   7.703   1.983   2.141 -0.3471 -0.9882 -0.3955
17366SOL    HW256946   7.633   1.851   2.113 -1.9715  0.3224 -2.9103
17367SOL     OW56947   4.627   1.044   0.644 -0.0570 -0.8979  0.3831
17367SOL    HW156948   4.602   1.070   0.555  1.0856 -2.2100 -0.3652
17367SOL    HW256949   4.701   1.102   0.665 -0.1078 -0.8171  0.3434
17368SOL     OW56950   7.343   3.592   3.390 -0.4746  0.1723  0.6001
17368SOL    HW156951   7.436   3.607   3.405 -0.7000  0.5791  1.6834
17368SOL    HW256952   7.314   3.541   3.466 -0.6084 -2.2784 -0.9553
17369SOL     OW56953   5.546   8.904   4.642 -0.4818 -0.1908  0.2872
17369SOL    HW156954   5.515   8.886   4.554 -2.1270  1.0908  0.5524
17369SOL    HW256955   5.586   8.822   4.671 -0.3643 -0.7879 -1.4363
17370SOL     OW56956   6.817   0.830   1.132  0.3198 -0.3741  0.6145
17370SOL    HW156957   6.904   0.821   1.092 -0.5010 -3.4934 -0.7375
17370SOL    HW256958   6.833   0.817   1.226  1.3686 -0.5431  0.4269
17371SOL     OW56959   8.785   0.704   3.896  0.2204 -0.4217 -0.0055
17371SOL    HW156960   8.841   0.715   3.972 -0.4753 -2.3318  0.8451
17371SOL    HW256961   8.839   0.657   3.832  0.3043 -0.2349 -0.0717
17372SOL     OW56962   6.154   2.877   4.148 -0.0102  0.1722 -0.4252
17372SOL    HW156963   6.146   2.876   4.053  0.6641 -1.7502 -0.5206
17372SOL    HW256964   6.096   2.807   4.178 -0.2648  0.7917  0.5909
17373SOL     OW56965   6.103   3.472   0.617  0.1961  0.2985 -0.0880
17373SOL    HW156966   6.053   3.510   0.689  0.7640  0.7261  0.0862
17373SOL    HW256967   6.125   3.546   0.561  1.1448  0.2181  0.1528
17374SOL     OW56968   6.134   0.948   4.309 -0.3248 -0.3941  0.6161
17374SOL    HW156969   6.094   0.973   4.392 -0.0798  0.9226  0.3715
17374SOL    HW256970   6.085   0.997   4.243 -1.3469 -2.3834 -0.1886
17375SOL     OW56971   7.627   0.182   1.597  0.5546  0.7327  0.1380
17375SOL    HW156972   7.585   0.116   1.542 -1.2765  0.8346  1.3493
17375SOL    HW256973   7.717   0.150   1.607 -0.3393 -1.7829  0.9486
17376SOL     OW56974   6.707   9.843   4.242 -0.3096 -0.3757  0.4658
17376SOL    HW156975   6.713   9.911   4.175  0.2070 -0.1443  0.7396
17376SOL    HW256976   6.622   9.857   4.283 -1.3805 -1.5403 -1.2142
17377SOL     OW56977   6.514   9.478   4.903  0.4538  0.2295  0.4823
17377SOL    HW156978   6.586   9.504   4.845 -1.7105  0.8689 -2.1044
17377SOL    HW256979   6.479   9.399   4.863  0.1584 -0.5571  2.1882
17378SOL     OW56980   5.323   2.931   2.963 -0.0743 -0.1941  0.4150
17378SOL    HW156981   5.388   2.864   2.939 -0.7755 -0.8171  0.2228
17378SOL    HW256982   5.261   2.931   2.890 -0.8218 -0.2868  1.0432
17379SOL     OW56983   6.584   2.894   1.491  0.2063  0.2416  0.6398
17379SOL    HW156984   6.525   2.839   1.543 -0.2246  1.0038  0.9915
17379SOL    HW256985   6.633   2.944   1.557  0.5472  0.3184  0.3299
17380SOL     OW56986   5.000   2.138   3.370  0.1789 -0.6373  0.0544
17380SOL    HW156987   4.946   2.114   3.295 -0.4450 -1.2622  0.6894
17380SOL    HW256988   4.940   2.138   3.444  0.8899 -0.5418  0.6484
17381SOL     OW56989   3.875   2.113   2.626 -0.6168  0.0007  0.1052
17381SOL    HW156990   3.810   2.163   2.676 -0.6646 -0.1735  0.2186
17381SOL    HW256991   3.957   2.127   2.673 -0.3891  0.9951 -0.5806
17382SOL     OW56992   7.447   0.340   3.223  0.0151  0.3844 -0.3634
17382SOL    HW156993   7.490   0.269   3.177 -1.0746 -1.1875  0.9186
17382SOL    HW256994   7.457   0.318   3.316 -0.1424  2.0530  0.0933
17383SOL     OW56995   7.026   0.245   2.940  0.0626  0.5512 -0.2239
17383SOL    HW156996   7.086   0.266   3.012 -0.6823  0.2578  0.5015
17383SOL    HW256997   6.959   0.189   2.980 -0.3577  0.3687 -1.1536
17384SOL     OW56998   5.736   2.388   1.661  0.2575  0.1255 -0.3622
17384SOL    HW156999   5.768   2.461   1.714  1.6243  0.6249 -1.7823
17384SOL    HW257000   5.763   2.309   1.709  1.3892  0.5630 -0.2364
17385SOL     OW57001   7.410   2.111   2.100 -0.6788  0.1428  0.4464
17385SOL    HW157002   7.461   2.048   2.151 -2.1670 -0.2866  1.4859
17385SOL    HW257003   7.463   2.191   2.100  0.2270 -0.4395  1.0361
17386SOL     OW57004   5.903   2.107   3.045 -0.1865 -0.5868  0.4463
17386SOL    HW157005   5.899   2.060   2.962  0.5347  1.1414 -0.6404
17386SOL    HW257006   5.815   2.145   3.055 -0.0928 -0.2823  0.1369
17387SOL     OW57007   5.396   9.395   2.634  0.5125  0.3722 -0.3715
17387SOL    HW157008   5.321   9.358   2.588  0.4865  2.0138 -1.8037
17387SOL    HW257009   5.472   9.348   2.599  0.5469  1.9589 -2.6574
17388SOL     OW57010   5.501   1.549   3.927  0.3207  0.5261  0.2290
17388SOL    HW157011   5.579   1.495   3.913 -1.3212 -1.9966  0.0946
17388SOL    HW257012   5.498   1.564   4.021  0.4231 -0.2973  0.3721
17389SOL     OW57013   4.279   9.620   3.257  0.9863  0.0321  0.0322
17389SOL    HW157014   4.248   9.616   3.347  1.7793  1.2818  0.3828
17389SOL    HW257015   4.287   9.713   3.238  1.9054 -0.2210 -0.9530
17390SOL     OW57016   5.340   1.921   4.362  0.2986  0.5496 -0.3629
17390SOL    HW157017   5.285   1.884   4.431  1.0058 -0.0321 -0.0887
17390SOL    HW257018   5.281   1.933   4.288 -0.7077  2.1258  0.6350
17391SOL     OW57019   5.279   9.566   1.805 -0.1501  0.2925  0.2839
17391SOL    HW157020   5.277   9.649   1.758 -1.5236 -0.1253 -0.4549
17391SOL    HW257021   5.195   9.525   1.784 -0.3990 -0.3412  2.3367
17392SOL     OW57022   3.966   1.679   3.040 -0.2347  0.3380 -0.2225
17392SOL    HW157023   3.991   1.699   2.950 -0.2444 -0.5268 -0.4300
17392SOL    HW257024   4.049   1.669   3.086 -0.2227  0.0832 -0.2991
17393SOL     OW57025   6.581   0.414   3.383  0.3729  0.2904 -0.1025
17393SOL    HW157026   6.566   0.365   3.464 -0.8799 -1.4197 -1.3050
17393SOL    HW257027   6.654   0.370   3.341  0.3917  0.5731 -0.3747
17394SOL     OW57028   6.353   2.239   2.867  0.4627  0.1811 -0.2286
17394SOL    HW157029   6.335   2.297   2.793 -0.6714 -0.2614 -0.3209
17394SOL    HW257030   6.315   2.285   2.942 -0.8393 -0.6153 -0.3711
17395SOL     OW57031   4.545   1.572   5.415 -0.2984  0.0841 -0.5002
17395SOL    HW157032   4.571   1.534   5.498 -0.9303  1.4871  0.3718
17395SOL    HW257033   4.624   1.615   5.382 -0.5929  1.5172  0.5465
17396SOL     OW57034   5.691   0.085   5.301 -0.0952 -0.1734  0.5083
17396SOL    HW157035   5.596   0.089   5.297 -0.3921 -4.0822 -1.1088
17396SOL    HW257036   5.721   0.135   5.224 -0.7340  1.4543  1.2768
17397SOL     OW57037   6.801   2.608   2.606 -0.0945 -0.1225 -0.0886
17397SOL    HW157038   6.831   2.698   2.619  0.7426 -0.4663  0.4418
17397SOL    HW257039   6.855   2.575   2.534  1.4241 -0.9939  1.3811
17398SOL     OW57040   6.828   0.332   4.792 -0.0053  0.4210 -0.2421
17398SOL    HW157041   6.921   0.309   4.787 -0.2181 -0.5901  0.2821
17398SOL    HW257042   6.790   0.266   4.850 -1.1858  0.3951 -1.0140
17399SOL     OW57043   7.775   1.276   3.202 -0.1470  0.1854 -0.1057
17399SOL    HW157044   7.744   1.355   3.158 -1.4513  0.2977  0.9695
17399SOL    HW257045   7.870   1.286   3.206 -0.3311  1.8911  0.4074
17400SOL     OW57046   7.207   9.452   3.115 -0.0793  0.1806 -0.3688
17400SOL    HW157047   7.167   9.527   3.158  0.5098  1.3602 -1.7963
17400SOL    HW257048   7.284   9.487   3.070 -0.2580 -1.0859 -1.7708
17401SOL     OW57049   7.670   0.400   5.003  0.3755  0.2201 -0.1778
17401SOL    HW157050   7.602   0.407   4.936  0.3183 -0.6481 -0.2318
17401SOL    HW257051   7.645   0.464   5.070  1.3518  2.3363 -1.7275
17402SOL     OW57052   6.026   9.466   4.567  0.1574  0.5405 -0.1574
17402SOL    HW157053   5.940   9.478   4.607 -0.4144  3.2138 -1.8997
17402SOL    HW257054   6.027   9.374   4.538 -0.1043 -0.9691  4.0183
17403SOL     OW57055   5.400   2.997   6.179 -0.1625  0.5467 -0.7440
17403SOL    HW157056   5.324   3.054   6.167 -0.6765 -0.2962 -1.5607
17403SOL    HW257057   5.370   2.910   6.154  0.6937 -0.0533  0.2266
17404SOL     OW57058   4.685   2.151   7.113  0.1313 -0.5796  0.6987
17404SOL    HW157059   4.611   2.165   7.171  0.2579  1.2362  0.4840
17404SOL    HW257060   4.761   2.146   7.171  0.0831 -0.3086  0.7845
17405SOL     OW57061   4.716   9.381   4.420  0.8733 -0.2256 -0.6593
17405SOL    HW157062   4.761   9.465   4.426  0.6673 -0.0255 -1.6484
17405SOL    HW257063   4.664   9.375   4.500  1.2373  0.3860 -0.3735
17406SOL     OW57064   7.461   1.554   2.202  0.3639  0.1552 -0.1954
17406SOL    HW157065   7.445   1.472   2.248  0.3504  0.6003  0.6057
17406SOL    HW257066   7.557   1.560   2.197  0.3783 -0.5544 -1.4654
17407SOL     OW57067   3.879   1.228   6.986  0.3042 -0.6801  0.3609
17407SOL    HW157068   3.808   1.175   6.949  0.3343 -0.1084 -0.5547
17407SOL    HW257069   3.859   1.233   7.079  0.5185 -2.6122  0.5347
17408SOL     OW57070   8.554   0.340   5.193 -0.7428  0.1973 -0.1128
17408SOL    HW157071   8.585   0.308   5.108 -1.5963 -1.6622  0.2188
17408SOL    HW257072   8.604   0.290   5.257  1.1061  2.7596  0.5827
17409SOL     OW57073   7.224   2.958   1.811 -0.2503  0.7133  0.2774
17409SOL    HW157074   7.291   3.025   1.819  0.3414  0.0688  0.8386
17409SOL    HW257075   7.263   2.880   1.850 -1.3496  0.3405  0.6663
17410SOL     OW57076   8.284   0.017   4.095  0.4403 -0.3743 -0.3480
17410SOL    HW157077   8.372  -0.015   4.114  0.2242  0.4507  2.5279
17410SOL    HW257078   8.226  -0.048   4.135 -0.1721  0.2233 -0.2419
17411SOL     OW57079   8.063   1.338   4.411  0.5696 -0.3026 -0.2425
17411SOL    HW157080   8.039   1.416   4.461  1.3657  0.2463 -0.7033
17411SOL    HW257081   7.993   1.328   4.347 -0.7093 -1.2762  1.2286
17412SOL     OW57082   3.993   4.895   6.996 -0.6048  0.1100 -0.2172
17412SOL    HW157083   3.934   4.921   7.067 -0.8103  0.4150 -0.4988
17412SOL    HW257084   3.951   4.929   6.916  0.4583  1.2184 -0.3289
17413SOL     OW57085   6.475   0.415   4.431  0.2870  0.3517  0.2847
17413SOL    HW157086   6.456   0.377   4.517  0.8045  0.4425  0.4379
17413SOL    HW257087   6.556   0.373   4.403 -0.3231 -0.3085 -0.5441
17414SOL     OW57088   7.247   4.697   6.775 -0.4062  0.4461 -0.2771
17414SOL    HW157089   7.330   4.742   6.787  0.0260  0.0369 -1.6459
17414SOL    HW257090   7.236   4.689   6.681  0.2287 -3.4918 -0.1889
17415SOL     OW57091   6.855   2.112   2.213 -0.2660 -0.9800  0.2306
17415SOL    HW157092   6.808   2.059   2.149  0.2935 -0.4393 -0.6491
17415SOL    HW257093   6.874   2.052   2.285 -0.5831 -1.6931 -0.2747
17416SOL     OW57094   7.303   0.250   7.219  0.4966 -0.0742  0.0383
17416SOL    HW157095   7.291   0.343   7.201 -0.6072 -0.1471  0.3606
17416SOL    HW257096   7.219   0.210   7.199  0.2288 -0.6624  2.0302
17417SOL     OW57097   4.275   0.452   5.649  0.1762  0.0591  1.0503
17417SOL    HW157098   4.324   0.370   5.649  1.0226  0.4031 -2.2998
17417SOL    HW257099   4.320   0.506   5.714  2.7828 -0.5171 -0.1298
17418SOL     OW57100   9.074   0.355   3.847  0.3926 -0.0714 -0.4612
17418SOL    HW157101   9.115   0.375   3.763  2.0135 -1.9985 -0.1886
17418SOL    HW257102   9.131   0.291   3.888 -1.3419 -0.5951  1.3154
17419SOL     OW57103   7.183   0.663   6.182 -0.0393  0.0774 -0.4332
17419SOL    HW157104   7.198   0.609   6.104 -1.4346  1.0217 -1.3971
17419SOL    HW257105   7.256   0.641   6.240  1.3709 -0.2511 -2.2258
17420SOL     OW57106   7.747   1.007   2.856 -0.0959  0.4600 -0.4054
17420SOL    HW157107   7.806   1.076   2.828 -0.4342  1.3747  1.0579
17420SOL    HW257108   7.756   1.003   2.951 -0.4746 -1.1614 -0.3964
17421SOL     OW57109   4.903   0.151   4.518 -0.7955 -0.3704  0.5012
17421SOL    HW157110   4.923   0.065   4.482 -0.2353 -0.2970  0.6372
17421SOL    HW257111   4.849   0.193   4.451  1.0645  0.1486 -0.7270
17422SOL     OW57112   4.254   0.847   2.483 -0.3153  0.1365  0.0764
17422SOL    HW157113   4.325   0.792   2.451  1.1742  0.9265  1.8291
17422SOL    HW257114   4.191   0.786   2.520  0.1640 -0.5013 -0.1502
17423SOL     OW57115   6.843   2.248   3.635 -0.0242 -0.1748 -0.6705
17423SOL    HW157116   6.829   2.166   3.587  2.4199  1.2343 -4.2601
17423SOL    HW257117   6.938   2.262   3.631 -0.0472  1.6366  2.1471
17424SOL     OW57118   5.580   8.530   5.584 -0.0907  0.4488 -0.1479
17424SOL    HW157119   5.659   8.571   5.548 -0.3817  1.3266  0.1753
17424SOL    HW257120   5.508   8.576   5.541 -0.4941 -1.7891 -2.1026
17425SOL     OW57121   6.059   2.008   4.503  0.2372  0.5233  0.2420
17425SOL    HW157122   6.014   1.931   4.539 -1.6157  0.3355 -2.2400
17425SOL    HW257123   6.149   1.979   4.492 -0.0187 -0.6707  1.0188
17426SOL     OW57124   5.744   0.417   3.683 -0.1852 -0.0426 -0.5896
17426SOL    HW157125   5.661   0.369   3.672 -1.3775  1.9903 -1.0059
17426SOL    HW257126   5.734   0.461   3.767 -0.8365  2.5322 -1.9323
17427SOL     OW57127   5.012   3.667   4.646 -0.4438  0.0688  0.7789
17427SOL    HW157128   5.056   3.583   4.629 -0.4211  0.0035  1.1606
17427SOL    HW257129   5.038   3.690   4.735 -0.6950  0.3331  0.7842
17428SOL     OW57130   5.929   0.016   4.612  0.1317 -0.3273  0.5929
17428SOL    HW157131   5.843   0.042   4.642  0.3104  0.6419  0.2998
17428SOL    HW257132   5.933   0.045   4.521  1.4015  1.2702  1.1033
17429SOL     OW57133   7.240   3.637   6.461  0.1474 -0.6290 -0.4928
17429SOL    HW157134   7.155   3.670   6.489 -0.1743 -1.5538 -0.3403
17429SOL    HW257135   7.221   3.550   6.425  0.9827 -0.7133 -0.7449
17430SOL     OW57136   7.078   9.080   4.808 -0.1621  0.1728 -0.2649
17430SOL    HW157137   7.085   9.021   4.733 -1.9482 -0.0994 -0.2557
17430SOL    HW257138   7.013   9.039   4.865  1.1526  0.3790  1.4507
17431SOL     OW57139   8.434   8.664   5.733 -0.7796  0.2952 -0.6945
17431SOL    HW157140   8.364   8.614   5.776  0.3044 -0.6401  0.0536
17431SOL    HW257141   8.477   8.712   5.804 -0.1135  0.1703 -1.0056
17432SOL     OW57142   6.099   0.756   5.013  0.1129 -0.4058  0.3875
17432SOL    HW157143   6.007   0.750   5.037 -0.0624  1.2351  0.2507
17432SOL    HW257144   6.132   0.832   5.061  0.1285  2.0792 -3.0950
17433SOL     OW57145   3.114   1.801   3.776 -0.0534  0.2371  0.0113
17433SOL    HW157146   3.126   1.863   3.703 -0.7790  0.4405  0.0517
17433SOL    HW257147   3.203   1.773   3.799  0.3037  1.3533  0.0623
17434SOL     OW57148   4.546   2.097   3.316 -0.2906 -0.1386 -0.9153
17434SOL    HW157149   4.456   2.126   3.303 -0.9394 -1.8213 -0.3948
17434SOL    HW257150   4.584   2.100   3.228 -0.7849  0.7362 -1.1149
17435SOL     OW57151   0.069   1.636   4.736 -0.1220  0.0376  0.1493
17435SOL    HW157152   0.089   1.656   4.645  1.8817  0.7882  0.7030
17435SOL    HW257153   0.154   1.621   4.777 -0.9391  0.1563  2.0033
17436SOL     OW57154   5.585   0.375   5.854  0.4784  0.1769  0.2342
17436SOL    HW157155   5.629   0.354   5.936  2.5510  0.9408 -0.6105
17436SOL    HW257156   5.570   0.469   5.859 -0.0061  0.1118  0.0190
17437SOL     OW57157   3.648   0.420   6.463 -0.0108  0.2485  0.2950
17437SOL    HW157158   3.621   0.355   6.527 -0.6204 -1.6060 -1.7264
17437SOL    HW257159   3.567   0.454   6.427  0.2665 -0.8109 -1.4389
17438SOL     OW57160   5.604   9.792   2.397  0.0387 -0.1447  0.6143
17438SOL    HW157161   5.682   9.797   2.341  0.6176 -3.4547  0.9491
17438SOL    HW257162   5.628   9.732   2.467 -2.8091 -1.3200  0.7311
17439SOL     OW57163   6.414   0.706   5.171  0.6252 -0.1436  0.1518
17439SOL    HW157164   6.461   0.757   5.104 -1.6762  1.8676 -0.1020
17439SOL    HW257165   6.445   0.742   5.254  2.2235 -1.4537  0.1657
17440SOL     OW57166   5.064   0.884   5.581  0.3597 -0.2784 -0.1649
17440SOL    HW157167   5.091   0.794   5.601  0.1286 -0.0785  1.1817
17440SOL    HW257168   4.984   0.875   5.530 -0.0859 -0.8480  0.6182
17441SOL     OW57169   6.779   2.350   2.101  0.7302 -0.0383  0.2536
17441SOL    HW157170   6.801   2.259   2.121  2.1543  0.1409 -0.3993
17441SOL    HW257171   6.822   2.367   2.017 -0.7761  0.7924 -0.3894
17442SOL     OW57172   6.178   2.750   2.540 -0.3432 -0.7279  0.4570
17442SOL    HW157173   6.126   2.685   2.585 -1.8674 -1.3534 -2.0297
17442SOL    HW257174   6.253   2.701   2.505 -0.9431 -0.9671 -0.5248
17443SOL     OW57175   5.740   1.544   5.222 -0.7174  0.0206 -0.3162
17443SOL    HW157176   5.819   1.552   5.275  0.3141  0.6564 -1.8698
17443SOL    HW257177   5.681   1.489   5.274  0.4755  0.0979  1.1710
17444SOL     OW57178   5.582   3.555   4.898  0.4196 -0.1556 -0.8869
17444SOL    HW157179   5.583   3.545   4.993 -1.5078 -1.3605 -0.9493
17444SOL    HW257180   5.656   3.503   4.868  0.2484 -0.8640 -0.1235
17445SOL     OW57181   7.282   1.865   7.734  0.2194 -0.1464  0.1850
17445SOL    HW157182   7.272   1.772   7.715  0.1381 -0.2444  0.6923
17445SOL    HW257183   7.377   1.880   7.731  0.2900 -0.4251  0.9200
17446SOL     OW57184   5.893   0.654   3.884 -0.3501 -0.2294  0.6941
17446SOL    HW157185   5.977   0.613   3.862 -0.7637 -1.4567  1.3314
17446SOL    HW257186   5.898   0.741   3.845  0.3640 -1.0404 -1.1047
17447SOL     OW57187   8.660   0.027   3.165 -0.5812 -0.9059 -0.3686
17447SOL    HW157188   8.571   0.023   3.201 -1.3069  0.3056 -1.9388
17447SOL    HW257189   8.717   0.022   3.243 -2.0660  1.1984  0.9625
17448SOL     OW57190   5.518   8.587   4.250 -0.0318  0.2274 -0.0356
17448SOL    HW157191   5.449   8.613   4.311  1.9615  1.8785  1.6749
17448SOL    HW257192   5.547   8.501   4.281 -0.2803  0.2339  0.2122
17449SOL     OW57193   6.698   9.536   4.707  0.5153 -0.1763  0.2841
17449SOL    HW157194   6.635   9.539   4.635 -0.7953 -0.9338  1.3620
17449SOL    HW257195   6.742   9.452   4.696  0.6878 -0.0618  0.0788
17450SOL     OW57196   7.536   4.534   6.804  0.3892 -0.5493 -0.1068
17450SOL    HW157197   7.557   4.539   6.711 -0.0093 -0.1862 -0.1814
17450SOL    HW257198   7.618   4.507   6.845  0.3252 -1.6284 -0.6494
17451SOL     OW57199   6.309   9.556   5.692 -0.0104  0.0092  0.6421
17451SOL    HW157200   6.241   9.541   5.757 -1.1520  0.8286 -0.3263
17451SOL    HW257201   6.275   9.516   5.612  0.2089  1.2528 -0.0985
17452SOL     OW57202   5.935   2.597   7.714  0.3342  0.8735 -0.5066
17452SOL    HW157203   5.864   2.536   7.693 -0.4623  1.3239  0.7050
17452SOL    HW257204   6.000   2.543   7.758 -0.9903  1.0465  1.8539
17453SOL     OW57205   6.753   9.789   3.917 -0.3445  0.1053  0.3762
17453SOL    HW157206   6.818   9.855   3.939  3.0268 -2.2626 -1.5112
17453SOL    HW257207   6.756   9.726   3.989 -3.4166  1.7003  2.0868
17454SOL     OW57208   7.488   8.838   3.445 -0.0616 -0.3106 -0.9625
17454SOL    HW157209   7.421   8.841   3.377 -2.2490  0.3277  1.0963
17454SOL    HW257210   7.477   8.753   3.487  2.6594 -1.5978 -2.5941
17455SOL     OW57211   5.881   9.489   5.373  0.1118  0.4873  0.2010
17455SOL    HW157212   5.826   9.566   5.386 -0.1458  0.3332  0.0368
17455SOL    HW257213   5.882   9.476   5.279 -0.6436 -0.2778  0.2879
17456SOL     OW57214   6.312   9.573   2.697 -0.1816 -0.6626 -0.2717
17456SOL    HW157215   6.268   9.543   2.776 -0.4466 -0.7606 -0.4549
17456SOL    HW257216   6.367   9.646   2.726 -2.7076  1.4865 -0.4949
17457SOL     OW57217   6.124   3.324   3.350 -0.4321  0.0729  0.0266
17457SOL    HW157218   6.105   3.329   3.444  2.9423 -1.5418  0.9312
17457SOL    HW257219   6.114   3.231   3.329  0.6082  0.1251 -0.7507
17458SOL     OW57220   8.345   0.430   4.299  0.7632  0.4152  0.4130
17458SOL    HW157221   8.315   0.351   4.254  0.0582  0.1122  1.3717
17458SOL    HW257222   8.440   0.424   4.297  0.7223 -0.9621  1.3063
17459SOL     OW57223   7.020   1.639   4.452  0.0188  0.0324  0.3547
17459SOL    HW157224   7.096   1.609   4.502  0.2295  0.7722  0.4911
17459SOL    HW257225   7.047   1.633   4.360  0.4120  0.7025  0.4158
17460SOL     OW57226   5.660   2.909   1.866  0.1751 -0.5214  0.7551
17460SOL    HW157227   5.691   2.998   1.850 -0.0134 -0.7169 -0.8173
17460SOL    HW257228   5.565   2.919   1.878  0.0778 -0.5627  0.0511
17461SOL     OW57229   4.707   8.175   2.859 -0.3593 -0.2075 -0.0282
17461SOL    HW157230   4.632   8.214   2.903 -0.6734 -0.5006 -0.2994
17461SOL    HW257231   4.783   8.209   2.907 -0.6411  0.4432 -0.0394
17462SOL     OW57232   4.253   2.174   5.013  0.3354 -0.0298 -0.1189
17462SOL    HW157233   4.178   2.121   4.984 -0.6993  1.1697  0.3145
17462SOL    HW257234   4.290   2.125   5.087  1.7020 -2.0263 -1.9616
17463SOL     OW57235   3.994   1.276   6.078  0.2204 -0.4573 -0.2865
17463SOL    HW157236   4.077   1.269   6.125 -0.1845  0.3331  0.5737
17463SOL    HW257237   3.931   1.232   6.134 -0.3073  0.6878  0.0588
17464SOL     OW57238   6.418   1.647   2.538 -0.3427  0.4415 -0.3130
17464SOL    HW157239   6.374   1.581   2.484 -0.1367 -0.2128  0.3052
17464SOL    HW257240   6.408   1.729   2.489 -0.8964  0.0156 -0.9247
17465SOL     OW57241   6.884   1.026   4.328  0.1229  0.2259  0.1769
17465SOL    HW157242   6.976   1.048   4.315  0.3822 -0.5262  0.6882
17465SOL    HW257243   6.854   1.088   4.394  0.6094 -0.3402  0.9492
17466SOL     OW57244   8.298   2.540   5.614 -0.2841  0.6884 -0.7327
17466SOL    HW157245   8.348   2.494   5.547 -1.1081 -0.9633 -0.2608
17466SOL    HW257246   8.263   2.470   5.669 -1.2217  1.9236  0.2731
17467SOL     OW57247   4.371   3.691   2.850  0.5394 -0.0518  0.5534
17467SOL    HW157248   4.427   3.614   2.845 -1.6355 -1.7343  0.8559
17467SOL    HW257249   4.384   3.724   2.939  1.2288 -0.2338  0.5270
17468SOL     OW57250   6.714   0.746   3.769  0.8612  0.4962  0.1560
17468SOL    HW157251   6.754   0.832   3.776  1.4576  0.1629  1.0276
17468SOL    HW257252   6.750   0.708   3.689  2.3308  0.2023  0.9182
17469SOL     OW57253   4.389   1.898   2.999 -0.1528 -0.6989  0.0253
17469SOL    HW157254   4.294   1.892   3.006 -0.2448 -0.2116 -0.6697
17469SOL    HW257255   4.407   1.899   2.905  0.4073  0.8959  0.1177
17470SOL     OW57256   5.259   0.699   4.860 -0.4440 -0.2180  0.6311
17470SOL    HW157257   5.184   0.658   4.817 -0.7834  1.5529 -0.5638
17470SOL    HW257258   5.330   0.694   4.796  0.1438 -0.8332  1.3067
17471SOL     OW57259   7.843   2.474   3.317  0.1124 -0.2120  0.0974
17471SOL    HW157260   7.817   2.383   3.306 -0.1469 -0.0262 -0.9120
17471SOL    HW257261   7.938   2.470   3.329 -0.1021 -0.7425  1.9424
17472SOL     OW57262   7.653   2.948   3.931  0.6811 -0.3508  0.2159
17472SOL    HW157263   7.626   2.937   4.022 -0.6735  1.0047  0.0255
17472SOL    HW257264   7.648   2.860   3.893 -2.7160 -0.3848  0.4691
17473SOL     OW57265   7.057   1.005   4.081 -0.1765 -0.5978  0.2925
17473SOL    HW157266   7.091   1.030   4.167  0.4828 -2.9904  0.8144
17473SOL    HW257267   7.023   1.086   4.044  0.8012  0.7774  2.2163
17474SOL     OW57268   9.361   2.166   3.762  0.0871 -0.4557 -0.5331
17474SOL    HW157269   9.372   2.119   3.845  0.2910  0.3751 -0.0694
17474SOL    HW257270   9.407   2.113   3.697 -1.2309 -1.8372 -0.3994
17475SOL     OW57271   9.250   5.136   2.335 -0.2698 -0.5696  0.0604
17475SOL    HW157272   9.304   5.162   2.409 -1.4498 -1.4938  1.2818
17475SOL    HW257273   9.277   5.194   2.264  1.1364  0.0890  1.1007
17476SOL     OW57274   4.769   0.196   2.849 -0.1032 -0.8055 -0.2338
17476SOL    HW157275   4.802   0.188   2.759  0.3862  2.0475 -0.4173
17476SOL    HW257276   4.716   0.276   2.848 -2.2970 -2.1248  1.4564
17477SOL     OW57277   6.137   0.297   3.339 -0.4687 -0.1831  0.0036
17477SOL    HW157278   6.182   0.376   3.308  0.9060 -0.4959  1.1033
17477SOL    HW257279   6.048   0.327   3.361 -0.3660  0.7674 -0.8309
17478SOL     OW57280   5.844   9.026   4.310 -0.0838 -0.0242 -0.2596
17478SOL    HW157281   5.856   8.944   4.358 -2.4391 -0.3030 -0.0303
17478SOL    HW257282   5.829   8.999   4.220 -2.0516  0.0026  0.0138
17479SOL     OW57283   5.411   0.217   4.801 -0.5372 -0.5404  0.2521
17479SOL    HW157284   5.403   0.139   4.855  0.4659  0.1855  1.5227
17479SOL    HW257285   5.438   0.184   4.715 -1.2539 -1.6524  0.4350
17480SOL     OW57286   5.821   0.607   1.753  0.2031 -0.5618  0.1113
17480SOL    HW157287   5.761   0.536   1.773  0.3175  0.2449  4.1064
17480SOL    HW257288   5.908   0.572   1.771  0.5000 -0.2004 -0.5670
17481SOL     OW57289   4.079   3.098   4.276  0.3036  0.3486  0.2631
17481SOL    HW157290   4.135   3.151   4.219 -0.6727 -0.5349 -1.5908
17481SOL    HW257291   4.088   3.009   4.243 -1.4669  0.0447  0.4835
17482SOL     OW57292   5.298   0.700   2.031  0.0583  0.1186  0.0950
17482SOL    HW157293   5.360   0.654   1.975 -0.3723  2.1812 -2.2680
17482SOL    HW257294   5.229   0.637   2.048  0.5035 -0.7647 -1.2196
17483SOL     OW57295   6.557   1.477   4.683  0.3907  0.4387 -0.0958
17483SOL    HW157296   6.527   1.457   4.594  0.6184  0.0576 -0.0907
17483SOL    HW257297   6.528   1.402   4.734  1.1151  0.1968 -0.0371
17484SOL     OW57298   5.376   1.215   4.969 -1.4960 -0.5464  0.1169
17484SOL    HW157299   5.428   1.176   4.899 -3.1540 -1.6421 -0.5646
17484SOL    HW257300   5.429   1.288   5.001  0.6034 -1.8462 -0.2549
17485SOL     OW57301   5.035   2.349   4.815  0.0984  0.8449  0.0707
17485SOL    HW157302   4.996   2.437   4.823 -1.1258  0.2652  0.7242
17485SOL    HW257303   4.986   2.308   4.744 -0.6483  0.0441  1.0173
17486SOL     OW57304   5.839   1.488   7.467 -0.3973 -0.5400 -0.2998
17486SOL    HW157305   5.830   1.445   7.382  2.3008  0.7440 -1.3801
17486SOL    HW257306   5.825   1.581   7.448  0.0299 -0.2580  0.6867
17487SOL     OW57307   5.710   1.917   4.708 -0.3517  0.7031 -0.7534
17487SOL    HW157308   5.657   1.929   4.629  0.9321 -0.3445 -1.8218
17487SOL    HW257309   5.794   1.885   4.676 -0.4783 -1.8928  1.1630
17488SOL     OW57310   5.292   9.654   5.634  0.6478  0.4180  0.0464
17488SOL    HW157311   5.200   9.650   5.657  0.5806  0.7327 -0.1662
17488SOL    HW257312   5.330   9.574   5.671  0.3815  0.5140  0.5275
17489SOL     OW57313   5.794   2.233   5.019  0.2508  0.0368 -0.7221
17489SOL    HW157314   5.721   2.176   5.044  0.5363  0.2208  0.6090
17489SOL    HW257315   5.779   2.251   4.926 -3.2776  2.7072  0.1278
17490SOL     OW57316   6.882   1.028   5.344 -0.3776 -0.1093  0.2585
17490SOL    HW157317   6.971   0.992   5.339 -0.8890 -1.4105 -0.1600
17490SOL    HW257318   6.828   0.960   5.303 -1.5892  0.5649  0.7137
17491SOL     OW57319   5.803   4.119   2.728  0.7360  0.2484  0.3167
17491SOL    HW157320   5.719   4.122   2.775  1.5950 -0.5517  2.0044
17491SOL    HW257321   5.804   4.032   2.688  0.6029  0.4032 -0.0261
17492SOL     OW57322   5.167   0.138   2.950  0.0431 -0.2983 -0.0914
17492SOL    HW157323   5.074   0.121   2.936 -0.1665  1.0678 -0.5212
17492SOL    HW257324   5.169   0.199   3.025  0.6478 -0.9708  0.4521
17493SOL     OW57325   5.336   0.314   4.208 -0.0585  0.5111  0.1959
17493SOL    HW157326   5.409   0.266   4.246  1.1624  2.2223  0.1225
17493SOL    HW257327   5.298   0.254   4.144  1.9244 -0.0792 -0.4962
17494SOL     OW57328   4.036   2.035   2.851 -0.6951  0.1493  0.0804
17494SOL    HW157329   4.094   2.088   2.905  0.0242  0.9358 -1.4352
17494SOL    HW257330   4.078   1.949   2.848 -0.1087  0.4461 -0.2298
17495SOL     OW57331   4.644   9.429   2.801 -0.2074 -0.1465 -0.0240
17495SOL    HW157332   4.583   9.496   2.830  2.6149  3.0851 -0.8904
17495SOL    HW257333   4.687   9.399   2.882 -0.7156 -0.1179  0.2586
17496SOL     OW57334   7.572   0.896   5.375 -0.9529 -0.2390 -0.4447
17496SOL    HW157335   7.656   0.942   5.382 -0.3643 -1.0345 -1.9278
17496SOL    HW257336   7.508   0.965   5.355 -0.4086  0.1934 -0.7135
17497SOL     OW57337   7.775   9.807   3.111 -0.1321 -0.6837  0.4019
17497SOL    HW157338   7.825   9.752   3.171  0.4649 -1.8215 -1.0599
17497SOL    HW257339   7.794   9.770   3.024 -1.1302  0.7523 -0.4646
17498SOL     OW57340   3.786   0.185   5.743  1.1838  0.0772  0.1988
17498SOL    HW157341   3.809   0.276   5.724  2.5564 -0.4255 -0.7386
17498SOL    HW257342   3.691   0.185   5.752  1.2109  1.6906  0.7890
17499SOL     OW57343   6.130   0.721   4.028  0.5521 -0.0644  0.0588
17499SOL    HW157344   6.061   0.729   4.094  1.7306  0.2557  1.2855
17499SOL    HW257345   6.126   0.630   4.000 -0.0695 -0.1638  0.4489
17500SOL     OW57346   6.156   0.542   7.393 -0.1561  0.3306  0.0702
17500SOL    HW157347   6.225   0.505   7.449 -0.5996  0.2743  0.5935
17500SOL    HW257348   6.113   0.466   7.355 -0.8132  0.2994  0.8360
17501SOL     OW57349   5.679   2.516   5.201 -0.5792 -0.2791 -0.2410
17501SOL    HW157350   5.622   2.559   5.266  0.6095 -0.3396  0.8867
17501SOL    HW257351   5.685   2.580   5.129 -3.5329 -1.0265 -1.2913
17502SOL     OW57352   5.617   1.156   5.620  0.0877 -0.3165 -0.3008
17502SOL    HW157353   5.653   1.123   5.537  0.7872  0.1635 -0.2014
17502SOL    HW257354   5.646   1.247   5.623 -0.6471 -0.0872  0.0799
17503SOL     OW57355   6.845   9.574   2.778 -0.1746  0.3738 -0.7690
17503SOL    HW157356   6.862   9.484   2.806  1.6779  0.9300  0.0392
17503SOL    HW257357   6.823   9.621   2.859  1.3711  1.1495 -0.7453
17504SOL     OW57358   5.492   1.491   5.075  0.0406  0.0119  0.4283
17504SOL    HW157359   5.434   1.539   5.135 -0.4348  0.3438 -0.2809
17504SOL    HW257360   5.580   1.503   5.112 -0.4268 -1.4131  2.1437
17505SOL     OW57361   6.251   0.761   3.695 -0.4963 -0.5961  0.0106
17505SOL    HW157362   6.179   0.699   3.686 -1.3330  0.2294  0.7840
17505SOL    HW257363   6.323   0.721   3.646 -1.9981 -0.5915 -2.3998
17506SOL     OW57364   2.870   2.239   2.319 -0.1482  0.0718  0.3599
17506SOL    HW157365   2.841   2.272   2.403 -1.1450 -0.1333  0.1059
17506SOL    HW257366   2.794   2.248   2.261  0.4097 -0.1081 -0.4313
17507SOL     OW57367   5.917   9.226   4.558 -0.6359  0.0656 -0.4778
17507SOL    HW157368   5.822   9.240   4.561 -0.7860 -1.0269  1.3494
17507SOL    HW257369   5.949   9.264   4.640  0.3951 -0.2797 -0.7181
17508SOL     OW57370   5.190   0.086   4.655  0.2906 -0.1621 -0.3820
17508SOL    HW157371   5.272   0.088   4.606  0.1989 -0.8094 -0.5779
17508SOL    HW257372   5.190   0.000   4.698 -1.6347 -1.4781 -2.7532
17509SOL     OW57373   5.396   1.483   5.768 -0.2022 -0.0047  0.1794
17509SOL    HW157374   5.351   1.521   5.843  3.3116 -0.5039  2.7967
17509SOL    HW257375   5.414   1.393   5.794 -0.0842 -0.6222 -1.8946
17510SOL     OW57376   4.019   1.181   3.907 -0.3404 -0.5809 -0.0642
17510SOL    HW157377   4.069   1.262   3.898  0.2382 -1.0543 -1.4022
17510SOL    HW257378   4.084   1.111   3.896 -1.0672 -1.2187 -0.4009
17511SOL     OW57379   5.245   3.511   3.700  0.3132  0.0795  0.1894
17511SOL    HW157380   5.281   3.430   3.735  1.3295  0.6318  0.4760
17511SOL    HW257381   5.256   3.502   3.605 -1.9459 -1.1829 -0.0230
17512SOL     OW57382   4.113   7.801   2.893  0.0418  0.2664 -0.2960
17512SOL    HW157383   4.063   7.879   2.915 -0.0038  0.1618 -0.0239
17512SOL    HW257384   4.205   7.829   2.898  0.0628  0.0278  0.8949
17513SOL     OW57385   6.080   0.398   4.891 -0.2406 -0.0628  0.3583
17513SOL    HW157386   6.117   0.316   4.925 -0.6228 -0.7459 -0.7875
17513SOL    HW257387   5.986   0.381   4.885 -0.2724  0.2869 -0.2899
17514SOL     OW57388   3.400   0.237   4.645 -0.2834 -0.4801  0.2296
17514SOL    HW157389   3.491   0.223   4.671 -0.1097  2.5846  1.7108
17514SOL    HW257390   3.404   0.305   4.579 -1.4677 -1.1805 -0.5957
17515SOL     OW57391   6.433   9.331   5.213  0.2026 -0.3661  0.3993
17515SOL    HW157392   6.462   9.287   5.293  0.4806  0.5474  0.8155
17515SOL    HW257393   6.337   9.322   5.214  0.1365  0.2760  1.2337
17516SOL     OW57394   6.858   1.061   4.892  0.0160  0.2967 -0.2544
17516SOL    HW157395   6.938   1.010   4.899  1.2834  2.2312 -0.0110
17516SOL    HW257396   6.797   1.003   4.846  1.6552 -1.0856 -0.7872
17517SOL     OW57397   8.333   8.963   2.305 -0.1207  0.5512  0.1426
17517SOL    HW157398   8.334   8.927   2.216 -0.1582 -0.3450  0.4885
17517SOL    HW257399   8.380   8.898   2.358  2.0500  2.2290  0.3849
17518SOL     OW57400   5.101   2.374   5.096 -0.3080  0.0922 -0.2565
17518SOL    HW157401   5.062   2.299   5.139  1.6474 -0.5769  0.4793
17518SOL    HW257402   5.125   2.342   5.009  0.9249 -0.3132  0.2097
17519SOL     OW57403   5.867   3.437   3.918 -0.4908  0.4941 -0.0392
17519SOL    HW157404   5.774   3.433   3.896 -1.0713  1.4695  1.9319
17519SOL    HW257405   5.895   3.524   3.890 -1.1482  1.6076  2.4901
17520SOL     OW57406   5.533   0.223   2.392 -0.1996 -0.0954 -0.5725
17520SOL    HW157407   5.540   0.262   2.305  1.8421 -0.7423 -0.7324
17520SOL    HW257408   5.479   0.145   2.379 -3.2375  1.7845 -0.4729
17521SOL     OW57409   5.175   9.310   2.476  0.2712  0.0953 -0.0933
17521SOL    HW157410   5.212   9.245   2.416  2.1862  1.3452 -0.3358
17521SOL    HW257411   5.111   9.357   2.423 -0.4393 -0.9479 -0.1865
17522SOL     OW57412   2.755   0.521   6.119 -0.1715  0.6680 -0.5349
17522SOL    HW157413   2.684   0.502   6.181  0.8968  0.1576  0.5787
17522SOL    HW257414   2.813   0.581   6.165 -0.0318  1.3477 -1.5545
17523SOL     OW57415   5.657   0.064   4.664 -0.3093 -0.0686 -0.2640
17523SOL    HW157416   5.620   0.118   4.595 -0.7234  0.8775  0.6703
17523SOL    HW257417   5.605  -0.016   4.663 -0.2866 -0.0806 -1.0615
17524SOL     OW57418   7.392   9.708   3.009  0.3126  0.1370  0.4132
17524SOL    HW157419   7.400   9.732   2.917  0.9518  1.1756  0.7209
17524SOL    HW257420   7.369   9.790   3.054 -3.5025 -0.9540  0.7860
17525SOL     OW57421   8.289   2.131   4.043 -0.2542  0.2660  0.4388
17525SOL    HW157422   8.207   2.157   4.000  0.7120  1.8240 -0.5784
17525SOL    HW257423   8.357   2.177   3.993  1.3220 -1.6379  0.7290
17526SOL     OW57424   6.623   4.473   3.096 -0.6544 -0.1157  0.4194
17526SOL    HW157425   6.582   4.421   3.165  1.6175  0.1322  2.0616
17526SOL    HW257426   6.701   4.423   3.073 -1.4778 -0.3414 -2.2823
17527SOL     OW57427   7.344   0.133   5.229  1.1176 -0.1450  0.1244
17527SOL    HW157428   7.278   0.199   5.210  0.9227 -0.3271  0.1661
17527SOL    HW257429   7.295   0.051   5.234  1.3335 -0.2674  0.2434
17528SOL     OW57430   6.700   0.312   5.810 -0.0674 -0.6335 -0.4653
17528SOL    HW157431   6.641   0.347   5.876 -1.8610 -1.6423 -1.4545
17528SOL    HW257432   6.708   0.381   5.744  1.0675  0.0582  0.3707
17529SOL     OW57433   6.259   1.070   4.585  0.3210  0.2802 -0.7010
17529SOL    HW157434   6.344   1.099   4.550  0.1353 -0.6902 -2.0412
17529SOL    HW257435   6.264   0.975   4.584 -0.7507  0.2170 -0.6740
17530SOL     OW57436   5.971   3.151   3.869  0.2838 -0.0058 -0.8175
17530SOL    HW157437   5.997   3.130   3.959  2.2771 -0.0441 -1.3367
17530SOL    HW257438   5.921   3.232   3.877  0.2358 -0.1355  0.3443
17531SOL     OW57439   6.035   1.824   2.344  0.1042 -0.9555  0.1674
17531SOL    HW157440   6.080   1.776   2.414  1.0631  0.7865  0.8180
17531SOL    HW257441   6.098   1.825   2.272  0.4950  0.1072  0.5034
17532SOL     OW57442   7.488   1.336   7.094  0.3984  0.2618  0.7125
17532SOL    HW157443   7.497   1.255   7.044 -1.4541  0.3339  0.1977
17532SOL    HW257444   7.413   1.380   7.055 -0.7021  0.6713  3.1042
17533SOL     OW57445   5.174   1.237   3.050  0.5124 -0.4304  0.7293
17533SOL    HW157446   5.102   1.257   2.990 -0.0151 -0.9464  1.1807
17533SOL    HW257447   5.203   1.323   3.081 -0.1916 -0.2276  0.8609
17534SOL     OW57448   6.529   3.538   6.048 -0.1348 -0.2830  0.1630
17534SOL    HW157449   6.604   3.579   6.005  1.1347  1.0640  3.3633
17534SOL    HW257450   6.459   3.540   5.981  1.7429  1.2451 -1.9129
17535SOL     OW57451   7.086   9.631   6.767  0.1511  0.5413 -0.0866
17535SOL    HW157452   7.022   9.677   6.821  0.2892  0.9681 -0.2861
17535SOL    HW257453   7.044   9.623   6.681 -0.4106 -0.8699  0.2888
17536SOL     OW57454   7.261   9.664   4.511 -0.9533  0.2326 -0.5618
17536SOL    HW157455   7.227   9.690   4.597 -1.6806 -2.2994 -0.0096
17536SOL    HW257456   7.228   9.575   4.498  1.1410 -0.3595 -2.3859
17537SOL     OW57457   5.773   2.144   4.320  0.4082  0.1269 -0.0408
17537SOL    HW157458   5.696   2.093   4.343  0.1948  1.2572  1.9354
17537SOL    HW257459   5.847   2.088   4.342  0.1618  0.1625  0.9115
17538SOL     OW57460   7.886   3.584   3.455  0.4039  0.3787 -0.0751
17538SOL    HW157461   7.933   3.505   3.480  2.2530  0.7664 -2.0107
17538SOL    HW257462   7.947   3.655   3.471 -0.1774  1.1077 -0.9538
17539SOL     OW57463   6.599   0.369   8.105 -0.4501 -0.2842 -0.4257
17539SOL    HW157464   6.677   0.342   8.153  0.3819  0.3033 -1.4291
17539SOL    HW257465   6.568   0.447   8.151  1.1606  1.1293 -1.6103
17540SOL     OW57466   6.772   9.429   5.524 -0.1408 -0.6537  0.5213
17540SOL    HW157467   6.763   9.510   5.573 -0.8657 -0.2866 -0.2062
17540SOL    HW257468   6.687   9.385   5.533 -0.2708 -0.6084 -0.3302
17541SOL     OW57469   5.428   2.735   2.245  0.2444 -0.0358 -0.1328
17541SOL    HW157470   5.363   2.755   2.312  1.1375 -0.2550  0.8306
17541SOL    HW257471   5.435   2.640   2.246  1.4938  0.0393  0.7009
17542SOL     OW57472   8.909   1.684   3.913  0.1023  0.0459  0.1486
17542SOL    HW157473   9.001   1.707   3.898  0.1940  0.3651  1.1576
17542SOL    HW257474   8.908   1.640   3.998 -0.6073 -0.4224 -0.0899
17543SOL     OW57475   6.369   0.436   7.520  0.1840  0.4418 -0.1235
17543SOL    HW157476   6.453   0.455   7.562 -0.5056  1.3471  0.9100
17543SOL    HW257477   6.382   0.353   7.475  1.9483  1.0785 -0.8675
17544SOL     OW57478   7.712   2.406   2.374 -0.2142  0.0877  0.5381
17544SOL    HW157479   7.618   2.391   2.390 -0.4327  1.1191  0.2421
17544SOL    HW257480   7.715   2.486   2.323  0.9419  1.3638  2.4761
17545SOL     OW57481   6.909   2.375   6.776 -0.2387 -0.1280 -0.2523
17545SOL    HW157482   6.892   2.439   6.845  0.0064  0.4566 -0.7331
17545SOL    HW257483   6.941   2.298   6.823  1.7220  0.8834  0.1713
17546SOL     OW57484   5.947   3.012   4.844 -0.3219  0.1396 -0.2581
17546SOL    HW157485   6.013   2.943   4.846  1.9983  2.1903 -1.1493
17546SOL    HW257486   5.891   2.989   4.770 -2.1309 -2.8093  1.8247
17547SOL     OW57487   5.340   0.788   4.442 -0.2649  0.2463  0.0432
17547SOL    HW157488   5.279   0.742   4.500  0.2164 -0.3722  0.0606
17547SOL    HW257489   5.313   0.764   4.354 -0.4142  0.4476  0.0326
17548SOL     OW57490   7.485   1.427   6.522 -0.4908  0.3337  0.2219
17548SOL    HW157491   7.429   1.377   6.580 -1.0475  1.1148  0.3727
17548SOL    HW257492   7.574   1.407   6.551 -0.7576  0.5788  1.2424
17549SOL     OW57493   6.845   2.966   3.056 -0.3174  0.0550  0.5713
17549SOL    HW157494   6.817   3.057   3.070 -0.6849 -0.3564  2.9682
17549SOL    HW257495   6.929   2.960   3.100 -1.0376 -1.1292  1.8842
17550SOL     OW57496   6.957   0.791   5.564 -0.0907 -0.2644  0.3859
17550SOL    HW157497   6.885   0.728   5.558 -0.5163  0.1857  0.7641
17550SOL    HW257498   6.954   0.823   5.654 -0.5656  1.1189 -0.1037
17551SOL     OW57499   7.268   1.496   6.989  0.1821  0.8535 -0.0455
17551SOL    HW157500   7.253   1.521   6.898 -1.9228 -0.4639 -0.1160
17551SOL    HW257501   7.287   1.579   7.034  1.2703  1.5208 -1.6448
17552SOL     OW57502   5.320   0.575   3.559 -0.2204  0.0582  0.1253
17552SOL    HW157503   5.330   0.657   3.609  2.0530 -0.1614  0.1415
17552SOL    HW257504   5.327   0.602   3.468 -2.4805  0.2038 -0.0753
17553SOL     OW57505   5.471   0.760   4.704  0.2304 -0.3245 -0.0090
17553SOL    HW157506   5.468   0.809   4.622 -0.8180 -0.6549 -0.1807
17553SOL    HW257507   5.503   0.673   4.680  1.3704  0.0141  0.1838
17554SOL     OW57508   7.770   7.401   5.840  0.1360 -0.4170  0.3368
17554SOL    HW157509   7.792   7.321   5.889 -1.8938 -1.7462 -0.7940
17554SOL    HW257510   7.785   7.378   5.749 -1.1128  0.2687 -0.0569
17555SOL     OW57511   7.447   0.948   3.961 -0.3906  0.5909 -0.5919
17555SOL    HW157512   7.443   0.876   4.024 -2.6184  1.3757  0.2442
17555SOL    HW257513   7.500   0.914   3.889 -1.0316 -1.7367 -0.0370
17556SOL     OW57514   6.301   2.700   3.549  0.2571  0.2066  0.0417
17556SOL    HW157515   6.386   2.688   3.506  0.0163  0.4660 -0.5204
17556SOL    HW257516   6.308   2.785   3.593  0.6002 -0.1825  0.7628
17557SOL     OW57517   6.952   0.634   4.780  0.1721  0.1804 -0.3728
17557SOL    HW157518   6.963   0.729   4.789 -0.9078  0.2957 -0.2185
17557SOL    HW257519   6.864   0.616   4.812  0.2074 -0.8296 -0.7962
17558SOL     OW57520   4.944   1.278   3.881 -0.1813  0.1153 -0.6886
17558SOL    HW157521   5.034   1.246   3.891 -0.9701 -1.8617  0.7907
17558SOL    HW257522   4.921   1.257   3.791  0.6307  0.1033 -0.9044
17559SOL     OW57523   4.430   0.711   3.772 -0.1352  0.5819 -0.2000
17559SOL    HW157524   4.404   0.671   3.689  0.6298  0.7881 -0.5478
17559SOL    HW257525   4.347   0.737   3.813 -0.6024 -0.6693 -0.3056
17560SOL     OW57526   7.177   8.524   6.449  0.1024  0.3676  0.1253
17560SOL    HW157527   7.107   8.582   6.418  0.2929 -0.7697 -2.7597
17560SOL    HW257528   7.245   8.583   6.482 -1.4672  1.5473  1.4209
17561SOL     OW57529   6.220   2.279   5.039  0.3548  0.6975  0.2640
17561SOL    HW157530   6.189   2.241   4.956  0.4479  0.2033  0.4546
17561SOL    HW257531   6.156   2.348   5.059  0.3045  0.7862 -0.1933
17562SOL     OW57532   6.517   1.123   4.457  0.7270 -0.3859 -0.3540
17562SOL    HW157533   6.610   1.144   4.453  0.0891  3.3543  0.3431
17562SOL    HW257534   6.479   1.168   4.381 -0.5621 -1.6737 -0.5196
17563SOL     OW57535   5.277   1.282   3.614 -0.3406 -0.3456  0.1375
17563SOL    HW157536   5.194   1.241   3.587 -0.1279 -2.7012  2.6803
17563SOL    HW257537   5.250   1.349   3.677 -0.4000 -0.1585 -0.0876
17564SOL     OW57538   4.212   2.626   6.651 -0.0205 -0.0480 -0.6700
17564SOL    HW157539   4.238   2.662   6.567  0.6539 -0.7617 -0.7814
17564SOL    HW257540   4.237   2.534   6.647 -0.9914 -0.3611 -0.1056
17565SOL     OW57541   6.788   0.775   5.258  0.0192 -0.3133 -0.1641
17565SOL    HW157542   6.771   0.737   5.345 -1.4459  0.2952 -0.1577
17565SOL    HW257543   6.821   0.701   5.207  3.0702 -0.2355  1.4324
17566SOL     OW57544   4.923   0.305   3.593  0.1984  0.3042 -0.1410
17566SOL    HW157545   4.958   0.310   3.682  0.0081  0.2571 -0.0627
17566SOL    HW257546   4.863   0.379   3.586 -0.2588 -0.0494 -0.0218
17567SOL     OW57547   6.880   9.562   5.926  0.3885  0.3141 -0.4449
17567SOL    HW157548   6.872   9.501   5.853  1.6120  0.8675 -1.0751
17567SOL    HW257549   6.886   9.507   6.004  0.5052 -0.3306 -0.9039
17568SOL     OW57550   3.936   3.425   5.157  0.3955 -0.6869  0.1688
17568SOL    HW157551   3.899   3.513   5.149 -2.4403 -1.8917 -1.7001
17568SOL    HW257552   4.008   3.424   5.094  0.0359  0.1177 -0.2738
17569SOL     OW57553   6.071   0.049   5.885 -0.1153 -0.3420  0.5908
17569SOL    HW157554   5.978   0.036   5.868  0.0084 -0.3277 -0.1092
17569SOL    HW257555   6.089  -0.001   5.965 -0.9047  0.3498  1.2202
17570SOL     OW57556   4.661   0.665   4.730 -0.1969  0.6404  0.3704
17570SOL    HW157557   4.679   0.756   4.705  1.2955  0.3582  0.3340
17570SOL    HW257558   4.682   0.662   4.824 -0.2464  0.3281  0.3716
17571SOL     OW57559   5.962   1.389   3.770 -0.1321  0.0591  0.3612
17571SOL    HW157560   5.955   1.412   3.678 -1.4838 -0.2856  0.3585
17571SOL    HW257561   6.028   1.449   3.805  1.9454 -1.1533 -1.2243
17572SOL     OW57562   5.856   1.612   4.760 -0.5258  0.2699 -0.0209
17572SOL    HW157563   5.772   1.567   4.768 -0.6492  0.5700  0.4427
17572SOL    HW257564   5.922   1.545   4.777 -0.6830  0.1023 -0.0746
17573SOL     OW57565   7.971   9.188   2.871 -0.0758  0.0391 -0.3785
17573SOL    HW157566   7.964   9.151   2.783 -0.3418  1.9735 -1.2225
17573SOL    HW257567   7.979   9.282   2.857  1.4782  0.2871  1.6134
17574SOL     OW57568   7.909   8.319   3.340 -0.2024  0.0496 -0.2049
17574SOL    HW157569   7.915   8.392   3.402  0.3468 -1.1642  1.2351
17574SOL    HW257570   7.974   8.339   3.273  0.8808  0.2794  0.8694
17575SOL     OW57571   4.560   0.383   4.596  0.2154  0.0449  0.0991
17575SOL    HW157572   4.545   0.432   4.677  3.0139 -1.2441  1.5112
17575SOL    HW257573   4.514   0.301   4.608 -1.8479  0.9830 -0.9506
17576SOL     OW57574   8.323   9.218   1.331  0.2261 -0.9847  0.5448
17576SOL    HW157575   8.277   9.244   1.252  0.6052 -1.8660  0.0081
17576SOL    HW257576   8.369   9.297   1.359 -0.8927 -0.3314  0.6013
17577SOL     OW57577   4.400   0.763   4.538 -0.3336 -0.1562  1.4522
17577SOL    HW157578   4.414   0.850   4.502 -0.6891  0.3742  2.5398
17577SOL    HW257579   4.395   0.705   4.462  0.4768  0.6810  0.7379
17578SOL     OW57580   5.549   8.873   6.927  0.6917  0.0901 -0.0356
17578SOL    HW157581   5.588   8.786   6.928  1.0005  0.2293  0.7726
17578SOL    HW257582   5.579   8.914   7.008 -1.2572  0.1538  0.6971
17579SOL     OW57583   4.695   1.252   6.311  0.2009 -0.1906  0.1249
17579SOL    HW157584   4.778   1.300   6.310 -1.3058  2.6860  1.0915
17579SOL    HW257585   4.684   1.227   6.403 -0.6061  0.6668  0.2750
17580SOL     OW57586   5.471   0.703   7.380 -0.0205  0.3482  0.3512
17580SOL    HW157587   5.386   0.728   7.416 -0.2750 -0.4601  0.3348
17580SOL    HW257588   5.477   0.749   7.297 -0.3429  0.5948  0.4659
17581SOL     OW57589   4.925   0.658   8.555  0.2808 -0.2489 -0.1090
17581SOL    HW157590   4.948   0.578   8.507  1.3634 -0.4013  0.6401
17581SOL    HW257591   4.871   0.708   8.493 -0.3783 -1.5290 -0.6043
17582SOL     OW57592   8.073   1.131   5.839 -0.8047  0.1727  0.0703
17582SOL    HW157593   8.127   1.144   5.917  0.8688 -0.9657 -0.8162
17582SOL    HW257594   8.082   1.037   5.820 -2.3523  0.1474 -0.6841
17583SOL     OW57595   4.908   9.386   7.914  0.1797  0.0090  0.0924
17583SOL    HW157596   4.957   9.467   7.898 -0.2377  0.1779 -0.3451
17583SOL    HW257597   4.976   9.320   7.926  0.5211  0.3099 -0.1396
17584SOL     OW57598   5.853   3.304   5.325 -0.1043  0.1855  0.4072
17584SOL    HW157599   5.789   3.253   5.374 -0.9838  0.5934 -0.2819
17584SOL    HW257600   5.927   3.245   5.314  0.3763  0.2903  2.7291
17585SOL     OW57601   7.353   0.524   7.487 -0.3695 -0.3817  0.1494
17585SOL    HW157602   7.396   0.439   7.494  0.8908  0.2297  0.1413
17585SOL    HW257603   7.380   0.571   7.566 -0.2356  0.3691 -0.3295
17586SOL     OW57604   5.259   0.524   6.569  0.4126  0.6145  0.1096
17586SOL    HW157605   5.226   0.579   6.640 -2.0126 -0.1350 -0.3623
17586SOL    HW257606   5.193   0.456   6.558  2.1609 -1.0168 -0.9430
17587SOL     OW57607   7.559   9.676   8.356  0.7647  0.3213  0.1143
17587SOL    HW157608   7.551   9.761   8.401 -0.7532  0.3158 -0.0863
17587SOL    HW257609   7.540   9.696   8.264 -1.8963 -0.5414  0.3940
17588SOL     OW57610   6.914   0.560   6.183  0.2068  0.0969 -0.0413
17588SOL    HW157611   6.900   0.469   6.159  0.7601 -0.4528  1.6414
17588SOL    HW257612   7.008   0.569   6.193  0.0551  0.4455  1.2703
17589SOL     OW57613   6.661   3.492   7.320 -0.3037 -0.3581  0.0236
17589SOL    HW157614   6.752   3.482   7.348 -0.4283 -0.1313  0.5394
17589SOL    HW257615   6.617   3.413   7.353 -0.2667 -0.5243 -0.3302
17590SOL     OW57616   6.270   0.916   7.315  0.1319  0.0157  0.1519
17590SOL    HW157617   6.323   0.856   7.367  0.5579 -0.4216 -0.7701
17590SOL    HW257618   6.248   0.867   7.236 -0.4793  0.6796 -0.1073
17591SOL     OW57619   6.656   2.712   7.308 -0.2610 -0.2075 -0.0491
17591SOL    HW157620   6.716   2.695   7.236 -0.5914  1.5927 -0.7819
17591SOL    HW257621   6.692   2.663   7.382  2.0552  0.7421 -0.4888
17592SOL     OW57622   8.148   1.883   7.579  0.0872 -0.6679  0.6542
17592SOL    HW157623   8.138   1.822   7.505 -0.3045 -0.3435  0.4396
17592SOL    HW257624   8.206   1.837   7.639  0.8067 -0.7445 -0.0739
17593SOL     OW57625   6.970   9.850   5.096 -0.2294  0.0070 -0.7004
17593SOL    HW157626   6.960   9.756   5.084 -2.0004 -0.0726  0.9478
17593SOL    HW257627   6.891   9.877   5.145  2.5240  1.4356  3.5277
17594SOL     OW57628   6.074   0.706   8.179 -0.2326  0.3023  0.4927
17594SOL    HW157629   6.101   0.635   8.121  1.6157  0.1918  1.4181
17594SOL    HW257630   6.154   0.732   8.225 -1.4038  1.1008  2.2075
17595SOL     OW57631   5.523   0.468   4.864 -0.2520 -0.4581  0.8502
17595SOL    HW157632   5.497   0.471   4.956 -0.7782  0.4567  0.6865
17595SOL    HW257633   5.467   0.401   4.825 -0.3514 -0.5191  1.1022
17596SOL     OW57634   9.044   1.687   4.330  0.0925 -0.2295 -0.4276
17596SOL    HW157635   9.107   1.759   4.331 -0.9363  0.7012  1.7494
17596SOL    HW257636   9.087   1.617   4.378  0.7051 -0.7728 -1.7187
17597SOL     OW57637   5.824   0.344   4.896  0.1835 -0.4571  0.3211
17597SOL    HW157638   5.756   0.285   4.927 -0.6226 -0.0259 -0.5611
17597SOL    HW257639   5.804   0.357   4.803 -0.1553  1.8321  0.6501
17598SOL     OW57640   6.507   3.942   4.255  0.3452  0.5913 -0.0880
17598SOL    HW157641   6.450   3.999   4.306  0.4096 -0.5031  1.2731
17598SOL    HW257642   6.455   3.862   4.242  1.1944 -0.0524  0.3472
17599SOL     OW57643   8.255   0.803   7.911 -0.3703  0.0090  0.3866
17599SOL    HW157644   8.350   0.795   7.907 -0.2348  0.8757  1.5453
17599SOL    HW257645   8.225   0.780   7.822  0.8257 -1.2127  0.2729
17600SOL     OW57646   6.834   1.200   7.318 -0.0404  0.0684 -0.1685
17600SOL    HW157647   6.849   1.130   7.381 -1.9064 -1.2311 -1.0824
17600SOL    HW257648   6.865   1.279   7.362  2.6577 -1.3611  0.6751
17601SOL     OW57649   6.371   1.029   8.465 -0.1089  0.1267  0.3460
17601SOL    HW157650   6.397   1.093   8.399 -0.0663  0.4382  0.6585
17601SOL    HW257651   6.446   1.025   8.525 -0.5793  0.6734  0.9849
17602SOL     OW57652   6.633   1.055   8.594  0.0019 -0.4567 -0.0568
17602SOL    HW157653   6.656   1.018   8.679 -0.0519  1.0385  0.6298
17602SOL    HW257654   6.717   1.061   8.548  0.0888 -0.8802  0.0390
17603SOL     OW57655   6.508   0.912   5.682 -0.3285 -0.3479  1.0449
17603SOL    HW157656   6.480   0.937   5.770 -0.8439  0.1905  0.7316
17603SOL    HW257657   6.592   0.956   5.671 -1.0500  0.9601  0.6415
17604SOL     OW57658   6.601   9.344   7.445  0.6541 -0.6189  0.0903
17604SOL    HW157659   6.684   9.391   7.435  0.0480  1.9018  4.5054
17604SOL    HW257660   6.543   9.384   7.380  1.3501  1.8007  0.8745
17605SOL     OW57661   5.991   0.728   6.069 -0.0312 -0.2622 -0.2638
17605SOL    HW157662   6.066   0.777   6.036  0.3799 -0.7311 -0.0467
17605SOL    HW257663   5.916   0.785   6.055  0.3512  0.1577 -0.6065
17606SOL     OW57664   9.302   1.087   7.754 -0.0972  0.7980 -0.3263
17606SOL    HW157665   9.291   0.999   7.790 -0.3372  0.3310 -1.4795
17606SOL    HW257666   9.397   1.101   7.755 -0.1106  0.8958  0.6716
17607SOL     OW57667   5.336   1.919   6.723  0.0824  0.3291 -0.0590
17607SOL    HW157668   5.346   1.848   6.660 -0.9122 -0.2771  0.4365
17607SOL    HW257669   5.241   1.935   6.727 -0.0519 -0.5893  2.2594
17608SOL     OW57670   7.876   1.616   4.268  0.0614  0.3851 -0.3777
17608SOL    HW157671   7.907   1.602   4.357  1.4306  1.5946 -0.6165
17608SOL    HW257672   7.936   1.564   4.214 -0.4207  0.0924 -0.6374
17609SOL     OW57673   7.249   0.489   5.198  0.3725  0.1141 -0.1548
17609SOL    HW157674   7.182   0.437   5.243  0.2055 -3.0011 -3.5662
17609SOL    HW257675   7.319   0.499   5.263 -1.1784 -1.1064  1.8219
17610SOL     OW57676   5.209   0.124   5.868  0.0495  0.7311 -0.8154
17610SOL    HW157677   5.115   0.110   5.866  0.2681 -0.8066 -1.8866
17610SOL    HW257678   5.220   0.210   5.908 -1.7437  0.4357  0.4080
17611SOL     OW57679   3.641   0.722   8.002 -0.2576  0.1177 -0.5925
17611SOL    HW157680   3.640   0.629   8.024  0.3325  0.0264 -0.9651
17611SOL    HW257681   3.656   0.725   7.908  1.3238  0.6194 -0.3559
17612SOL     OW57682   3.895   0.546   5.994 -0.1380  0.5149  0.8367
17612SOL    HW157683   3.988   0.548   6.018 -0.1060  1.9253  0.6563
17612SOL    HW257684   3.852   0.508   6.071  0.6597 -1.0986  0.5464
17613SOL     OW57685   6.629   0.864   7.267  0.0002  0.3491  0.1729
17613SOL    HW157686   6.641   0.927   7.338  0.9775  0.7984 -0.3580
17613SOL    HW257687   6.691   0.893   7.199 -0.5513 -0.3545 -0.6562
17614SOL     OW57688   4.712   0.155   8.311 -0.6320 -0.3998 -0.0399
17614SOL    HW157689   4.753   0.205   8.382 -1.2537  0.0279  0.0266
17614SOL    HW257690   4.767   0.174   8.235  0.0015 -0.8090  0.2994
17615SOL     OW57691   6.516   0.485   7.012  0.2445 -0.0363 -0.0478
17615SOL    HW157692   6.423   0.508   7.006  0.1226 -0.3211  0.6223
17615SOL    HW257693   6.547   0.528   7.092  0.7853  0.3610 -0.4667
17616SOL     OW57694   4.953   8.807   0.561  0.5307 -0.0025 -0.0522
17616SOL    HW157695   4.908   8.807   0.645  2.2320 -0.7861  0.9227
17616SOL    HW257696   5.016   8.735   0.568  1.5057  0.6534 -1.5624
17617SOL     OW57697   9.022   0.152   6.896  0.0485 -0.3305  0.4389
17617SOL    HW157698   9.039   0.073   6.948 -1.2287 -1.1561 -0.3490
17617SOL    HW257699   9.108   0.193   6.886  1.0606 -2.5276 -0.5671
17618SOL     OW57700   6.764   8.935   5.230  0.4735 -0.0763  0.1880
17618SOL    HW157701   6.844   8.884   5.216  0.3077  0.3128 -3.0068
17618SOL    HW257702   6.793   9.026   5.231  0.2642 -0.0091  1.1559
17619SOL     OW57703   4.588   0.270   6.753 -0.2407 -0.2881  0.6450
17619SOL    HW157704   4.628   0.345   6.796 -0.3313 -1.2888  2.5749
17619SOL    HW257705   4.500   0.298   6.731  0.7615  1.2754 -1.8526
17620SOL     OW57706   6.479   9.778   5.718  0.4060 -0.4052 -0.2306
17620SOL    HW157707   6.440   9.696   5.748 -1.2573  0.0833 -0.9375
17620SOL    HW257708   6.405   9.836   5.701  1.4424  0.6148 -1.5788
17621SOL     OW57709   7.208   1.533   5.833 -0.0722  0.0297 -0.4958
17621SOL    HW157710   7.286   1.552   5.782 -1.0509  1.3105 -1.5824
17621SOL    HW257711   7.212   1.594   5.908  0.9094 -1.2321  0.5156
17622SOL     OW57712   6.788   0.719   4.221 -0.4262  0.1463  0.8871
17622SOL    HW157713   6.846   0.719   4.145 -0.1358  0.7857  1.1017
17622SOL    HW257714   6.817   0.793   4.274  1.9402 -2.4743  3.5817
17623SOL     OW57715   6.753   8.489   5.571 -0.4569  0.2331 -0.2982
17623SOL    HW157716   6.672   8.528   5.603  0.2032 -0.1542  1.9754
17623SOL    HW257717   6.794   8.558   5.519 -1.0817  1.2996  0.5848
17624SOL     OW57718   4.129   2.331   3.546  0.7934 -0.8561  0.1110
17624SOL    HW157719   4.116   2.421   3.577  0.5782 -0.8822  0.0965
17624SOL    HW257720   4.102   2.333   3.455 -0.6470 -1.2782  0.5116
17625SOL     OW57721   7.102   0.325   6.470 -0.2645 -0.0014  0.2679
17625SOL    HW157722   7.141   0.411   6.488  0.2193 -0.2816  0.5663
17625SOL    HW257723   7.021   0.324   6.521  0.6511 -0.4449  1.7803
17626SOL     OW57724   6.156   3.467   7.405 -0.2246 -0.4658 -0.1689
17626SOL    HW157725   6.196   3.410   7.470 -0.7531 -1.3937 -0.6302
17626SOL    HW257726   6.126   3.407   7.336 -1.3877  0.3016 -0.3569
17627SOL     OW57727   5.458   0.869   5.912  0.3760  0.3617 -0.1690
17627SOL    HW157728   5.388   0.807   5.891  1.4483 -0.9410 -0.0861
17627SOL    HW257729   5.500   0.832   5.990 -0.0148  2.1262  0.9304
17628SOL     OW57730   8.146   0.070   4.820  0.3913  0.1158 -0.1890
17628SOL    HW157731   8.066   0.056   4.769  0.2177  0.8433 -0.1257
17628SOL    HW257732   8.188  -0.016   4.823 -0.5695 -0.3564  0.0884
17629SOL     OW57733   6.135   9.786   6.112  0.0367 -0.0069 -0.1302
17629SOL    HW157734   6.086   9.746   6.183  3.3065 -1.9847  1.2029
17629SOL    HW257735   6.213   9.823   6.153  1.0875  0.5747 -2.4461
17630SOL     OW57736   7.643   1.493   8.114  0.2672  0.3017 -0.0018
17630SOL    HW157737   7.720   1.530   8.070 -1.7269  4.0824 -0.7680
17630SOL    HW257738   7.648   1.527   8.203 -0.2549  0.1596  0.0834
17631SOL     OW57739   6.536   8.913   5.399  0.3684  0.9049  0.6995
17631SOL    HW157740   6.465   8.894   5.337  0.8500 -0.4989  0.5213
17631SOL    HW257741   6.612   8.930   5.343  0.6697  0.2089  0.8811
17632SOL     OW57742   8.095   0.229   3.281  0.0347 -0.2239  0.1493
17632SOL    HW157743   8.133   0.255   3.365 -2.5088  3.6395  0.3496
17632SOL    HW257744   8.017   0.178   3.304 -0.4662  0.5361  0.1843
17633SOL     OW57745   4.863   2.148   8.011 -0.0995 -0.4521  0.1314
17633SOL    HW157746   4.933   2.083   8.012 -0.4593 -0.8503 -0.2050
17633SOL    HW257747   4.793   2.110   8.064 -0.8592 -0.9785 -1.2035
17634SOL     OW57748   6.073   0.207   6.977  0.2749 -0.6294  0.4474
17634SOL    HW157749   5.981   0.188   6.992 -0.2806  1.3212 -0.2941
17634SOL    HW257750   6.097   0.149   6.904 -0.4754 -0.8759  0.3857
17635SOL     OW57751   6.665   2.700   6.611 -0.1270 -0.2726  0.2166
17635SOL    HW157752   6.707   2.785   6.625  1.3963 -1.0782  0.7388
17635SOL    HW257753   6.668   2.657   6.696  0.5163 -1.4476 -0.3757
17636SOL     OW57754   7.086   8.601   6.072 -0.1868  0.1249  0.0911
17636SOL    HW157755   7.166   8.552   6.053 -1.2604 -1.2595 -1.0995
17636SOL    HW257756   7.054   8.563   6.154 -0.6628 -0.7505 -0.4819
17637SOL     OW57757   4.593   1.018   5.789  0.4930 -0.0368 -0.6034
17637SOL    HW157758   4.508   0.974   5.798  0.6637 -0.2667 -0.0916
17637SOL    HW257759   4.579   1.104   5.828  0.6960 -0.3425  0.1637
17638SOL     OW57760   7.046   1.755   7.479  0.1931  0.0304 -0.0032
17638SOL    HW157761   7.023   1.783   7.568  0.4636  0.4305 -0.0599
17638SOL    HW257762   7.141   1.757   7.477  0.2040 -0.4423 -0.1582
17639SOL     OW57763   4.834   9.733   8.359  0.0399 -0.7660 -0.3209
17639SOL    HW157764   4.780   9.784   8.298  0.9678  1.2937  0.4633
17639SOL    HW257765   4.784   9.734   8.441  0.2896 -0.6788 -0.1691
17640SOL     OW57766   6.652   1.005   7.861 -0.3669 -0.3635  0.5681
17640SOL    HW157767   6.585   0.955   7.906 -0.5522 -0.0193  0.6792
17640SOL    HW257768   6.605   1.075   7.816  0.0024  0.5456  1.5481
17641SOL     OW57769   6.596   9.203   6.099  0.2715  0.0204 -0.5526
17641SOL    HW157770   6.507   9.235   6.089  0.1515  0.1400  0.7648
17641SOL    HW257771   6.587   9.108   6.107 -0.0183  0.2023  2.0566
17642SOL     OW57772   8.469   0.247   7.229 -0.3324  0.0573  0.0770
17642SOL    HW157773   8.380   0.219   7.250 -0.0129 -1.1190 -0.0880
17642SOL    HW257774   8.511   0.170   7.192  0.2183  1.0837 -1.5329
17643SOL     OW57775   6.248   9.441   4.047  0.0069  0.1034  0.0684
17643SOL    HW157776   6.280   9.419   4.134 -0.8176 -1.0478  0.0987
17643SOL    HW257777   6.328   9.452   3.994  0.4973  0.2909  0.8319
17644SOL     OW57778   6.785   1.843   5.105  0.4632 -0.9874  0.1827
17644SOL    HW157779   6.770   1.891   5.023 -1.7169 -2.6106 -0.4678
17644SOL    HW257780   6.730   1.888   5.170 -0.4292 -1.6651 -0.0801
17645SOL     OW57781   6.585   1.938   7.692 -0.3480  0.9012 -1.0289
17645SOL    HW157782   6.616   1.968   7.778  2.2613 -0.3802 -1.4207
17645SOL    HW257783   6.503   1.893   7.710  0.5045  0.0249  0.9229
17646SOL     OW57784   7.618   9.072   7.799 -0.5823 -0.1617 -0.5830
17646SOL    HW157785   7.537   9.087   7.848 -0.4650  0.7831 -0.6537
17646SOL    HW257786   7.682   9.044   7.864 -0.8449 -0.4376 -0.4468
17647SOL     OW57787   8.178   3.149   6.699 -0.3529  0.0557 -0.1437
17647SOL    HW157788   8.133   3.232   6.712 -1.0774 -0.0406 -1.8187
17647SOL    HW257789   8.224   3.133   6.782 -3.1196  0.3141  1.5553
17648SOL     OW57790   4.406   0.622   5.196 -0.2535 -0.4117 -0.2856
17648SOL    HW157791   4.326   0.658   5.157  0.3807  0.7313 -0.5466
17648SOL    HW257792   4.465   0.609   5.123 -0.2836 -1.5745 -0.1369
17649SOL     OW57793   5.926   2.823   5.527 -0.8777 -0.3002 -0.0027
17649SOL    HW157794   5.927   2.916   5.552  2.1429  0.0862 -1.0946
17649SOL    HW257795   5.939   2.823   5.432  2.0558 -1.7430  0.2682
17650SOL     OW57796   2.888   9.077   6.458 -0.2386  0.2572  0.5020
17650SOL    HW157797   2.876   9.069   6.363 -0.5818  0.3737  0.5363
17650SOL    HW257798   2.841   9.157   6.482  2.5631  2.1324  0.2580
17651SOL     OW57799   4.280   8.065   7.720  0.0196 -0.5945  0.1145
17651SOL    HW157800   4.282   8.045   7.814  0.5287 -3.6411 -0.4556
17651SOL    HW257801   4.226   7.996   7.682  1.1364 -0.3512 -2.0436
17652SOL     OW57802   5.945   7.287   7.183  0.0027  0.1923 -0.1494
17652SOL    HW157803   5.896   7.283   7.101 -0.4863  0.9126  0.0958
17652SOL    HW257804   5.949   7.197   7.213 -0.0679 -0.0410 -0.8180
17653SOL     OW57805   5.190   8.835   5.263 -0.3415  0.2323  0.6927
17653SOL    HW157806   5.264   8.896   5.258  0.2386 -0.5320 -0.3262
17653SOL    HW257807   5.125   8.872   5.203 -0.0313 -0.0911  0.1540
17654SOL     OW57808   6.979   3.284   7.190 -0.2304 -0.4848  0.3607
17654SOL    HW157809   7.067   3.322   7.188 -0.7706  0.9289  1.4429
17654SOL    HW257810   6.940   3.317   7.271 -1.3516 -2.0512  0.5104
17655SOL     OW57811   7.709   0.563   3.423 -0.2312  0.3235 -0.2086
17655SOL    HW157812   7.734   0.655   3.418  0.6591  0.0724 -0.6648
17655SOL    HW257813   7.792   0.515   3.414 -0.6980 -0.5234 -0.1235
17656SOL     OW57814   6.977   9.382   2.961 -0.1079  0.5024 -1.0338
17656SOL    HW157815   7.045   9.418   3.019 -1.4128  4.2083 -1.5354
17656SOL    HW257816   7.025   9.350   2.885  1.2641  0.1479 -0.0604
17657SOL     OW57817   5.618   3.205   4.994  0.3757  1.1208  0.3407
17657SOL    HW157818   5.595   3.112   4.988 -1.4044  1.5981 -0.9288
17657SOL    HW257819   5.587   3.231   5.081 -0.6728  0.8864  0.0567
17658SOL     OW57820   6.263   4.367   5.057 -0.3087  0.0321 -0.0470
17658SOL    HW157821   6.333   4.394   5.116 -0.5421 -0.9434  0.7088
17658SOL    HW257822   6.278   4.273   5.043 -1.4429 -0.2002  0.1290
17659SOL     OW57823   4.172   0.625   6.604 -0.1588 -0.1036  0.0722
17659SOL    HW157824   4.243   0.570   6.572 -0.7886 -0.2485 -1.1652
17659SOL    HW257825   4.186   0.632   6.698  1.5817  0.0239 -0.1692
17660SOL     OW57826   5.268   9.707   5.954  0.0694 -0.5380 -0.2282
17660SOL    HW157827   5.252   9.795   5.920 -0.0560 -0.4704  0.0001
17660SOL    HW257828   5.217   9.650   5.896 -0.8481 -0.3411  0.3698
17661SOL     OW57829   7.558   3.638   7.755  0.0310  0.1294 -0.1863
17661SOL    HW157830   7.533   3.575   7.687 -1.0477  0.9262 -0.5649
17661SOL    HW257831   7.495   3.624   7.825  0.6909 -0.1931  0.3471
17662SOL     OW57832   6.699   9.436   7.121  0.2757 -0.4285 -0.0004
17662SOL    HW157833   6.623   9.379   7.105  0.0262 -0.5089  1.3867
17662SOL    HW257834   6.723   9.419   7.211  2.0733 -0.5177 -0.4655
17663SOL     OW57835   5.053   2.867   5.313  0.4989 -0.0984  0.3339
17663SOL    HW157836   5.054   2.850   5.407  0.6391 -0.6689  0.2300
17663SOL    HW257837   5.046   2.781   5.273 -2.3537  0.2510 -0.1308
17664SOL     OW57838   7.903   2.454   5.987 -0.0962  0.5228  0.3919
17664SOL    HW157839   7.911   2.370   6.031 -2.1031  0.5940  1.0309
17664SOL    HW257840   7.876   2.515   6.057 -1.3284  1.0841 -0.5385
17665SOL     OW57841   4.802   8.888   7.261  0.0697  0.4086  0.6132
17665SOL    HW157842   4.857   8.964   7.279 -0.2936  0.7038  0.4734
17665SOL    HW257843   4.774   8.858   7.348 -0.7005  1.1101  0.6153
17666SOL     OW57844   7.934   1.170   7.781 -0.1602 -0.4874 -0.3571
17666SOL    HW157845   8.002   1.156   7.714  0.9758 -0.1044  0.6810
17666SOL    HW257846   7.929   1.086   7.827 -0.9664 -0.7615 -0.9288
17667SOL     OW57847   6.952   0.374   5.393 -0.6262 -0.1420 -0.2394
17667SOL    HW157848   6.932   0.420   5.475 -1.0805  0.0562 -0.4602
17667SOL    HW257849   6.869   0.372   5.346 -0.5405 -0.9180 -0.3670
17668SOL     OW57850   6.126   9.459   5.485  0.1395  0.2839 -0.2294
17668SOL    HW157851   6.146   9.392   5.419  1.6217 -0.3800  0.8383
17668SOL    HW257852   6.033   9.479   5.471 -0.6202 -2.6208 -0.0851
17669SOL     OW57853   6.621   3.407   4.778 -0.6526  0.2777 -0.0774
17669SOL    HW157854   6.682   3.447   4.839  2.0851 -0.3119 -2.1980
17669SOL    HW257855   6.572   3.481   4.740  1.0496  1.1891 -0.6060
17670SOL     OW57856   5.294   0.535   4.042 -0.1063 -0.4515 -0.0786
17670SOL    HW157857   5.314   0.450   4.082 -2.1128 -1.3610 -0.8340
17670SOL    HW257858   5.307   0.520   3.948 -1.8381 -0.4089 -0.3576
17671SOL     OW57859   6.145   1.477   7.520  0.7779  0.2038 -0.8323
17671SOL    HW157860   6.177   1.388   7.534  2.3290  0.8835  0.3179
17671SOL    HW257861   6.053   1.474   7.546  1.1152 -0.8127  0.3231
17672SOL     OW57862   6.032   9.076   7.453 -0.0635  0.0988  0.1394
17672SOL    HW157863   6.089   9.103   7.525 -0.0989  0.0748  0.1764
17672SOL    HW257864   5.997   9.158   7.418 -0.2853  0.0936  0.3440
17673SOL     OW57865   7.836   1.169   4.862 -0.7839  0.1260 -0.0836
17673SOL    HW157866   7.742   1.184   4.847 -1.2572 -2.6047 -0.4233
17673SOL    HW257867   7.849   1.192   4.954 -0.7848  4.3297 -0.9144
17674SOL     OW57868   8.370   2.388   7.687 -0.0192  0.2079  0.7465
17674SOL    HW157869   8.445   2.448   7.682  0.1948 -0.1386 -1.7397
17674SOL    HW257870   8.378   2.335   7.608 -0.8359 -2.3722  2.3026
17675SOL     OW57871   7.121   0.912   7.172  0.1965 -0.1305  0.3399
17675SOL    HW157872   7.104   0.956   7.089  0.6171  1.6639  1.1776
17675SOL    HW257873   7.035   0.905   7.213  0.1410  0.0030  0.2463
17676SOL     OW57874   5.169   0.806   5.850 -0.0628 -0.5514  0.5664
17676SOL    HW157875   5.101   0.843   5.795 -1.1421 -0.9229  1.6071
17676SOL    HW257876   5.187   0.720   5.812 -0.2831 -0.5104  0.3730
17677SOL     OW57877   5.638   0.294   8.036 -0.6702  0.2778 -0.6823
17677SOL    HW157878   5.734   0.291   8.037 -0.6878 -0.9893  0.7626
17677SOL    HW257879   5.614   0.264   7.949  0.2315 -1.2154 -0.4480
17678SOL     OW57880   5.684   0.212   8.301 -0.1472 -0.2125 -0.0807
17678SOL    HW157881   5.657   0.244   8.214  1.0673  2.2960  0.3551
17678SOL    HW257882   5.756   0.151   8.283 -0.8824 -0.8578 -0.8884
17679SOL     OW57883   7.171   1.290   5.268 -0.2905  0.1556 -0.6157
17679SOL    HW157884   7.238   1.257   5.208 -0.2592  0.7545 -0.9177
17679SOL    HW257885   7.179   1.235   5.345  0.5926  0.2534 -0.6226
17680SOL     OW57886   6.127   9.482   6.772  0.8482 -0.4346  0.1313
17680SOL    HW157887   6.108   9.566   6.729 -0.7017 -0.5731  0.4868
17680SOL    HW257888   6.064   9.477   6.843  3.2425 -0.2788  2.4213
17681SOL     OW57889   6.724   9.656   5.664 -0.0569 -0.1581  0.5262
17681SOL    HW157890   6.749   9.695   5.748  0.2837  1.4198 -0.2534
17681SOL    HW257891   6.629   9.662   5.662  0.0203  1.7581 -0.0190
17682SOL     OW57892   7.869   0.816   5.716  0.3271  0.0307  0.4634
17682SOL    HW157893   7.855   0.810   5.622  1.7736  1.0525  0.1355
17682SOL    HW257894   7.820   0.743   5.753 -2.2335  0.9357 -0.8355
17683SOL     OW57895   5.352   9.439   4.398 -0.4890 -0.0663  0.4286
17683SOL    HW157896   5.360   9.417   4.491 -1.4485 -1.1242  0.2915
17683SOL    HW257897   5.322   9.358   4.357  0.0362  0.3550 -0.8315
17684SOL     OW57898   5.866   9.166   7.038 -0.8024 -0.2054 -0.2915
17684SOL    HW157899   5.887   9.211   7.120 -1.0551  1.4381 -1.1007
17684SOL    HW257900   5.791   9.111   7.059  0.4684 -1.5059  1.1049
17685SOL     OW57901   7.532   1.552   7.695 -0.2130  0.8436  0.3576
17685SOL    HW157902   7.562   1.630   7.742  1.8423  0.0905  0.4331
17685SOL    HW257903   7.581   1.480   7.736 -1.8175 -0.4535  0.0817
17686SOL     OW57904   7.216   0.438   5.821  0.5515 -0.1793 -0.5784
17686SOL    HW157905   7.220   0.521   5.868  1.8638 -0.4979 -0.0775
17686SOL    HW257906   7.134   0.442   5.772 -0.4292  0.5381  1.0479
17687SOL     OW57907   4.579   2.285   8.564 -0.2388 -0.1444 -0.1280
17687SOL    HW157908   4.569   2.222   8.492 -0.1137 -0.4298  0.0987
17687SOL    HW257909   4.494   2.284   8.609 -0.1532 -0.3471  0.0310
17688SOL     OW57910   6.851   0.542   5.137  0.1512  0.1721 -0.5347
17688SOL    HW157911   6.817   0.516   5.052  0.9472 -3.3169  0.0422
17688SOL    HW257912   6.818   0.475   5.197  2.0416  0.8181  1.3497
17689SOL     OW57913   6.668   0.072   6.353  0.2959  0.4581  0.1607
17689SOL    HW157914   6.583   0.057   6.311  0.7993 -2.4608 -0.0385
17689SOL    HW257915   6.731   0.032   6.293  1.5318  0.4170  1.4368
17690SOL     OW57916   7.917   1.532   7.472 -0.0748 -0.9489 -0.0591
17690SOL    HW157917   8.010   1.542   7.451  0.2307 -0.8420  1.3028
17690SOL    HW257918   7.902   1.588   7.547 -1.1183 -1.4153  0.1107
17691SOL     OW57919   5.399   1.569   9.711 -0.1317 -0.3236  0.0608
17691SOL    HW157920   5.382   1.661   9.732 -0.2650 -0.5466  0.9925
17691SOL    HW257921   5.437   1.533   9.791  2.0270 -0.5489 -0.9883
17692SOL     OW57922   7.621   4.864   7.004  0.4961  0.6927  0.0589
17692SOL    HW157923   7.712   4.888   7.022  1.7725 -2.7782 -1.1020
17692SOL    HW257924   7.580   4.861   7.090  1.9911  0.5188  0.7985
17693SOL     OW57925   6.335   0.028   7.085 -0.3281 -0.1950 -0.7258
17693SOL    HW157926   6.260   0.009   7.029 -1.6094  0.1939  0.7898
17693SOL    HW257927   6.389  -0.050   7.080 -0.1424  0.0097 -2.8533
17694SOL     OW57928   5.646   7.707   6.172  0.4118 -0.1291  0.5971
17694SOL    HW157929   5.721   7.734   6.224 -0.6168 -0.6619  2.4465
17694SOL    HW257930   5.642   7.612   6.182  1.4156 -0.5612 -2.2501
17695SOL     OW57931   6.935   1.472   5.838 -0.8533  0.0760 -0.4814
17695SOL    HW157932   6.912   1.454   5.746  0.4631  0.0494 -0.8218
17695SOL    HW257933   7.025   1.504   5.834 -1.0367  0.7786  0.7425
17696SOL     OW57934   8.577   0.492   7.183  0.2972  0.3291 -0.0969
17696SOL    HW157935   8.495   0.527   7.149  0.9661  1.0234 -1.0563
17696SOL    HW257936   8.563   0.397   7.189 -0.3428  0.3662 -0.9038
17697SOL     OW57937   4.805   0.980   5.453  0.3197  0.1602  0.0264
17697SOL    HW157938   4.820   0.990   5.359 -1.6044 -0.1495 -0.3351
17697SOL    HW257939   4.736   1.043   5.474  0.5160  0.0152  1.1829
17698SOL     OW57940   6.719   9.381   8.764  0.4117 -0.2689  0.0137
17698SOL    HW157941   6.813   9.371   8.776  0.6283  0.6670 -0.7227
17698SOL    HW257942   6.706   9.475   8.755 -0.3134 -0.5019 -1.8549
17699SOL     OW57943   8.014   0.506   4.769 -0.1157 -0.4670 -0.0671
17699SOL    HW157944   8.078   0.567   4.733  1.3419 -2.4743 -1.1264
17699SOL    HW257945   7.982   0.458   4.693 -1.8349 -0.4801  0.6347
17700SOL     OW57946   5.075   1.278   5.280  0.2573 -0.0149 -0.5286
17700SOL    HW157947   5.015   1.299   5.351 -0.2813  0.8245 -1.2024
17700SOL    HW257948   5.048   1.191   5.251  1.8820 -1.3441  1.6590
17701SOL     OW57949   6.755   2.777   8.794  0.0152  0.0044  0.3213
17701SOL    HW157950   6.666   2.806   8.776  0.2150  0.4870  0.1133
17701SOL    HW257951   6.779   2.724   8.718  0.3732  0.9449 -0.2401
17702SOL     OW57952   7.623   9.838   6.347 -0.8705 -0.3109  0.2105
17702SOL    HW157953   7.638   9.871   6.259 -2.1239  0.7817  0.3827
17702SOL    HW257954   7.711   9.824   6.383 -0.3210  1.4689 -0.3728
17703SOL     OW57955   4.458   0.355   7.048  0.2106 -0.5410  0.3150
17703SOL    HW157956   4.512   0.372   7.125 -1.7721  0.6135  1.5422
17703SOL    HW257957   4.488   0.420   6.983  0.6685 -0.3025  0.7572
17704SOL     OW57958   5.959   0.098   6.741 -0.0720 -0.8418  0.3208
17704SOL    HW157959   5.884   0.157   6.735  0.3407 -0.2384  0.9604
17704SOL    HW257960   5.928   0.026   6.796 -0.8059 -1.6040 -1.0436
17705SOL     OW57961   4.743   8.082   3.633  0.2251 -0.1201 -0.1152
17705SOL    HW157962   4.740   8.081   3.537  2.0379 -0.0612 -0.2027
17705SOL    HW257963   4.743   7.990   3.659  0.2637 -0.1407 -0.1887
17706SOL     OW57964   7.239   1.320   7.867 -0.0360 -0.3232 -0.3300
17706SOL    HW157965   7.302   1.356   7.930  0.6158 -0.4083 -0.9262
17706SOL    HW257966   7.290   1.261   7.813 -0.6764 -0.5473 -0.6963
17707SOL     OW57967   6.011   0.586   6.857 -0.6725  0.1303  0.4137
17707SOL    HW157968   6.090   0.557   6.903 -0.0589  0.4114 -0.4173
17707SOL    HW257969   5.953   0.619   6.925 -0.1741 -0.3240  1.0655
17708SOL     OW57970   5.139   0.026   5.568  0.0918  0.2517 -0.0275
17708SOL    HW157971   5.136  -0.053   5.514 -0.7273 -1.0993  1.8834
17708SOL    HW257972   5.053   0.031   5.609 -0.1484  2.6122 -0.7048
17709SOL     OW57973   6.440   0.621   7.876 -0.4163 -0.3575 -0.3045
17709SOL    HW157974   6.437   0.528   7.894  1.5883 -0.4277 -0.1140
17709SOL    HW257975   6.530   0.638   7.849 -0.0498  1.9216  1.9306
17710SOL     OW57976   3.848   1.635   5.664 -0.7893 -0.9277  0.1723
17710SOL    HW157977   3.834   1.633   5.569  0.3784 -2.1735 -0.0071
17710SOL    HW257978   3.796   1.561   5.697  0.4922 -1.8539  0.2060
17711SOL     OW57979   5.526   1.979   8.246 -0.4884  0.7294 -0.1914
17711SOL    HW157980   5.436   1.955   8.222 -0.2629 -0.4916  0.1465
17711SOL    HW257981   5.573   1.896   8.251  0.5980  1.3330 -0.0620
17712SOL     OW57982   7.824   2.198   5.683  0.4406 -0.4027 -0.0649
17712SOL    HW157983   7.910   2.220   5.647  0.4687  0.1475  0.3291
17712SOL    HW257984   7.834   2.209   5.778  0.1223 -0.9915  0.0441
17713SOL     OW57985   6.089   1.040   3.411 -0.0161 -0.1151 -0.1687
17713SOL    HW157986   6.074   0.945   3.409 -1.0246  0.0372 -1.2239
17713SOL    HW257987   6.163   1.051   3.471  0.5458 -1.6153 -0.5254
17714SOL     OW57988   6.532   3.499   6.882  0.5106 -0.0109 -0.2668
17714SOL    HW157989   6.615   3.499   6.929  1.1800  2.6871 -1.2365
17714SOL    HW257990   6.471   3.541   6.943  0.4327  0.0792 -0.4059
17715SOL     OW57991   3.740   1.755   4.859  0.2732  0.5038 -0.6978
17715SOL    HW157992   3.802   1.760   4.932 -0.0963 -0.9558 -0.2406
17715SOL    HW257993   3.788   1.708   4.790 -0.5402 -1.4701 -0.0134
17716SOL     OW57994   7.135   2.353   9.611 -0.6007  0.2670  0.2895
17716SOL    HW157995   7.156   2.312   9.695 -0.1310  1.1084  0.5992
17716SOL    HW257996   7.040   2.343   9.602 -0.4113 -1.5239 -0.0052
17717SOL     OW57997   7.921   0.518   5.658  0.3240  0.2763  0.0964
17717SOL    HW157998   8.015   0.527   5.638  0.2067 -0.0179 -0.6065
17717SOL    HW257999   7.919   0.482   5.747  0.8510  1.9002  0.7927
17718SOL     OW58000   8.898   2.142   8.431 -0.7464  0.0752 -0.0384
17718SOL    HW158001   8.901   2.047   8.445  1.8149  0.1904  0.6375
17718SOL    HW258002   8.888   2.152   8.337  2.4975 -0.9906 -0.6185
17719SOL     OW58003   5.976   1.872   9.375  0.5502  0.2157  0.3207
17719SOL    HW158004   5.958   1.807   9.306  1.1131  1.3813 -0.9845
17719SOL    HW258005   6.062   1.907   9.352 -0.6212  2.9096 -0.2824
17720SOL     OW58006   7.300   4.423   6.669  0.2055  0.5544  0.0172
17720SOL    HW158007   7.392   4.403   6.654  0.6556  0.8714  2.0014
17720SOL    HW258008   7.296   4.450   6.761 -2.4671 -3.1239  1.2084
17721SOL     OW58009   7.230   0.580   6.520 -0.0123 -0.4478  0.2608
17721SOL    HW158010   7.187   0.661   6.547  0.2174 -0.3341  0.2901
17721SOL    HW258011   7.306   0.608   6.471 -0.8859 -0.6643 -1.2677
17722SOL     OW58012   5.820   2.921   5.964  0.0907 -0.4195 -0.3107
17722SOL    HW158013   5.793   2.957   6.049 -0.6410 -1.0176 -0.2794
17722SOL    HW258014   5.861   2.837   5.987 -1.1161 -1.1193 -0.6162
17723SOL     OW58015   6.033   9.647   7.590  0.1770 -0.2302 -0.2184
17723SOL    HW158016   6.047   9.598   7.509 -2.8115 -0.2375 -0.8713
17723SOL    HW258017   6.037   9.581   7.659  3.0790 -0.1739 -0.2244
17724SOL     OW58018   6.443   0.868   7.027  0.4483 -0.2212  0.6072
17724SOL    HW158019   6.360   0.822   7.032 -0.1662  0.8577  0.7062
17724SOL    HW258020   6.481   0.859   7.115 -0.7244  1.3315  1.3145
17725SOL     OW58021   5.624   3.930   4.169 -0.2444 -0.7258 -0.3891
17725SOL    HW158022   5.702   3.951   4.118 -0.9737 -0.0810 -1.2810
17725SOL    HW258023   5.650   3.857   4.224  0.4602 -1.7058 -1.9608
17726SOL     OW58024   7.384   0.320   4.391 -0.3670 -0.1207  0.0213
17726SOL    HW158025   7.338   0.398   4.362  0.8932  0.4273 -0.5488
17726SOL    HW258026   7.474   0.332   4.362 -0.2973 -2.1190 -0.7333
17727SOL     OW58027   7.874   2.176   6.871 -0.8941 -0.6753  0.1975
17727SOL    HW158028   7.823   2.098   6.895  0.4048 -2.3745 -2.0931
17727SOL    HW258029   7.917   2.203   6.952  1.0770 -4.3150  0.5984
17728SOL     OW58030   7.351   0.187   6.498 -0.5707 -0.5962 -0.2697
17728SOL    HW158031   7.273   0.241   6.502  0.4745  1.1455 -2.0723
17728SOL    HW258032   7.392   0.197   6.585  1.0069  3.8811 -1.2536
17729SOL     OW58033   5.159   8.724   6.466  0.4294 -0.1957 -0.4282
17729SOL    HW158034   5.198   8.656   6.521  0.3548  0.7068  0.7795
17729SOL    HW258035   5.182   8.699   6.376  0.9427 -1.4579  0.0384
17730SOL     OW58036   7.763   0.938   6.566  0.1973 -0.3794  0.5522
17730SOL    HW158037   7.839   0.925   6.622  0.0446  0.4838  0.9825
17730SOL    HW258038   7.712   1.006   6.610 -0.5981 -0.6262  0.0421
17731SOL     OW58039   7.112   1.164   5.737  0.2166 -0.1954  0.3486
17731SOL    HW158040   7.037   1.135   5.789 -1.1981  2.3071 -0.1548
17731SOL    HW258041   7.174   1.198   5.803 -0.7326  1.1541  0.5951
17732SOL     OW58042   5.080   2.074   7.022 -0.6569  0.6481  0.4158
17732SOL    HW158043   5.043   2.079   7.111  0.1996  2.1634  0.7390
17732SOL    HW258044   5.006   2.087   6.964 -1.0352  0.9868  0.9676
17733SOL     OW58045   5.062   2.888   6.986 -0.0686 -0.6554  0.3866
17733SOL    HW158046   5.025   2.863   7.071 -0.7158  0.4467  0.4404
17733SOL    HW258047   5.052   2.983   6.982 -1.4720 -0.8159 -1.5579
17734SOL     OW58048   6.567   0.791   5.974 -0.5029  0.6211  0.1404
17734SOL    HW158049   6.559   0.868   6.029  0.2310  1.4579 -0.8703
17734SOL    HW258050   6.481   0.749   5.978 -0.8277  1.3426  0.9272
17735SOL     OW58051   5.307   3.350   6.383 -0.5073  0.1853 -0.2393
17735SOL    HW158052   5.323   3.439   6.415  0.3524 -0.3325  0.8334
17735SOL    HW258053   5.256   3.363   6.303 -1.7881  1.5880  0.7305
17736SOL     OW58054   7.095   0.331   7.500 -0.6776 -0.1388  0.2437
17736SOL    HW158055   7.181   0.289   7.503  0.1940  1.5114 -0.4504
17736SOL    HW258056   7.114   0.424   7.492 -2.5341  0.2242 -0.4523
17737SOL     OW58057   4.177   7.761   2.277  0.3208  0.6520  0.4989
17737SOL    HW158058   4.128   7.768   2.195  0.9153 -2.3345 -0.2315
17737SOL    HW258059   4.268   7.774   2.252  0.4565  0.2620  0.7742
17738SOL     OW58060   7.954   2.194   6.041 -0.0789  0.4971  0.2750
17738SOL    HW158061   7.967   2.116   5.987  1.5309  0.6021  0.4462
17738SOL    HW258062   8.043   2.222   6.063 -0.6732  1.3705  1.6776
17739SOL     OW58063   7.683   0.934   6.917 -0.2366  0.9112  0.2228
17739SOL    HW158064   7.751   0.891   6.970 -0.3184  0.7265  0.1789
17739SOL    HW258065   7.720   1.020   6.896  1.6685 -0.5120 -3.0232
17740SOL     OW58066   7.105   1.634   5.562  0.0477  0.0843 -0.1342
17740SOL    HW158067   7.180   1.651   5.619 -1.9775 -0.2154  2.8218
17740SOL    HW258068   7.094   1.539   5.565  1.4749 -0.3306 -3.3647
17741SOL     OW58069   4.705   2.329   6.706  0.0735 -0.6580  0.5524
17741SOL    HW158070   4.660   2.250   6.735 -0.6444 -0.7703 -0.7710
17741SOL    HW258071   4.763   2.352   6.778 -0.1497 -2.0460  1.2004
17742SOL     OW58072   5.737   2.287   6.806 -0.4826  0.1668  0.2368
17742SOL    HW158073   5.766   2.282   6.715 -0.3738 -1.4362  0.3271
17742SOL    HW258074   5.691   2.204   6.821  0.4872 -0.0999  1.9609
17743SOL     OW58075   7.183   2.054   6.120  0.0850 -0.4363 -0.1602
17743SOL    HW158076   7.150   1.998   6.051  0.4854 -1.2426  0.2807
17743SOL    HW258077   7.213   1.993   6.188  1.5645  0.2638 -0.1385
17744SOL     OW58078   5.073   1.531   6.921  0.1872 -0.3085 -0.0393
17744SOL    HW158079   5.021   1.542   7.000 -0.5805  0.6447 -0.6662
17744SOL    HW258080   5.011   1.501   6.855  0.5059  0.4613 -0.6990
17745SOL     OW58081   7.176   0.942   6.342 -0.0981 -0.3712 -0.5686
17745SOL    HW158082   7.082   0.925   6.345 -0.4598  1.0927 -2.0173
17745SOL    HW258083   7.209   0.879   6.278  0.0886 -1.5093  0.6195
17746SOL     OW58084   7.421   1.254   5.145 -0.9865  0.6092 -0.3464
17746SOL    HW158085   7.460   1.332   5.106 -1.0961  0.8684  0.0581
17746SOL    HW258086   7.487   1.221   5.206 -0.4923 -0.2491 -1.3058
17747SOL     OW58087   8.983   9.291   4.525 -0.9467  0.2907  0.2709
17747SOL    HW158088   9.020   9.204   4.542 -0.3823  0.4073 -0.3252
17747SOL    HW258089   8.982   9.334   4.610  2.0726  0.9673  0.1008
17748SOL     OW58090   6.138   9.811   7.298  0.2755  0.5156 -0.2027
17748SOL    HW158091   6.117   9.742   7.235  1.4102 -1.0366  1.0330
17748SOL    HW258092   6.193   9.872   7.250  0.1422 -0.0031 -1.0341
17749SOL     OW58093   6.178   0.674   7.892 -0.5979 -0.7647  0.0673
17749SOL    HW158094   6.273   0.665   7.889 -0.5108  0.2237 -0.9264
17749SOL    HW258095   6.148   0.640   7.807 -1.1594 -1.2798  0.4606
17750SOL     OW58096   8.339   1.271   4.383 -0.1063  0.1242  0.1402
17750SOL    HW158097   8.384   1.321   4.316  0.6592 -0.4649  0.2126
17750SOL    HW258098   8.246   1.286   4.365  0.0940  1.7212  0.2748
17751SOL     OW58099   4.364   4.194   8.359 -0.1431  0.1308  0.1949
17751SOL    HW158100   4.309   4.116   8.365  0.0458  0.0359  0.7390
17751SOL    HW258101   4.342   4.232   8.274 -0.2477 -0.5004 -0.0637
17752SOL     OW58102   5.058   0.891   6.931  0.0929  0.5661 -0.6178
17752SOL    HW158103   4.965   0.909   6.923  0.3314  1.8570 -0.7585
17752SOL    HW258104   5.074   0.882   7.025 -0.0963  0.8244 -0.5605
17753SOL     OW58105   7.723   3.218   7.952 -0.0108  0.5804 -0.3843
17753SOL    HW158106   7.663   3.147   7.973 -1.3231  1.5734 -0.6130
17753SOL    HW258107   7.683   3.296   7.990  1.0182  1.3178 -0.7515
17754SOL     OW58108   8.134   1.532   7.001 -0.6845 -0.0457  0.2156
17754SOL    HW158109   8.061   1.559   7.058 -1.3075 -0.4998 -0.3542
17754SOL    HW258110   8.152   1.442   7.028 -0.6167 -0.0760  0.0648
17755SOL     OW58111   5.570   1.492   6.033 -0.3169 -0.1049 -0.3659
17755SOL    HW158112   5.637   1.561   6.040  0.7347 -1.1121 -0.1278
17755SOL    HW258113   5.615   1.413   6.062 -1.8984 -0.6681  0.6970
17756SOL     OW58114   3.891   2.758   7.843  0.0287 -0.0656  0.5079
17756SOL    HW158115   3.967   2.803   7.879  0.3015 -0.5507  0.5524
17756SOL    HW258116   3.891   2.780   7.750  0.5424 -0.4970  0.4014
17757SOL     OW58117   8.157   2.179   6.410  0.1340  0.3928 -0.2860
17757SOL    HW158118   8.252   2.191   6.410  0.5847 -2.3303  1.1634
17757SOL    HW258119   8.128   2.219   6.492  0.0167  1.2478 -0.7414
17758SOL     OW58120   5.494   9.252   5.529 -0.1139  0.0724  0.5718
17758SOL    HW158121   5.423   9.263   5.592 -2.0897 -1.7512 -1.1346
17758SOL    HW258122   5.467   9.304   5.453  0.5579 -0.3155  0.0476
17759SOL     OW58123   6.156   2.756   4.572  0.3327 -0.5255 -0.2001
17759SOL    HW158124   6.061   2.767   4.576  0.3127 -0.7835  0.1796
17759SOL    HW258125   6.173   2.718   4.486  0.3650  1.9514 -1.3686
17760SOL     OW58126   5.196   6.972   6.513  0.1636 -0.1186  0.6569
17760SOL    HW158127   5.189   7.067   6.508 -0.7921 -0.1593  1.0646
17760SOL    HW258128   5.251   6.947   6.439 -0.6077  0.6355 -0.1778
17761SOL     OW58129   6.262   0.154   5.252 -0.4584  0.4643  0.3698
17761SOL    HW158130   6.346   0.199   5.248 -0.0158 -0.3348  0.3566
17761SOL    HW258131   6.240   0.152   5.346 -0.7255  1.1241  0.3285
17762SOL     OW58132   6.235   0.977   7.590  0.2102  0.2794  0.2078
17762SOL    HW158133   6.245   0.882   7.586 -0.5073  0.2396 -1.1844
17762SOL    HW258134   6.254   1.008   7.502  2.0440  1.6392  1.0073
17763SOL     OW58135   5.887   0.272   6.494  0.0166 -1.2870  0.1550
17763SOL    HW158136   5.830   0.196   6.488  0.7925 -1.9834  1.1955
17763SOL    HW258137   5.841   0.334   6.551  0.5641 -2.1277  1.5576
17764SOL     OW58138   5.431   1.110   6.188 -0.0654  0.1872 -0.2168
17764SOL    HW158139   5.353   1.117   6.243  0.4055  0.1185  0.4657
17764SOL    HW258140   5.501   1.149   6.239  0.7452 -1.4062 -0.0297
17765SOL     OW58141   7.061   9.706   5.772  0.7172  0.3950  0.2797
17765SOL    HW158142   7.039   9.791   5.734  3.2600  1.3371  0.7006
17765SOL    HW258143   7.011   9.703   5.854  1.4406  2.0431  0.8268
17766SOL     OW58144   6.131   0.484   3.878  0.3186 -0.3785 -1.1003
17766SOL    HW158145   6.076   0.408   3.866  0.3315 -0.5322 -0.2712
17766SOL    HW258146   6.213   0.449   3.913 -0.1357  0.1061  0.5507
17767SOL     OW58147   7.328   2.790   4.351  0.5469 -0.1268  0.3277
17767SOL    HW158148   7.420   2.812   4.339  1.0250 -3.1252 -2.7445
17767SOL    HW258149   7.327   2.696   4.368 -1.9946 -0.3576 -0.6940
17768SOL     OW58150   5.369   1.370   7.120 -0.0475 -0.1897  0.1467
17768SOL    HW158151   5.370   1.464   7.135  1.4767 -0.1853  0.1423
17768SOL    HW258152   5.372   1.331   7.207 -3.9210 -0.3397  0.3803
17769SOL     OW58153   8.755   1.921   5.096 -0.4259 -0.1776  0.1584
17769SOL    HW158154   8.742   1.893   5.005 -3.8039  2.3470 -0.3712
17769SOL    HW258155   8.697   1.865   5.147  0.0122 -0.3342  0.4875
17770SOL     OW58156   5.847   9.712   7.226  0.2063  0.0026 -0.1356
17770SOL    HW158157   5.903   9.644   7.190 -1.7963 -1.7887 -0.0555
17770SOL    HW258158   5.790   9.738   7.153  0.6663  1.3356 -0.0543
17771SOL     OW58159   6.841   8.519   0.366 -0.1657  0.1500 -0.6180
17771SOL    HW158160   6.867   8.474   0.447 -0.2067  1.8981  0.4167
17771SOL    HW258161   6.745   8.520   0.368 -0.2930 -2.3471 -2.1898
17772SOL     OW58162   6.252   8.744   9.647 -0.2179  0.4266 -0.5392
17772SOL    HW158163   6.225   8.796   9.572  1.0358  1.2627 -0.4306
17772SOL    HW258164   6.279   8.808   9.713  2.5566 -0.2739 -0.8477
17773SOL     OW58165   5.955   1.411   9.662 -0.8778 -0.2822  0.4463
17773SOL    HW158166   6.019   1.472   9.626  1.5028 -0.9629  3.1300
17773SOL    HW258167   6.000   1.326   9.660 -2.3556 -1.1052  0.8838
17774SOL     OW58168   6.390   1.260   1.683  0.4715 -0.5664  0.3297
17774SOL    HW158169   6.412   1.177   1.641 -1.5488 -1.3907  0.8089
17774SOL    HW258170   6.323   1.298   1.628 -0.6388 -0.6254  1.5925
17775SOL     OW58171   6.936   0.276   6.114 -0.2042 -0.0651  0.1611
17775SOL    HW158172   6.953   0.267   6.021 -0.0712  0.7890  0.0968
17775SOL    HW258173   6.891   0.195   6.139 -0.6687 -0.0879 -0.7344
17776SOL     OW58174   6.238   0.467   8.176 -0.2101 -0.1083 -0.3509
17776SOL    HW158175   6.261   0.375   8.188 -0.3491 -0.1475 -0.3837
17776SOL    HW258176   6.301   0.515   8.230 -1.5561 -0.3255  1.4853
17777SOL     OW58177   8.085   1.829   0.754  0.7883 -0.4223  0.3536
17777SOL    HW158178   8.138   1.750   0.749  0.7761 -0.4481  0.6235
17777SOL    HW258179   8.024   1.813   0.826  1.4757  0.2521  1.0983
17778SOL     OW58180   4.231   4.917   7.210  0.2489  0.6768 -0.0261
17778SOL    HW158181   4.179   4.887   7.136  0.9558 -0.0830 -0.2265
17778SOL    HW258182   4.320   4.922   7.176  0.3573  1.6963  0.3878
17779SOL     OW58183   6.506   1.275   0.025  0.4337  0.9796  0.5781
17779SOL    HW158184   6.560   1.217   0.078  0.0278  0.2714  0.2430
17779SOL    HW258185   6.425   1.285   0.075  0.2324  0.6857  0.3200
17780SOL     OW58186   3.828   1.624   8.046  0.0816 -0.0948  0.5632
17780SOL    HW158187   3.854   1.615   7.954  0.0933 -0.2047  0.5770
17780SOL    HW258188   3.750   1.679   8.043  0.1321 -0.0263  0.4941
17781SOL     OW58189   5.498   2.587   0.017  0.5978  0.0462 -0.1173
17781SOL    HW158190   5.518   2.632  -0.065 -1.0709 -1.7567 -1.6326
17781SOL    HW258191   5.434   2.644   0.060 -0.3901 -0.1363 -1.2917
17782SOL     OW58192   6.717   7.395   6.299 -0.3690 -0.1292  0.4940
17782SOL    HW158193   6.665   7.456   6.352  1.5086  2.4400 -0.3958
17782SOL    HW258194   6.791   7.372   6.355 -1.0023 -1.6291  0.7806
17783SOL     OW58195   5.123   0.607   8.120 -0.9403  0.2311  0.1896
17783SOL    HW158196   5.198   0.663   8.138  0.4714 -1.9339  1.4363
17783SOL    HW258197   5.054   0.667   8.092  0.1813  2.6739  2.3086
17784SOL     OW58198   7.856   1.081   8.857  0.2458 -0.0342 -0.1698
17784SOL    HW158199   7.846   0.997   8.812  0.6792  0.7185 -1.7772
17784SOL    HW258200   7.944   1.076   8.896 -0.0766 -0.6485  0.4991
17785SOL     OW58201   7.541   0.578   7.971  0.1206 -0.1686 -0.3075
17785SOL    HW158202   7.607   0.574   8.040 -0.9070 -0.4617  0.6952
17785SOL    HW258203   7.495   0.494   7.976 -0.6372  0.2100 -0.6471
17786SOL     OW58204   7.159   1.322   7.180 -0.0191  0.2799  0.4075
17786SOL    HW158205   7.070   1.340   7.151  0.5762  2.4036 -0.3139
17786SOL    HW258206   7.215   1.371   7.120  1.6809 -1.2200  0.6638
17787SOL     OW58207   5.348   2.828   9.342 -0.8628 -0.9661 -0.0159
17787SOL    HW158208   5.324   2.736   9.331 -0.7149 -0.8985 -1.0123
17787SOL    HW258209   5.368   2.858   9.253  0.0867 -0.2467  0.4287
17788SOL     OW58210   5.980   0.868   9.094 -0.4117  0.2039 -0.2041
17788SOL    HW158211   6.043   0.872   9.165  0.1516  0.7910 -0.7268
17788SOL    HW258212   6.029   0.896   9.017 -0.9773 -0.5406 -0.8511
17789SOL     OW58213   6.145   8.255   8.617 -0.3338 -0.4167  0.3223
17789SOL    HW158214   6.070   8.199   8.596 -0.2101 -0.6576  0.5177
17789SOL    HW258215   6.165   8.235   8.708 -1.7746  1.6611  1.1973
17790SOL     OW58216   3.766   9.598   7.925 -0.8667  0.0490 -0.6342
17790SOL    HW158217   3.788   9.685   7.890 -0.6311  0.5495  0.6905
17790SOL    HW258218   3.671   9.597   7.929 -0.9009 -0.0771 -1.4320
17791SOL     OW58219   7.505   9.329   0.349 -0.2991  0.0668 -0.0807
17791SOL    HW158220   7.517   9.235   0.339 -1.1326 -0.0727  0.1282
17791SOL    HW258221   7.517   9.345   0.443 -2.7877 -0.2823  0.3808
17792SOL     OW58222   5.077   1.749   7.667  0.0066 -0.5141  0.0841
17792SOL    HW158223   5.088   1.663   7.628 -1.9737 -0.3008 -1.0847
17792SOL    HW258224   4.992   1.746   7.711 -1.0792  1.3722 -1.6813
17793SOL     OW58225   9.082   1.019   8.303  0.3213 -0.3817  0.1196
17793SOL    HW158226   9.009   1.079   8.322  0.3687 -0.1764 -0.3358
17793SOL    HW258227   9.127   1.010   8.387 -0.0708 -0.2933  0.3430
17794SOL     OW58228   6.906   0.605   7.590 -0.6073 -0.5375 -0.1599
17794SOL    HW158229   6.943   0.531   7.639  1.2594  0.4195 -0.0607
17794SOL    HW258230   6.889   0.672   7.657  1.6503  0.6534 -0.6681
17795SOL     OW58231   4.438   2.639   8.534 -0.2306  1.1361 -0.2939
17795SOL    HW158232   4.353   2.673   8.505 -0.7731 -0.7882 -1.1137
17795SOL    HW258233   4.490   2.634   8.454 -0.4923 -0.7653 -0.3834
17796SOL     OW58234   8.141   0.489   7.612  0.4171 -0.1286 -0.9526
17796SOL    HW158235   8.084   0.440   7.552  0.3829  1.4084 -2.2335
17796SOL    HW258236   8.230   0.471   7.581  0.4399  0.1418 -1.0439
17797SOL     OW58237   6.865   0.513   8.320  0.4743  0.0195  0.2289
17797SOL    HW158238   6.822   0.488   8.402  1.2958 -1.3176  0.2888
17797SOL    HW258239   6.882   0.430   8.276 -1.2363  0.7568 -2.0148
17798SOL     OW58240   6.886   7.503   7.412 -0.3230  0.5311 -0.5413
17798SOL    HW158241   6.851   7.590   7.389 -1.6981  0.2026  0.1654
17798SOL    HW258242   6.812   7.444   7.398 -0.3602 -0.0732  1.9008
17799SOL     OW58243   6.331   0.199   8.389  0.6092 -0.1964  0.0372
17799SOL    HW158244   6.407   0.253   8.413 -0.8754  1.7883  0.5818
17799SOL    HW258245   6.369   0.122   8.348  2.8933  1.3335 -0.9881
17800SOL     OW58246   6.026   0.417   9.225 -0.2274 -0.2347 -0.3814
17800SOL    HW158247   6.090   0.423   9.155 -0.5481 -1.3501 -0.7883
17800SOL    HW258248   5.973   0.497   9.216  0.6746  0.3682 -0.4460
17801SOL     OW58249   6.963   0.152   2.108  0.5449 -0.1605 -0.0297
17801SOL    HW158250   6.955   0.127   2.200  1.4657  0.4410  0.2211
17801SOL    HW258251   7.054   0.180   2.098  0.6886 -1.0356 -1.3346
17802SOL     OW58252   5.837   1.487   7.928 -0.7446 -0.2851 -0.1873
17802SOL    HW158253   5.815   1.406   7.881  1.1514 -0.5824 -0.6356
17802SOL    HW258254   5.927   1.474   7.957  0.1193  2.2155 -1.4890
17803SOL     OW58255   3.973   0.250   6.458  0.3711 -0.2776  0.0132
17803SOL    HW158256   3.917   0.219   6.387 -0.9232  0.0020  0.8610
17803SOL    HW258257   3.969   0.180   6.524  0.3747  0.0845  0.4061
17804SOL     OW58258   7.138   0.536   8.250 -0.3405 -0.7014 -0.0450
17804SOL    HW158259   7.053   0.537   8.294 -0.6158 -3.0490 -0.3979
17804SOL    HW258260   7.142   0.450   8.208  1.6266 -0.0933 -1.2236
17805SOL     OW58261   4.744   2.661   8.873  0.0315  0.0537  0.1674
17805SOL    HW158262   4.833   2.677   8.842  0.2530 -1.1792  0.1111
17805SOL    HW258263   4.731   2.567   8.861 -1.5870  0.3392 -0.6144
17806SOL     OW58264   7.211   9.530   7.955 -0.2332 -0.7660  0.1095
17806SOL    HW158265   7.224   9.585   8.032 -0.6661 -0.4190 -0.0590
17806SOL    HW258266   7.120   9.501   7.962 -0.5641  0.0119 -0.7411
17807SOL     OW58267   7.431   0.609   1.188  0.2638 -0.1057 -0.4811
17807SOL    HW158268   7.429   0.661   1.268 -1.2523 -0.2280 -0.4045
17807SOL    HW258269   7.508   0.552   1.198  0.1120 -0.1041  0.8795
17808SOL     OW58270   8.168   0.750   7.649  0.2262 -0.2353  0.1412
17808SOL    HW158271   8.155   0.763   7.555 -0.3298  0.0709  0.2538
17808SOL    HW258272   8.156   0.655   7.661 -0.4671 -0.1691  0.0114
17809SOL     OW58273   6.131   0.528   6.444  0.0670 -0.7602 -0.1638
17809SOL    HW158274   6.048   0.533   6.396  0.8907 -0.7747 -1.6730
17809SOL    HW258275   6.151   0.618   6.468 -0.5906 -0.8095  0.5816
17810SOL     OW58276   4.009   0.145   8.723  0.6004 -1.1447  0.7750
17810SOL    HW158277   3.943   0.079   8.745 -1.4815  0.3145 -0.7392
17810SOL    HW258278   4.072   0.098   8.668  0.0226 -2.2426  1.0218
17811SOL     OW58279   6.209   1.243   7.654 -0.0400  0.0691 -0.1790
17811SOL    HW158280   6.134   1.237   7.714 -1.4969  1.9559 -1.6734
17811SOL    HW258281   6.232   1.152   7.637  0.4776 -0.5718  3.1632
17812SOL     OW58282   6.296   0.815   8.326 -0.4520  0.0977  0.3467
17812SOL    HW158283   6.364   0.759   8.290 -0.6781 -0.9830  1.5577
17812SOL    HW258284   6.343   0.881   8.377 -0.2602  0.1356  0.1236
17813SOL     OW58285   7.113   1.955   9.611  0.6307  0.9759 -0.0718
17813SOL    HW158286   7.209   1.948   9.619  0.6559 -0.5549 -1.2422
17813SOL    HW258287   7.083   1.865   9.603 -0.7542  1.5065 -1.3409
17814SOL     OW58288   6.616   0.557   7.598 -0.2979 -0.3642 -0.7761
17814SOL    HW158289   6.645   0.545   7.689  0.6863  1.8239 -0.7537
17814SOL    HW258290   6.697   0.569   7.549 -0.8949 -0.2534 -1.7500
17815SOL     OW58291   7.231   0.133   7.743 -0.1228 -0.5315  0.0878
17815SOL    HW158292   7.284   0.143   7.663 -0.0656 -0.4953  0.1301
17815SOL    HW258293   7.167   0.065   7.721 -0.6066  0.0227 -0.2593
17816SOL     OW58294   6.204   2.045   8.627 -0.4966  0.2256 -0.3704
17816SOL    HW158295   6.180   2.079   8.713 -1.2930  0.6347 -0.7314
17816SOL    HW258296   6.224   2.123   8.575 -0.9101  0.0514 -0.8019
17817SOL     OW58297   6.136   2.496   8.648 -0.3591 -0.8294 -0.4297
17817SOL    HW158298   6.089   2.544   8.716  3.1475  1.0793  0.8850
17817SOL    HW258299   6.109   2.537   8.566  1.1495  2.3902  0.5304
17818SOL     OW58300   6.477   1.929   8.924  1.0254  0.4930 -1.1273
17818SOL    HW158301   6.528   1.883   8.858 -1.0275  0.2283 -2.6272
17818SOL    HW258302   6.403   1.966   8.876 -0.6494  0.1582  1.0252
17819SOL     OW58303   5.013   1.072   8.923  0.6971  0.4947 -0.7029
17819SOL    HW158304   5.091   1.084   8.978  1.0917  0.7429 -1.3077
17819SOL    HW258305   5.037   1.000   8.865  0.8732  1.2546 -1.5866
17820SOL     OW58306   5.491   9.602   7.678  0.1150 -0.4088 -0.1316
17820SOL    HW158307   5.567   9.545   7.694  1.7467  1.4187 -0.9298
17820SOL    HW258308   5.473   9.591   7.585  0.4445  0.3599 -0.2895
17821SOL     OW58309   5.758   0.441   9.415  0.3894  0.3270 -0.0621
17821SOL    HW158310   5.675   0.422   9.460 -0.1500 -0.2431 -1.2450
17821SOL    HW258311   5.733   0.504   9.347  1.0920  0.7930  0.1113
17822SOL     OW58312   6.437   1.910   7.265 -0.6948  0.7498  0.0374
17822SOL    HW158313   6.500   1.981   7.253  0.2634 -0.0583  0.1020
17822SOL    HW258314   6.383   1.938   7.339  0.5000  0.8650  0.9024
17823SOL     OW58315   5.088   9.227   7.645  0.2800 -0.1176 -0.0649
17823SOL    HW158316   5.068   9.287   7.573  0.3797 -0.6416 -0.5275
17823SOL    HW258317   5.174   9.254   7.676 -0.8871  1.9460  1.7225
17824SOL     OW58318   6.410   0.415   4.859 -0.1411 -0.2750 -0.2456
17824SOL    HW158319   6.383   0.507   4.858 -0.9012 -0.4900 -0.0415
17824SOL    HW258320   6.344   0.370   4.806 -0.5567 -0.9084  0.7918
17825SOL     OW58321   3.757   5.639   7.932 -0.5934 -0.2650  0.3661
17825SOL    HW158322   3.743   5.544   7.921  0.5498 -0.4543  0.3779
17825SOL    HW258323   3.833   5.645   7.990 -0.0191  0.6450 -0.4600
17826SOL     OW58324   6.671   2.992   7.415  0.2188  0.3516 -0.0623
17826SOL    HW158325   6.699   2.943   7.337  1.0485 -0.8771  0.9701
17826SOL    HW258326   6.616   2.931   7.463 -0.0425  0.9929  0.4701
17827SOL     OW58327   5.486   1.553   7.372 -0.0248 -0.1161 -0.0497
17827SOL    HW158328   5.552   1.565   7.441  0.3770  1.4575 -0.6812
17827SOL    HW258329   5.423   1.624   7.386  0.1382  0.3129 -1.3787
17828SOL     OW58330   6.920   0.506   8.676 -0.3411 -0.5209 -0.6545
17828SOL    HW158331   6.870   0.467   8.605 -0.5296  1.2163 -1.5214
17828SOL    HW258332   7.001   0.454   8.680 -0.9255 -1.5020 -1.1912
17829SOL     OW58333   8.835   6.945   8.313  0.2864  0.3497 -0.2364
17829SOL    HW158334   8.798   6.902   8.390  0.4386 -1.3501 -1.0633
17829SOL    HW258335   8.761   6.989   8.272  0.0126  0.4495  0.3591
17830SOL     OW58336   5.457   9.259   6.726  0.5068  0.0407  0.0588
17830SOL    HW158337   5.448   9.235   6.818  0.2689 -0.2339 -0.0378
17830SOL    HW258338   5.511   9.190   6.688 -0.4942 -0.5639 -0.3039
17831SOL     OW58339   6.851   0.541   1.395 -0.5970 -0.3067 -0.3267
17831SOL    HW158340   6.781   0.574   1.452  0.5133  1.1385  0.2851
17831SOL    HW258341   6.810   0.470   1.345 -1.9901 -0.6978  1.2707
17832SOL     OW58342   6.581   0.063   9.825  0.2777  0.1591 -0.1800
17832SOL    HW158343   6.591   0.096   9.914 -0.2799 -0.8729  0.2816
17832SOL    HW258344   6.613   0.134   9.769 -0.0828  1.1276  0.8116
17833SOL     OW58345   7.519   0.857   6.195  0.7678  0.5515 -0.0575
17833SOL    HW158346   7.456   0.901   6.139  1.8411 -0.6411 -2.3528
17833SOL    HW258347   7.564   0.928   6.242 -0.3967  1.5700 -0.4411
17834SOL     OW58348   5.872   0.911   7.304 -0.6239  0.3320  0.4719
17834SOL    HW158349   5.916   0.826   7.304  2.5201  1.8428 -0.4551
17834SOL    HW258350   5.850   0.927   7.212 -1.8820  0.2587  0.7364
17835SOL     OW58351   5.920   0.861   8.353  0.2178  0.2312  0.1490
17835SOL    HW158352   5.962   0.801   8.292  1.7073 -0.0103  1.3393
17835SOL    HW258353   5.989   0.922   8.378 -0.5061  0.6761  1.1249
17836SOL     OW58354   6.969   0.445   7.833  0.0468  0.0903  0.4671
17836SOL    HW158355   7.057   0.414   7.853  0.6426 -0.8200 -2.9011
17836SOL    HW258356   6.912   0.372   7.856  0.2591  0.2697  1.6269
17837SOL     OW58357   5.821   0.114   7.009 -0.1125 -0.0674 -0.4558
17837SOL    HW158358   5.742   0.083   7.054  0.5528  1.1908  1.7281
17837SOL    HW258359   5.788   0.159   6.931 -1.9975  3.4605  2.0888
17838SOL     OW58360   6.449   0.855   8.012 -0.4131 -0.0359 -0.1161
17838SOL    HW158361   6.362   0.889   7.989 -1.1535  0.8552  3.4229
17838SOL    HW258362   6.441   0.760   8.000 -2.2835 -0.0885  1.0882
17839SOL     OW58363   7.374   0.733   0.142  0.1865 -0.5363  0.4164
17839SOL    HW158364   7.446   0.795   0.149  0.6175 -1.0533  0.7212
17839SOL    HW258365   7.416   0.652   0.111 -0.7466  0.0035 -2.6168
17840SOL     OW58366   6.698   2.764   7.586  0.5354 -0.2487 -0.1881
17840SOL    HW158367   6.744   2.701   7.642  0.7807  0.1829  0.1093
17840SOL    HW258368   6.767   2.806   7.535  0.3581 -0.3262 -0.4943
17841SOL     OW58369   7.760   1.086   8.171  0.4254  0.5367  0.1507
17841SOL    HW158370   7.752   1.013   8.109 -1.0161 -0.1926  1.1376
17841SOL    HW258371   7.671   1.120   8.179  0.2248 -0.4067  2.9741
17842SOL     OW58372   9.377   2.675   9.052 -0.0633  0.0862  0.3957
17842SOL    HW158373   9.421   2.760   9.050 -1.1135  0.6460 -0.0113
17842SOL    HW258374   9.297   2.689   9.001  0.1965 -1.4065 -0.4765
17843SOL     OW58375   7.766   1.221   7.198  0.1444 -0.2202  0.0433
17843SOL    HW158376   7.785   1.237   7.291  1.0827 -1.4971  0.0994
17843SOL    HW258377   7.842   1.256   7.152 -0.0303 -0.1559 -0.1986
17844SOL     OW58378   4.791   9.232   9.272 -0.1237  0.4558  0.2603
17844SOL    HW158379   4.789   9.280   9.355 -0.4129  1.8489 -0.5169
17844SOL    HW258380   4.784   9.300   9.205 -2.1813 -0.7680 -0.8667
17845SOL     OW58381   6.300   0.095   9.731  0.1762  1.3585 -0.2521
17845SOL    HW158382   6.261   0.133   9.810 -0.5902 -1.1356  0.6804
17845SOL    HW258383   6.394   0.088   9.752 -0.0465  0.5439  0.5646
17846SOL     OW58384   6.748   0.524   8.906  0.4397 -0.4519  0.0163
17846SOL    HW158385   6.823   0.497   8.853  1.7174  0.7144  1.1539
17846SOL    HW258386   6.677   0.534   8.843  1.4632 -0.7149 -1.2353
17847SOL     OW58387   6.044   0.201   1.587 -0.4253  0.4477 -0.2893
17847SOL    HW158388   5.991   0.160   1.519  0.4686 -1.4020  0.0746
17847SOL    HW258389   6.066   0.287   1.551 -1.2507  0.1194 -1.6667
17848SOL     OW58390   7.048   0.059   7.523 -0.2273  0.1083 -0.3498
17848SOL    HW158391   6.955   0.040   7.509 -0.7558  0.4863  2.1250
17848SOL    HW258392   7.056   0.153   7.509 -0.4028  0.2093  0.2038
17849SOL     OW58393   8.677   2.110   7.163  0.1110  0.3596 -0.3123
17849SOL    HW158394   8.714   2.195   7.137  0.3193  0.2894 -0.2522
17849SOL    HW258395   8.743   2.073   7.223 -1.4716  1.6874  2.4819
17850SOL     OW58396   4.846   0.816   7.235  0.1093  0.0256  0.3226
17850SOL    HW158397   4.929   0.864   7.236 -0.2484  0.6598  0.2265
17850SOL    HW258398   4.782   0.880   7.265 -0.0234 -1.0758  2.5743
17851SOL     OW58399   6.346   0.642   6.119 -0.5300 -0.0079 -0.2408
17851SOL    HW158400   6.305   0.707   6.062 -0.8067 -1.3710 -1.7008
17851SOL    HW258401   6.285   0.567   6.116  0.8625 -1.1760 -0.5031
17852SOL     OW58402   8.336   1.543   6.790  0.6618 -0.4322 -0.0177
17852SOL    HW158403   8.248   1.558   6.826  1.3394  0.8155  1.2051
17852SOL    HW258404   8.331   1.574   6.700  0.5222  2.2600  0.8356
17853SOL     OW58405   5.444   3.107   6.468 -0.2717 -0.0963 -0.2963
17853SOL    HW158406   5.451   3.052   6.390  1.4760  0.4457 -0.5587
17853SOL    HW258407   5.374   3.170   6.447 -0.4065 -0.4916 -1.0762
17854SOL     OW58408   6.290   3.264   7.208 -0.0163 -0.8194  0.7134
17854SOL    HW158409   6.314   3.239   7.119 -1.1352  1.4635 -0.3129
17854SOL    HW258410   6.204   3.223   7.221 -0.8770  0.6009 -0.1660
17855SOL     OW58411   5.670   9.374   8.527  0.0705  0.2012 -0.4670
17855SOL    HW158412   5.596   9.403   8.581  0.3723  1.7857 -0.8390
17855SOL    HW258413   5.667   9.432   8.451 -0.3049 -1.9312 -2.1629
17856SOL     OW58414   5.584   0.969   9.097  0.0823  0.0928  0.4873
17856SOL    HW158415   5.605   0.935   9.184 -1.3474 -0.8468  0.5036
17856SOL    HW258416   5.502   1.016   9.109 -0.7069 -0.9829 -0.5473
17857SOL     OW58417   7.085   0.604   6.974 -0.3071 -0.4114 -0.2767
17857SOL    HW158418   7.134   0.551   6.912  0.6437  0.2673 -0.1283
17857SOL    HW258419   7.016   0.546   7.007  1.0085 -1.7031  0.2734
17858SOL     OW58420   7.610   8.800   6.501  0.0454  0.0483  0.6917
17858SOL    HW158421   7.574   8.872   6.448  0.7374 -0.1543 -0.0729
17858SOL    HW258422   7.700   8.826   6.518  0.4053 -0.7989  0.1206
17859SOL     OW58423   6.500   2.528   0.929  0.3168 -0.3123  0.0542
17859SOL    HW158424   6.477   2.517   0.837  0.7559 -1.3348  0.0453
17859SOL    HW258425   6.581   2.477   0.940 -0.2563 -1.0143  1.2235
17860SOL     OW58426   8.153   9.747   9.363 -0.4517 -0.7323  0.1175
17860SOL    HW158427   8.159   9.797   9.445 -0.5357 -2.4297  1.1911
17860SOL    HW258428   8.230   9.691   9.363  0.2419  0.1407 -1.6336
17861SOL     OW58429   4.940   1.874   7.975 -0.2602 -0.0204  0.4953
17861SOL    HW158430   4.917   1.832   7.892  0.5048 -0.2756  0.4041
17861SOL    HW258431   4.931   1.805   8.040 -1.8415  0.4270  0.8006
17862SOL     OW58432   4.429   0.526   6.100 -0.2889  0.1978 -0.3657
17862SOL    HW158433   4.514   0.485   6.086  0.3431  1.7152 -1.2970
17862SOL    HW258434   4.446   0.593   6.167 -1.1521 -0.5765  0.6740
17863SOL     OW58435   7.990   2.189   8.330  0.1480 -0.4502  0.1424
17863SOL    HW158436   8.003   2.184   8.425 -1.8613 -2.0251  0.3946
17863SOL    HW258437   8.052   2.126   8.294  0.8221  0.0542  0.4009
17864SOL     OW58438   4.927   3.589   7.462  0.1762  0.1857  0.1624
17864SOL    HW158439   4.834   3.596   7.440  0.3280  0.5508 -0.3958
17864SOL    HW258440   4.956   3.509   7.419  0.2570  0.4054 -0.2033
17865SOL     OW58441   6.171   0.046   8.040  0.5157  0.0646 -0.0658
17865SOL    HW158442   6.234   0.118   8.048 -0.5756  0.7839  4.3776
17865SOL    HW258443   6.190   0.008   7.954  4.7327  2.2902 -0.3940
17866SOL     OW58444   7.350   1.060   6.496 -0.0424 -0.4322  0.5986
17866SOL    HW158445   7.382   1.109   6.420  1.8369 -2.8701 -0.3261
17866SOL    HW258446   7.266   1.024   6.467 -0.2931  0.2825  0.4242
17867SOL     OW58447   4.555   1.227   8.630  0.2082 -0.1412  0.0883
17867SOL    HW158448   4.599   1.178   8.699 -0.1631 -0.5294  0.0514
17867SOL    HW258449   4.479   1.266   8.673 -1.4563 -2.4065 -0.5835
17868SOL     OW58450   5.022   3.368   7.324  0.1946 -0.0443 -0.0657
17868SOL    HW158451   5.114   3.389   7.339 -0.2087  1.4687  0.5149
17868SOL    HW258452   5.005   3.293   7.381  0.7199  0.5739  0.9372
17869SOL     OW58453   5.019   1.829   6.366 -0.1656  0.3054  0.6340
17869SOL    HW158454   5.062   1.911   6.391  0.9654  0.0862 -0.5003
17869SOL    HW258455   5.034   1.771   6.441 -1.4758  1.2713  1.6985
17870SOL     OW58456   5.016   0.290   7.726 -0.4008 -0.1592  0.7183
17870SOL    HW158457   5.094   0.278   7.780  1.2971 -1.5959 -1.8711
17870SOL    HW258458   4.959   0.218   7.752 -0.2135 -0.0370  1.5159
17871SOL     OW58459   8.394   0.277   7.765 -0.0741 -0.4088 -0.4089
17871SOL    HW158460   8.323   0.220   7.736 -0.9101  1.6828 -2.8684
17871SOL    HW258461   8.439   0.302   7.685  1.1151  1.2767  0.7131
17872SOL     OW58462   5.541   0.336   9.625  0.3043  0.5055  0.2811
17872SOL    HW158463   5.614   0.389   9.657  0.0111  1.3176 -0.3256
17872SOL    HW258464   5.542   0.257   9.678  1.5283  0.5731  0.3794
17873SOL     OW58465   5.755   8.049   5.823 -0.3464 -0.4370  0.0194
17873SOL    HW158466   5.799   8.114   5.879  1.2044 -1.0565 -0.4620
17873SOL    HW258467   5.771   8.079   5.734  2.2470 -2.5631 -0.3290
17874SOL     OW58468   7.081   8.489   8.905  0.2882 -0.2239 -0.2126
17874SOL    HW158469   7.028   8.569   8.903 -0.3169 -0.6131 -1.8220
17874SOL    HW258470   7.078   8.461   8.996  2.2997  2.6930  0.9006
17875SOL     OW58471   5.905   9.280   7.329  0.2321  0.3291  0.2251
17875SOL    HW158472   5.813   9.304   7.341 -0.3976 -1.4595 -0.6135
17875SOL    HW258473   5.952   9.363   7.325 -1.6761  1.3915 -1.8010
17876SOL     OW58474   6.425   8.721   8.248  0.3111 -0.0260 -0.1245
17876SOL    HW158475   6.416   8.793   8.309 -0.4952  0.0108 -0.2791
17876SOL    HW258476   6.380   8.750   8.169 -0.2591 -0.8028 -0.0925
17877SOL     OW58477   9.214   2.076   8.399  0.6820 -0.0960 -0.2893
17877SOL    HW158478   9.223   2.172   8.404  2.5672 -0.0547 -2.5815
17877SOL    HW258479   9.140   2.062   8.340  1.7666  0.0387 -1.7320
17878SOL     OW58480   5.520   2.238   7.354 -0.1412 -0.3156  0.7964
17878SOL    HW158481   5.541   2.309   7.293 -0.5829 -0.0937  0.9021
17878SOL    HW258482   5.587   2.171   7.337  0.7247  0.4238  1.2039
17879SOL     OW58483   5.597   0.034   9.347  0.3150  0.0413 -0.3193
17879SOL    HW158484   5.515   0.052   9.300 -0.3568  0.3654  0.9522
17879SOL    HW258485   5.659   0.098   9.312 -1.2090  3.0020  1.9648
17880SOL     OW58486   7.757   2.900   6.169 -0.1429 -0.1515 -0.3137
17880SOL    HW158487   7.719   2.988   6.178 -1.2182 -0.5937 -0.4007
17880SOL    HW258488   7.685   2.846   6.137 -0.1000 -1.5589  1.8305
17881SOL     OW58489   7.246   9.437   7.192  0.3316  0.2338 -0.2935
17881SOL    HW158490   7.249   9.499   7.120  1.1199 -1.5340 -1.8703
17881SOL    HW258491   7.240   9.351   7.150 -0.8334 -0.7901  1.7836
17882SOL     OW58492   6.525   1.487   7.063  0.2099  0.2367  0.0514
17882SOL    HW158493   6.523   1.541   7.142  0.8720  1.6948 -0.8663
17882SOL    HW258494   6.497   1.400   7.091 -0.5749  0.9791  1.6692
17883SOL     OW58495   5.356   2.246   9.328 -0.2557 -0.5741  0.2227
17883SOL    HW158496   5.373   2.169   9.274  1.1345  0.8431 -1.4889
17883SOL    HW258497   5.344   2.211   9.416  0.1995 -2.7509 -0.5090
17884SOL     OW58498   7.831   9.178   8.664 -0.0013 -0.1338  0.1538
17884SOL    HW158499   7.821   9.164   8.758 -0.1464 -1.7663 -0.0738
17884SOL    HW258500   7.742   9.192   8.632  0.1432  1.4117  0.3808
17885SOL     OW58501   5.499   3.706   9.417  0.1896  0.0349  0.2790
17885SOL    HW158502   5.408   3.716   9.391  0.6838  0.5088 -1.3958
17885SOL    HW258503   5.495   3.660   9.500 -1.5283 -1.0791 -0.3685
17886SOL     OW58504   9.749   0.222   7.360 -0.2063 -0.5363  0.2775
17886SOL    HW158505   9.825   0.280   7.370 -1.2265  0.6202  1.9280
17886SOL    HW258506   9.699   0.261   7.289  0.2871 -0.7743 -0.2041
17887SOL     OW58507   6.512   0.425   6.015  0.0700 -0.8171  0.1619
17887SOL    HW158508   6.418   0.413   5.998 -0.0302  0.1714 -0.0527
17887SOL    HW258509   6.519   0.516   6.044  0.8703 -1.1007  0.8858
17888SOL     OW58510   6.888   0.553   9.835 -0.0116  0.2833 -0.3424
17888SOL    HW158511   6.917   0.614   9.902  0.8894 -2.3359  1.8450
17888SOL    HW258512   6.808   0.514   9.870 -1.5514  1.2742 -2.4654
17889SOL     OW58513   6.811   0.949   9.141 -0.1134 -0.4935 -0.2253
17889SOL    HW158514   6.903   0.976   9.149 -0.6418  1.2331  0.5186
17889SOL    HW258515   6.809   0.893   9.063  1.2735  0.8764 -1.3079
17890SOL     OW58516   6.670   1.338   8.394  0.0426  0.6299 -0.1705
17890SOL    HW158517   6.575   1.328   8.391 -0.1339  2.2113 -1.0192
17890SOL    HW258518   6.689   1.408   8.332  2.1488 -1.9909 -2.7731
17891SOL     OW58519   5.449   1.903   0.353  0.1209 -0.1705  0.2471
17891SOL    HW158520   5.373   1.959   0.367  0.1436 -0.1183  0.1609
17891SOL    HW258521   5.499   1.947   0.284  0.9224  0.4994  1.2309
17892SOL     OW58522   5.103   0.259   8.036  0.1967  0.5900 -0.2225
17892SOL    HW158523   5.167   0.193   8.064 -0.0323 -0.0266 -1.1077
17892SOL    HW258524   5.156   0.329   7.998  0.4617  1.0892  1.0330
17893SOL     OW58525   5.870   1.139   8.594 -0.7448  0.5430 -0.7175
17893SOL    HW158526   5.935   1.120   8.526  0.8635  4.9983 -0.7753
17893SOL    HW258527   5.787   1.146   8.547 -0.8130 -1.9587 -1.1563
17894SOL     OW58528   6.091   2.172   1.647 -0.8211 -0.1317  0.7016
17894SOL    HW158529   6.161   2.232   1.674 -1.6041  0.5309  1.3272
17894SOL    HW258530   6.116   2.088   1.684  0.8164 -0.4682 -1.0379
17895SOL     OW58531   6.324   0.174   5.865  0.4542  0.2803 -0.2217
17895SOL    HW158532   6.320   0.256   5.915  0.1030  0.3947 -0.4392
17895SOL    HW258533   6.238   0.134   5.879 -0.6387  1.5073 -2.7812
17896SOL     OW58534   6.122   0.313   7.208 -0.3847 -0.3212 -0.6494
17896SOL    HW158535   6.029   0.332   7.220 -0.6045 -1.1326 -0.9996
17896SOL    HW258536   6.124   0.253   7.133  0.3049 -1.4130  0.2303
17897SOL     OW58537   5.565   8.518   8.614  0.1626 -0.5912  0.7150
17897SOL    HW158538   5.483   8.540   8.570  1.5250  0.0034 -1.7742
17897SOL    HW258539   5.551   8.542   8.705 -1.4538  2.3899 -0.1675
17898SOL     OW58540   6.096   0.777   1.678 -0.1840 -0.5973  0.1629
17898SOL    HW158541   6.124   0.687   1.696 -0.0371 -1.0756 -2.1935
17898SOL    HW258542   6.008   0.767   1.641  0.3029  0.1043 -1.2273
17899SOL     OW58543   5.914   1.011   0.686 -0.4054 -0.1772  0.1551
17899SOL    HW158544   5.914   1.104   0.711 -0.0194  0.2875 -1.4364
17899SOL    HW258545   5.859   0.969   0.752  0.3764  0.9781  1.6051
17900SOL     OW58546   6.517   9.508   9.071 -0.7369 -0.3133  0.4445
17900SOL    HW158547   6.463   9.578   9.109  1.3395  0.8614  1.3782
17900SOL    HW258548   6.465   9.477   8.997 -1.9179  1.9841  0.1920
17901SOL     OW58549   7.533   1.631   9.594  0.4649  0.2491 -0.0401
17901SOL    HW158550   7.463   1.639   9.659 -0.3722  0.5036 -0.9595
17901SOL    HW258551   7.493   1.583   9.522  1.5627 -0.5471 -0.1328
17902SOL     OW58552   5.577   2.472   6.940  0.3712  0.4619 -0.2817
17902SOL    HW158553   5.654   2.425   6.907  0.7621 -0.2816  1.5525
17902SOL    HW258554   5.502   2.423   6.905  0.7481 -2.5112  2.6501
17903SOL     OW58555   5.345   0.214   8.989 -0.3653  0.2830 -0.0027
17903SOL    HW158556   5.303   0.223   9.075 -0.9668  0.6925 -0.3296
17903SOL    HW258557   5.393   0.132   8.994 -2.9122 -1.3548 -0.2977
17904SOL     OW58558   5.609   1.493   8.276 -0.2731 -0.3115 -0.1275
17904SOL    HW158559   5.651   1.413   8.244 -0.6110 -0.4764 -0.1626
17904SOL    HW258560   5.523   1.492   8.235 -1.0298 -0.9481  1.4273
17905SOL     OW58561   6.544   4.310   5.942 -0.4456 -0.1829 -0.1409
17905SOL    HW158562   6.507   4.371   5.879 -0.8228  0.9446  1.1360
17905SOL    HW258563   6.516   4.224   5.911  0.5551  0.1911 -2.2755
17906SOL     OW58564   5.729   3.565   7.424  0.4091  0.1166 -0.6190
17906SOL    HW158565   5.760   3.522   7.344 -2.7422 -0.3177 -1.7559
17906SOL    HW258566   5.653   3.617   7.395 -0.7019  0.1162  2.0324
17907SOL     OW58567   5.793   9.806   2.690 -0.1996  0.0321  0.6725
17907SOL    HW158568   5.778   9.712   2.679  2.6083 -0.5728  1.3063
17907SOL    HW258569   5.743   9.829   2.768 -1.8785 -0.6176 -0.1516
17908SOL     OW58570   4.926   0.763   9.041  0.8628 -1.0142  0.0730
17908SOL    HW158571   4.837   0.799   9.040  0.1722 -2.6045 -1.8070
17908SOL    HW258572   4.959   0.783   9.129 -1.1349  0.0852  0.6372
17909SOL     OW58573   5.278   0.351   6.820  0.1518  0.3059  0.4057
17909SOL    HW158574   5.363   0.330   6.782  0.3710  1.7425  0.0419
17909SOL    HW258575   5.287   0.442   6.850 -1.2512  0.4762  0.3599
17910SOL     OW58576   4.555   2.693   8.274 -0.4442  0.4172 -0.6315
17910SOL    HW158577   4.568   2.777   8.229 -1.1739  0.6941 -0.3416
17910SOL    HW258578   4.624   2.636   8.239  0.1419  1.1698 -0.7401
17911SOL     OW58579   8.658   4.128   6.521 -0.4846 -0.0737 -0.4203
17911SOL    HW158580   8.625   4.061   6.582  3.5025 -1.1212  0.8424
17911SOL    HW258581   8.630   4.098   6.435  0.6845 -3.1795  0.1642
17912SOL     OW58582   4.171   2.711   8.876  0.4471 -0.5070  0.1863
17912SOL    HW158583   4.222   2.632   8.859  0.0694 -0.6695 -0.2319
17912SOL    HW258584   4.175   2.760   8.794 -1.3905 -1.2891 -0.4241
17913SOL     OW58585   5.673   2.040   6.198  0.0884  0.0018 -0.5141
17913SOL    HW158586   5.647   1.967   6.255  0.3282  1.2368  1.2433
17913SOL    HW258587   5.615   2.031   6.122 -2.7430  0.2754  1.4437
17914SOL     OW58588   7.109   1.089   6.927 -0.0346 -0.9595  0.2410
17914SOL    HW158589   7.180   1.076   6.864  1.1521 -1.7258  1.6785
17914SOL    HW258590   7.145   1.151   6.991 -0.2074 -2.2453  1.6284
17915SOL     OW58591   7.551   7.667   0.031  0.3461  0.4901 -0.4670
17915SOL    HW158592   7.467   7.622   0.027  0.5577  0.0541 -0.1768
17915SOL    HW258593   7.530   7.758   0.047 -0.0473  0.2573  0.3940
17916SOL     OW58594   4.303   2.356   6.695 -0.5759  0.2009  0.3194
17916SOL    HW158595   4.373   2.325   6.637  0.0833  1.2233  0.5387
17916SOL    HW258596   4.228   2.301   6.674  0.4152 -1.2374  0.4000
17917SOL     OW58597   6.733   0.322   9.126  0.0211 -0.3057 -0.3256
17917SOL    HW158598   6.710   0.254   9.062  0.8183 -0.2285 -0.6941
17917SOL    HW258599   6.743   0.402   9.075 -0.9274  0.1161  0.1116
17918SOL     OW58600   8.858   0.891   7.582  0.2626  0.6060 -0.0061
17918SOL    HW158601   8.766   0.890   7.555  0.4252  0.4844 -0.5747
17918SOL    HW258602   8.872   0.808   7.626 -0.0458  0.8673  0.5892
17919SOL     OW58603   7.064   0.996   5.993  0.3954 -0.7284  0.6792
17919SOL    HW158604   6.982   1.011   6.041 -0.7792 -0.8440 -1.2141
17919SOL    HW258605   7.061   0.904   5.969  2.0434 -1.2373  2.2305
17920SOL     OW58606   5.859   0.101   1.090 -0.0599 -0.5895  0.0524
17920SOL    HW158607   5.867   0.180   1.144 -1.5121  0.4072 -1.1023
17920SOL    HW258608   5.768   0.072   1.104 -0.0194 -1.1357 -0.7569
17921SOL     OW58609   6.632   9.491   9.432  0.2402  0.1662  0.1591
17921SOL    HW158610   6.625   9.553   9.504  2.6515  1.9124 -0.9601
17921SOL    HW258611   6.668   9.411   9.471 -0.4912  0.3343  1.2020
17922SOL     OW58612   4.668   2.094   8.831  0.5805 -0.4530 -0.0122
17922SOL    HW158613   4.614   2.015   8.823 -0.5281  0.2110  0.6830
17922SOL    HW258614   4.625   2.146   8.899  1.4285  0.6542 -0.2940
17923SOL     OW58615   3.901   1.036   9.839 -0.2309  0.7023 -0.0499
17923SOL    HW158616   3.964   1.036   9.767  0.2087  2.5523  0.2808
17923SOL    HW258617   3.933   0.969   9.899  0.1698  0.0936 -0.9203
17924SOL     OW58618   6.658   0.383   0.489 -0.0344  0.3663  0.2453
17924SOL    HW158619   6.666   0.452   0.423 -1.2110  0.3472  0.0757
17924SOL    HW258620   6.680   0.427   0.571 -2.6970  1.5196  0.4472
17925SOL     OW58621   7.359   8.567   6.046  0.4216 -0.1479  0.0913
17925SOL    HW158622   7.390   8.523   6.126 -0.2712 -1.0925 -0.1497
17925SOL    HW258623   7.416   8.534   5.977 -1.2828 -2.1659 -0.4157
17926SOL     OW58624   7.422   0.646   9.351 -0.4338 -0.3255  0.0544
17926SOL    HW158625   7.384   0.643   9.264  1.1307 -0.1159 -0.6707
17926SOL    HW258626   7.508   0.605   9.341 -0.2462 -0.3308  1.5033
17927SOL     OW58627   4.838   7.857   8.597  0.2544 -0.8333 -0.1602
17927SOL    HW158628   4.822   7.952   8.592 -1.8657 -1.1143  0.1612
17927SOL    HW258629   4.792   7.821   8.522 -0.7931 -1.7702  0.8956
17928SOL     OW58630   5.477   0.816   7.139  0.2958  0.1382 -0.2038
17928SOL    HW158631   5.401   0.874   7.143 -2.7489 -3.3696 -0.9785
17928SOL    HW258632   5.525   0.844   7.062 -0.2314  2.4076  0.2253
17929SOL     OW58633   7.688   0.869   8.014 -0.2707 -0.1974  0.4400
17929SOL    HW158634   7.593   0.872   8.008 -0.4721 -1.4758  2.0705
17929SOL    HW258635   7.705   0.795   8.073  1.7010  0.5424  0.8546
17930SOL     OW58636   6.838   3.922   8.012 -0.5330  0.1249  0.0610
17930SOL    HW158637   6.813   3.838   7.973 -1.0499  0.0725  0.4953
17930SOL    HW258638   6.809   3.916   8.103  2.2768 -0.4543  0.9997
17931SOL     OW58639   6.783   1.336   0.175 -0.8461  0.0068  0.7959
17931SOL    HW158640   6.832   1.409   0.213  1.1960 -1.9348  2.1374
17931SOL    HW258641   6.808   1.336   0.082 -0.4165  0.6579  0.9070
17932SOL     OW58642   7.150   9.133   8.159  0.0839 -0.3248 -0.1678
17932SOL    HW158643   7.123   9.065   8.221 -0.1127 -1.4473 -1.4390
17932SOL    HW258644   7.075   9.192   8.154  0.0004 -0.3714  0.4530
17933SOL     OW58645   6.183   9.742   7.791 -0.2696  0.2739 -0.0880
17933SOL    HW158646   6.248   9.673   7.775  2.1692  2.0768  1.3344
17933SOL    HW258647   6.128   9.743   7.713  0.0862 -2.7029 -0.4843
17934SOL     OW58648   8.369   9.459   7.414  0.3406  0.6595  0.4230
17934SOL    HW158649   8.425   9.385   7.391 -1.2686 -0.7073  0.6721
17934SOL    HW258650   8.377   9.519   7.340 -1.8000 -1.9083 -2.1419
17935SOL     OW58651   6.706   0.545   6.799 -0.7365 -0.4218  0.4181
17935SOL    HW158652   6.669   0.505   6.878  0.8138  0.3744  1.5903
17935SOL    HW258653   6.629   0.577   6.751 -1.6906 -0.2023  2.0066
17936SOL     OW58654   7.075   2.290   0.309  0.0455  1.1154 -0.7927
17936SOL    HW158655   7.121   2.255   0.232 -0.7133 -1.5047 -0.1699
17936SOL    HW258656   6.995   2.328   0.273  0.1461  0.7737 -1.4088
17937SOL     OW58657   7.832   0.750   7.601 -0.4865 -0.4936 -0.3134
17937SOL    HW158658   7.792   0.667   7.629 -0.0578 -1.5296 -2.4967
17937SOL    HW258659   7.904   0.723   7.545 -1.1006  1.3520 -2.1050
17938SOL     OW58660   4.731   1.526   7.565 -0.1928 -0.0967 -0.5731
17938SOL    HW158661   4.746   1.495   7.476  1.1441  0.7897 -0.6888
17938SOL    HW258662   4.713   1.446   7.615 -1.0344 -0.5975 -1.6280
17939SOL     OW58663   6.786   1.354   8.668 -0.0450 -0.3994  0.2534
17939SOL    HW158664   6.837   1.298   8.726  0.6013 -1.5879 -1.3877
17939SOL    HW258665   6.766   1.298   8.592  0.9428  1.6573 -1.6386
17940SOL     OW58666   7.582   2.479   7.496 -0.1447  0.1913 -0.2651
17940SOL    HW158667   7.543   2.543   7.437  0.3114  0.0334 -0.7410
17940SOL    HW258668   7.667   2.458   7.457 -0.9661 -1.9242 -0.9902
17941SOL     OW58669   4.953   4.141   8.674  0.0990  0.1480 -1.0792
17941SOL    HW158670   4.903   4.205   8.724 -0.4133  0.5170 -2.0422
17941SOL    HW258671   5.025   4.191   8.636  0.1279  0.0043 -1.2153
17942SOL     OW58672   5.078   2.344   7.372 -0.0881  0.3066  0.1378
17942SOL    HW158673   5.153   2.293   7.401  0.6942  1.1502 -0.3667
17942SOL    HW258674   5.044   2.385   7.451  0.3982  0.4625  0.2696
17943SOL     OW58675   7.924   1.158   9.692  0.2027 -0.2476 -0.1685
17943SOL    HW158676   7.850   1.205   9.654 -0.7412 -0.2347  1.5699
17943SOL    HW258677   7.946   1.209   9.771  1.8674 -0.4349 -0.4786
17944SOL     OW58678   7.578   1.961   8.329  0.1258  0.0201  0.7457
17944SOL    HW158679   7.550   1.950   8.238 -0.0283 -2.1355  0.9983
17944SOL    HW258680   7.500   1.940   8.381  0.3613  0.6891  1.3900
17945SOL     OW58681   7.447   0.626   7.728  0.4620  0.0748  0.1250
17945SOL    HW158682   7.454   0.611   7.822  1.4603  0.1085  0.0663
17945SOL    HW258683   7.444   0.721   7.719  2.3142  0.1556  0.0283
17946SOL     OW58684   5.729   9.510   7.972  0.0656  0.2311  0.4334
17946SOL    HW158685   5.804   9.569   7.969 -0.1980  0.5432 -0.5717
17946SOL    HW258686   5.665   9.554   8.027  0.7931 -0.2632  1.7024
17947SOL     OW58687   7.083   0.793   6.620 -0.2736  0.0463  0.4385
17947SOL    HW158688   7.025   0.759   6.688 -0.8079 -0.4475 -0.2439
17947SOL    HW258689   7.025   0.846   6.564 -0.2047 -0.9092 -0.5702
17948SOL     OW58690   7.582   0.130   0.634  0.3393  0.3810 -0.0586
17948SOL    HW158691   7.675   0.154   0.637  0.5228 -0.3581  0.9404
17948SOL    HW258692   7.536   0.205   0.672  0.7453 -0.0744  1.4084
17949SOL     OW58693   5.206   0.259   8.759 -0.0973  0.2125 -0.2187
17949SOL    HW158694   5.246   0.269   8.845  1.8566 -1.4514 -0.8316
17949SOL    HW258695   5.231   0.170   8.731 -0.9023  0.5897 -2.3675
17950SOL     OW58696   8.057   9.763   8.367 -0.0334  0.4191 -0.3507
17950SOL    HW158697   8.060   9.675   8.328  0.3067 -0.4976  1.6362
17950SOL    HW258698   7.980   9.804   8.327  0.4331 -0.3494 -2.1369
17951SOL     OW58699   5.139   0.887   7.847 -0.3931  0.1231  0.4524
17951SOL    HW158700   5.194   0.854   7.917 -0.2418 -0.5997  0.0058
17951SOL    HW258701   5.194   0.881   7.768 -1.5127 -1.9519 -0.2664
17952SOL     OW58702   6.163   1.746   6.750 -0.0552 -0.6759 -0.1464
17952SOL    HW158703   6.156   1.807   6.676 -1.5071  0.5667  0.9727
17952SOL    HW258704   6.135   1.662   6.714  1.1612 -0.5570 -1.4890
17953SOL     OW58705   6.219   8.938   1.574  0.1060  0.2279  0.2304
17953SOL    HW158706   6.211   8.873   1.644 -3.4097  1.9958  1.7331
17953SOL    HW258707   6.310   8.968   1.579  0.6971 -1.6761  2.2008
17954SOL     OW58708   8.008   1.073   1.147 -0.2241 -0.1378  0.6592
17954SOL    HW158709   8.030   1.045   1.236 -0.2359 -0.3393  0.5984
17954SOL    HW258710   8.091   1.105   1.111  0.1027 -1.3916  0.2446
17955SOL     OW58711   5.946   1.526   0.097  0.2003 -0.1980  0.1010
17955SOL    HW158712   6.039   1.521   0.121 -0.0188  0.1255  1.0861
17955SOL    HW258713   5.925   1.439   0.065  1.3746  0.3169 -2.2554
17956SOL     OW58714   5.090   0.371   1.478  0.0774  0.0691  0.2562
17956SOL    HW158715   4.999   0.379   1.508 -0.0049  0.8889 -0.1855
17956SOL    HW258716   5.083   0.325   1.394 -0.0617  1.2102 -0.3821
17957SOL     OW58717   3.294   1.184   9.746 -0.6460 -0.4271  0.2380
17957SOL    HW158718   3.347   1.261   9.763 -1.9549  0.5382  0.1004
17957SOL    HW258719   3.347   1.110   9.776  0.8534  0.4679 -0.1371
17958SOL     OW58720   7.383   1.431   0.272  0.3175  0.3063 -0.5342
17958SOL    HW158721   7.445   1.496   0.238  0.0988  0.1247 -1.2920
17958SOL    HW258722   7.298   1.459   0.237  0.0031  0.4083  0.2884
17959SOL     OW58723   5.128   9.197   9.683  0.6133  0.1255 -0.6957
17959SOL    HW158724   5.069   9.263   9.648 -0.2245  1.2316  2.4781
17959SOL    HW258725   5.080   9.115   9.675 -0.0834  0.5439 -0.8736
17960SOL     OW58726   8.962   0.199   0.439 -0.0413  0.4742 -0.3930
17960SOL    HW158727   8.959   0.251   0.520  1.5276  0.8180 -0.5269
17960SOL    HW258728   9.023   0.246   0.382  0.3114 -0.7510 -1.0698
17961SOL     OW58729   5.728   0.584   8.240  0.3756  0.1078 -0.3540
17961SOL    HW158730   5.783   0.586   8.162  0.5076  1.3169 -0.2466
17961SOL    HW258731   5.763   0.653   8.296  1.3670 -1.8129  1.5604
17962SOL     OW58732   5.603   9.238   8.849  0.5740 -0.0473  0.7331
17962SOL    HW158733   5.654   9.319   8.846  0.4290  0.0045 -1.2556
17962SOL    HW258734   5.667   9.170   8.871  1.2471  0.2188 -0.3553
17963SOL     OW58735   7.786   1.304   8.690  0.1676 -0.0714 -1.1663
17963SOL    HW158736   7.849   1.373   8.667 -0.2382  0.1067 -1.7621
17963SOL    HW258737   7.834   1.247   8.750  0.4275  0.8868 -0.4183
17964SOL     OW58738   5.244   8.926   8.742 -0.2101 -0.8953 -0.3886
17964SOL    HW158739   5.171   8.896   8.796 -0.6680 -0.8409 -0.9616
17964SOL    HW258740   5.261   9.015   8.771  0.1604 -1.1849  0.2959
17965SOL     OW58741   6.686   1.987   0.773 -0.1291 -0.5226 -0.1862
17965SOL    HW158742   6.734   1.988   0.690  0.6272  1.3263  0.2281
17965SOL    HW258743   6.597   1.962   0.749  0.1702 -0.3948 -1.4969
17966SOL     OW58744   6.049   1.351   2.447 -0.3668 -0.0734 -0.0685
17966SOL    HW158745   6.073   1.290   2.377  0.1011  0.6705 -0.5762
17966SOL    HW258746   5.955   1.339   2.458 -0.6684  0.6409 -1.6623
17967SOL     OW58747   6.991   0.573   0.355  0.0175  0.4507  0.3741
17967SOL    HW158748   6.954   0.486   0.348  1.2017 -0.0890  0.4868
17967SOL    HW258749   6.916   0.631   0.366 -0.7634 -0.5896  0.6596
17968SOL     OW58750   6.514   0.934   9.203  0.3152  0.0550  0.6245
17968SOL    HW158751   6.529   0.949   9.297 -1.2266  1.1249  0.7340
17968SOL    HW258752   6.598   0.899   9.171  1.1250  0.4076  2.2354
17969SOL     OW58753   5.244   2.815   0.505  0.0293 -0.1467 -0.3708
17969SOL    HW158754   5.162   2.862   0.495  0.6910  0.8033 -1.4242
17969SOL    HW258755   5.218   2.728   0.537 -1.2654  0.5750  0.6181
17970SOL     OW58756   7.454   2.324   9.004 -0.6439  0.0124 -0.3490
17970SOL    HW158757   7.454   2.414   8.974  0.6055  0.3448  0.5514
17970SOL    HW258758   7.378   2.317   9.060 -1.4060  0.1633 -1.3379
17971SOL     OW58759   7.563   2.540   9.745 -0.2792 -0.3745  0.0198
17971SOL    HW158760   7.620   2.549   9.822 -0.1364 -1.5309  0.0800
17971SOL    HW258761   7.621   2.553   9.670  0.2866 -2.3132  0.0611
17972SOL     OW58762   5.544   1.236   7.875  0.2045 -0.1001 -0.7753
17972SOL    HW158763   5.639   1.240   7.863  0.5484  0.1382  1.5096
17972SOL    HW258764   5.532   1.242   7.970 -2.1674  1.0483 -1.0769
17973SOL     OW58765   5.344   8.700   8.606 -0.1122  0.0451  0.2377
17973SOL    HW158766   5.313   8.616   8.640  1.6421 -0.3013  1.0777
17973SOL    HW258767   5.308   8.765   8.668 -1.5574 -0.0276 -0.4730
17974SOL     OW58768   5.178   0.523   1.197  0.5478  0.1665  0.1658
17974SOL    HW158769   5.082   0.512   1.198  0.5761 -0.0833  0.5768
17974SOL    HW258770   5.205   0.502   1.287  0.8954  1.1185  0.2972
17975SOL     OW58771   6.108   0.427   8.527 -0.1219  0.7816  0.3493
17975SOL    HW158772   6.102   0.369   8.451 -0.1436  2.6572 -1.1740
17975SOL    HW258773   6.197   0.416   8.559 -0.3556 -0.6178  0.5745
17976SOL     OW58774   6.259   8.376   0.836 -0.3930 -0.5068 -0.0936
17976SOL    HW158775   6.291   8.460   0.867 -2.4994 -0.3667  1.9286
17976SOL    HW258776   6.299   8.311   0.894 -1.2884 -0.5784  0.4712
17977SOL     OW58777   5.282   9.572   9.269  0.0281  0.1963 -0.3311
17977SOL    HW158778   5.367   9.530   9.256  0.3678  0.9617 -0.6309
17977SOL    HW258779   5.300   9.666   9.263 -1.2439  0.3565 -3.2686
17978SOL     OW58780   5.559   0.131   0.737 -0.4316 -0.2073 -0.1013
17978SOL    HW158781   5.642   0.165   0.702 -0.9686 -0.8767 -2.1649
17978SOL    HW258782   5.563   0.150   0.830  2.6917 -1.4682  0.1599
17979SOL     OW58783   7.378   5.513   0.829 -0.2449 -0.2701 -0.3139
17979SOL    HW158784   7.450   5.489   0.770 -0.4857 -0.1844 -0.6452
17979SOL    HW258785   7.417   5.575   0.890  0.3408 -1.3535  0.4413
17980SOL     OW58786   8.033   1.684   9.783  0.4701  0.0685  0.6561
17980SOL    HW158787   8.063   1.624   9.852 -1.0579 -0.5119  0.8514
17980SOL    HW258788   8.016   1.628   9.708 -0.2101  0.3483  0.5895
17981SOL     OW58789   6.850   1.502   0.926 -0.1662  0.8679  0.2162
17981SOL    HW158790   6.809   1.417   0.944  0.6710 -0.3026 -2.7523
17981SOL    HW258791   6.790   1.545   0.865  1.6789  0.1940 -2.2108
17982SOL     OW58792   8.060   0.721   1.144  0.3179  0.2678 -0.3882
17982SOL    HW158793   8.068   0.810   1.177 -1.1495  0.5788 -0.8114
17982SOL    HW258794   8.045   0.730   1.050  1.9323 -0.5161 -0.7611
17983SOL     OW58795   6.685   0.270   9.375  0.2311 -0.2180 -0.3324
17983SOL    HW158796   6.742   0.319   9.434 -0.8009  0.5312  0.0742
17983SOL    HW258797   6.699   0.311   9.289 -1.1836  1.3717  0.1351
17984SOL     OW58798   7.293   1.834   1.680 -0.3405  0.3177 -0.0696
17984SOL    HW158799   7.255   1.774   1.616  1.5667 -3.2568  1.8360
17984SOL    HW258800   7.387   1.836   1.659 -0.0908  1.1982  1.0043
17985SOL     OW58801   7.438   2.317   8.708  0.1662 -0.5054  0.0903
17985SOL    HW158802   7.500   2.388   8.692 -0.2565 -0.3673 -0.9636
17985SOL    HW258803   7.471   2.274   8.787  0.5714  0.6934  0.5982
17986SOL     OW58804   5.835   9.780   0.128 -0.1758  0.1623 -0.1632
17986SOL    HW158805   5.834   9.806   0.220  1.0694  1.1971 -0.4115
17986SOL    HW258806   5.870   9.691   0.128  1.4080  0.7545  0.2642
17987SOL     OW58807   4.826   9.764   1.596 -0.5744  0.2673 -0.5296
17987SOL    HW158808   4.803   9.792   1.685  0.7591 -0.1408 -0.0237
17987SOL    HW258809   4.765   9.811   1.539 -3.0262 -1.1726  0.7035
17988SOL     OW58810   4.916   0.299   8.785  0.5075 -0.3124 -0.5433
17988SOL    HW158811   5.010   0.290   8.768  0.4562 -0.9300 -0.5303
17988SOL    HW258812   4.900   0.243   8.862  0.2352  0.2547 -0.1859
17989SOL     OW58813   0.075   1.409   8.549  0.1417 -0.1975  0.1459
17989SOL    HW158814   0.123   1.396   8.467  0.3679  0.4321  0.1709
17989SOL    HW258815   0.106   1.494   8.582  0.4814 -0.6965  1.1700
17990SOL     OW58816   6.041   8.935   0.618  0.1521 -0.5814 -0.4406
17990SOL    HW158817   6.064   9.008   0.676 -0.8250  1.6092 -2.6126
17990SOL    HW258818   6.122   8.914   0.572 -0.1817  1.4784 -2.1430
17991SOL     OW58819   7.153   1.009   1.113 -0.3450  0.1228  0.0333
17991SOL    HW158820   7.125   0.957   1.038 -0.6107  0.1427  0.1177
17991SOL    HW258821   7.205   1.080   1.075  1.5400 -1.1854  0.0456
17992SOL     OW58822   6.729   1.990   9.099  0.2570  0.7175  0.5008
17992SOL    HW158823   6.676   2.023   9.172  0.3423 -0.0345  0.9075
17992SOL    HW258824   6.665   1.960   9.034  0.1415 -1.2478  1.4638
17993SOL     OW58825   6.725   0.368   1.226 -0.1200 -0.1225 -0.6966
17993SOL    HW158826   6.649   0.319   1.258 -0.4239 -0.6791 -2.1556
17993SOL    HW258827   6.795   0.303   1.219  1.4539  0.8686  3.2647
17994SOL     OW58828   6.938   0.180   1.196  0.1050  0.5324 -0.1685
17994SOL    HW158829   7.020   0.153   1.153  0.2978  0.2357  0.3839
17994SOL    HW258830   6.967   0.228   1.274 -0.2023  2.9041 -1.4111
17995SOL     OW58831   8.209   0.904   9.118  0.2729  0.3762  0.1360
17995SOL    HW158832   8.209   0.813   9.147 -0.1292  0.6083  0.8937
17995SOL    HW258833   8.176   0.953   9.193 -2.2050  0.8500 -1.1726
17996SOL     OW58834   6.787   9.819   0.701  0.4631  0.3543  0.2476
17996SOL    HW158835   6.845   9.752   0.667 -0.5500 -1.0005  1.0732
17996SOL    HW258836   6.840   9.868   0.764  0.7447 -0.8745  1.0121
17997SOL     OW58837   8.728   1.509   7.718  0.2329 -0.0533  0.1829
17997SOL    HW158838   8.749   1.458   7.640  0.3384 -0.2919  0.3643
17997SOL    HW258839   8.639   1.540   7.703 -0.1088 -0.9017  0.3866
17998SOL     OW58840   6.868   1.133   8.023 -0.0578 -0.7780 -0.3675
17998SOL    HW158841   6.821   1.072   7.967 -1.5555  0.8260 -0.9474
17998SOL    HW258842   6.942   1.083   8.058 -1.3597 -2.9515 -0.6231
17999SOL     OW58843   7.104   3.133   8.909 -1.1202  0.0609  0.0546
17999SOL    HW158844   7.129   3.221   8.939  3.3932 -0.4345 -1.5229
17999SOL    HW258845   7.124   3.076   8.984  1.1232 -0.0978 -0.5830
18000SOL     OW58846   6.943   1.604   9.584 -0.0318  0.4553 -0.4811
18000SOL    HW158847   7.029   1.624   9.547 -0.2845  0.7377 -0.9309
18000SOL    HW258848   6.955   1.520   9.628 -0.0051 -0.5303 -2.2646
18001SOL     OW58849   5.362   9.491   7.431 -0.2551  0.0378  0.4094
18001SOL    HW158850   5.412   9.412   7.411 -1.4084 -0.8567  0.9099
18001SOL    HW258851   5.271   9.462   7.429 -0.6639  1.2089  1.2491
18002SOL     OW58852   6.019   1.744   8.683 -0.4993  0.1980  0.0204
18002SOL    HW158853   6.023   1.652   8.711  0.7541 -0.5123 -2.2500
18002SOL    HW258854   6.065   1.791   8.753 -2.2607 -0.6675  1.8665
18003SOL     OW58855   5.809   0.787   1.537 -0.5595 -0.1342  0.2334
18003SOL    HW158856   5.733   0.845   1.535 -0.3621  0.1195 -0.4241
18003SOL    HW258857   5.794   0.729   1.611 -0.8357  0.6606  0.8047
18004SOL     OW58858   6.715   9.339   9.158  0.4496 -0.1121 -0.4498
18004SOL    HW158859   6.787   9.374   9.105 -0.5487  2.5518 -0.1926
18004SOL    HW258860   6.636   9.373   9.116 -0.6844 -2.2502 -0.2123
18005SOL     OW58861   6.170   1.154   0.555  0.0840  0.2288 -0.2788
18005SOL    HW158862   6.222   1.226   0.590 -2.1182  2.4292 -1.2870
18005SOL    HW258863   6.084   1.164   0.595 -0.3762 -1.7275 -0.6532
18006SOL     OW58864   9.444   0.734   0.323  0.8023 -0.2171 -0.4259
18006SOL    HW158865   9.451   0.726   0.418  1.4378 -1.8964 -0.5933
18006SOL    HW258866   9.504   0.668   0.288  0.5489  0.3362 -2.0020
18007SOL     OW58867   5.096   1.670   0.024  0.4985 -0.3195 -0.3270
18007SOL    HW158868   5.041   1.661  -0.054  1.0173 -1.3560 -0.5933
18007SOL    HW258869   5.156   1.595   0.020  0.8072 -0.1595  0.8530
18008SOL     OW58870   4.701   9.387   8.169  0.0528 -0.7110  0.1436
18008SOL    HW158871   4.620   9.437   8.159  0.6122  0.3055  0.4737
18008SOL    HW258872   4.694   9.317   8.105 -0.8594 -0.3337 -0.1942
18009SOL     OW58873   5.027   0.091   8.473 -0.3071 -0.1125  0.3660
18009SOL    HW158874   5.013   0.185   8.487  1.0576 -0.1681  2.6859
18009SOL    HW258875   4.955   0.049   8.520  0.2904 -0.2324  1.1898
18010SOL     OW58876   7.773   9.369   9.172 -0.4287 -0.2570  0.0366
18010SOL    HW158877   7.726   9.445   9.138 -1.0799 -0.2715  0.8609
18010SOL    HW258878   7.863   9.400   9.184 -0.4252  0.0375 -0.7189
18011SOL     OW58879   6.016   0.930   0.993  0.1802  0.2729 -0.1824
18011SOL    HW158880   6.049   0.950   1.081 -0.0289 -0.6868  0.1200
18011SOL    HW258881   5.933   0.885   1.008  0.8172 -1.1659 -0.8248
18012SOL     OW58882   7.442   1.472   9.393 -0.3876 -0.4676 -0.2059
18012SOL    HW158883   7.365   1.419   9.412  0.3189 -1.0628  1.1203
18012SOL    HW258884   7.485   1.425   9.321 -0.1063 -1.3704  0.5281
18013SOL     OW58885   5.391   1.525   0.528  0.5610 -0.8840 -0.2073
18013SOL    HW158886   5.348   1.605   0.559  0.3284 -0.9334 -0.3966
18013SOL    HW258887   5.344   1.503   0.447  2.0200 -0.0046 -1.3332
18014SOL     OW58888   8.621   1.738   2.375  0.3349  0.1289 -0.5866
18014SOL    HW158889   8.683   1.811   2.370  0.0034  0.5290  0.6985
18014SOL    HW258890   8.618   1.715   2.468  1.8617 -2.8094 -1.1223
18015SOL     OW58891   4.139   3.339   9.394 -0.5819 -0.1772 -0.5154
18015SOL    HW158892   4.178   3.266   9.345  1.6666  1.0877 -0.7441
18015SOL    HW258893   4.129   3.305   9.483  3.0631 -0.0460  0.0951
18016SOL     OW58894   5.851   2.616   1.459 -0.6076  0.1254 -0.4301
18016SOL    HW158895   5.863   2.686   1.395 -0.9746  1.4960  0.9366
18016SOL    HW258896   5.937   2.575   1.466  0.0381  1.4535 -0.1565
18017SOL     OW58897   7.578   5.892   0.204  0.2338  0.3187 -0.2371
18017SOL    HW158898   7.643   5.939   0.151 -1.6663  0.6130 -2.4653
18017SOL    HW258899   7.600   5.799   0.193  1.5768  0.4673  0.8952
18018SOL     OW58900   6.182   2.740   9.008  0.4020  0.2900 -0.0569
18018SOL    HW158901   6.244   2.745   9.080 -0.3501  2.9548  0.5204
18018SOL    HW258902   6.139   2.825   9.007 -1.8715 -0.7626 -1.6675
18019SOL     OW58903   7.209   1.713   9.190  0.1803  0.6743 -0.8461
18019SOL    HW158904   7.206   1.806   9.168 -1.8036  0.1825 -3.0982
18019SOL    HW258905   7.225   1.669   9.106  0.3694 -1.0636  0.0453
18020SOL     OW58906   5.239   2.267   3.263 -0.2567  0.8482 -0.5663
18020SOL    HW158907   5.154   2.224   3.275 -1.0658  2.5015 -0.1330
18020SOL    HW258908   5.272   2.278   3.352  0.0753  0.8911 -0.6950
18021SOL     OW58909   5.380   1.575   9.023 -0.5601  0.5522 -0.4249
18021SOL    HW158910   5.340   1.503   8.975 -0.3321  0.4134 -0.4054
18021SOL    HW258911   5.319   1.593   9.095  0.1884 -0.7527  0.6013
18022SOL     OW58912   6.433   1.912   2.358  0.6075 -0.0223 -0.2231
18022SOL    HW158913   6.472   1.984   2.408 -1.3914  1.6817 -0.9592
18022SOL    HW258914   6.507   1.871   2.313  1.9160  1.0241  0.8837
18023SOL     OW58915   7.215   3.003   2.192  0.5374  0.1125  0.7271
18023SOL    HW158916   7.179   3.047   2.269 -0.5009 -1.2840  1.0874
18023SOL    HW258917   7.296   2.962   2.223  1.1897  1.2302  0.5410
18024SOL     OW58918   4.894   5.497   1.391  0.3575  0.4203 -0.4031
18024SOL    HW158919   4.926   5.407   1.397 -1.2071 -0.0808  2.1425
18024SOL    HW258920   4.940   5.543   1.461  1.4293  1.7437 -1.9302
18025SOL     OW58921   5.835   4.200   2.436 -0.0936 -0.0073 -0.5500
18025SOL    HW158922   5.859   4.113   2.468  0.2741 -0.1013 -1.0650
18025SOL    HW258923   5.874   4.261   2.499 -0.7466 -0.2210  0.0705
18026SOL     OW58924   7.231   2.394   0.877 -0.0601 -0.0988  0.0102
18026SOL    HW158925   7.293   2.461   0.906  0.4392 -0.6219  0.1713
18026SOL    HW258926   7.149   2.441   0.863 -0.3523  0.1775  2.3452
18027SOL     OW58927   6.041   3.411   0.214  0.4668 -0.1751 -0.3994
18027SOL    HW158928   6.051   3.333   0.161  0.8299  1.5329 -3.0202
18027SOL    HW258929   6.131   3.443   0.226  0.3826 -0.4095  1.1759
18028SOL     OW58930   6.281   2.523   0.718 -0.0605 -0.0592  0.1409
18028SOL    HW158931   6.316   2.551   0.633  0.3712 -1.6877 -0.2531
18028SOL    HW258932   6.219   2.591   0.742 -0.9000 -0.0134 -1.9429
18029SOL     OW58933   5.532   3.479   1.857 -0.0234  0.1618  0.8773
18029SOL    HW158934   5.606   3.477   1.795 -0.9734 -1.1121 -0.2765
18029SOL    HW258935   5.525   3.571   1.882 -0.4215  0.9986 -1.9721
18030SOL     OW58936   7.088   4.139   3.270 -0.2274 -0.3093 -0.5587
18030SOL    HW158937   7.053   4.050   3.265 -1.7541  0.2410 -0.1479
18030SOL    HW258938   7.013   4.193   3.293  0.9999  0.8870  0.8313
18031SOL     OW58939   7.004   1.166   0.724  0.2874 -0.0944 -0.2754
18031SOL    HW158940   7.014   1.213   0.806 -4.6086 -1.4703  1.4198
18031SOL    HW258941   7.020   1.074   0.746  1.6579 -0.2264 -1.6145
18032SOL     OW58942   6.681   2.338   1.625  0.5336  0.1188 -0.1560
18032SOL    HW158943   6.702   2.389   1.546  1.7885  0.1370  0.1818
18032SOL    HW258944   6.709   2.249   1.605  1.5129  0.2659  0.5238
18033SOL     OW58945   4.487   3.486   0.833 -0.5273  0.2166  0.2337
18033SOL    HW158946   4.483   3.581   0.820  0.4144  0.3052  0.5100
18033SOL    HW258947   4.527   3.453   0.752 -0.1762  0.1396  0.4368
18034SOL     OW58948   6.838   3.108   9.224  0.1828 -0.0406 -0.6141
18034SOL    HW158949   6.803   3.113   9.136 -0.8531  0.0585 -0.2040
18034SOL    HW258950   6.892   3.028   9.224 -1.2959 -1.0797 -0.8263
18035SOL     OW58951   7.688   3.156   1.191 -0.6920 -0.0941 -0.4210
18035SOL    HW158952   7.601   3.151   1.229 -1.1227  1.3103 -1.1443
18035SOL    HW258953   7.674   3.187   1.101  0.5951  1.0526 -0.2666
18036SOL     OW58954   7.382   2.333   0.248  0.0796 -0.3379 -0.0198
18036SOL    HW158955   7.342   2.369   0.327  1.4384 -0.3101  0.6903
18036SOL    HW258956   7.396   2.409   0.192 -0.4729 -0.2906 -0.0939
18037SOL     OW58957   7.001   2.567   9.269 -0.3123 -0.3474  0.2619
18037SOL    HW158958   7.093   2.588   9.286 -0.6261  1.1066  0.3212
18037SOL    HW258959   6.964   2.548   9.355 -0.3782  0.4431  0.4125
18038SOL     OW58960   4.720   3.273   0.827  0.2619 -0.4301  0.8605
18038SOL    HW158961   4.628   3.286   0.806  1.0833  3.0873 -1.5265
18038SOL    HW258962   4.753   3.217   0.756  0.2180 -0.6439  1.0077
18039SOL     OW58963   4.824   7.237   1.125  0.1823 -0.0394 -0.6587
18039SOL    HW158964   4.880   7.226   1.048  0.4413  1.4558 -0.7190
18039SOL    HW258965   4.826   7.331   1.142 -1.4095 -0.1077  0.0365
18040SOL     OW58966   5.439   9.839   0.388 -0.4034 -0.2871  0.0204
18040SOL    HW158967   5.402   9.784   0.319  0.5344 -1.2089  0.2276
18040SOL    HW258968   5.480   9.912   0.341 -0.1306 -0.6891 -0.3804
18041SOL     OW58969   6.411   5.011   0.671  0.1940  0.4630  0.2443
18041SOL    HW158970   6.320   5.039   0.660  0.3365  0.8207 -0.0595
18041SOL    HW258971   6.443   5.063   0.745 -0.1153 -0.3361  0.9564
18042SOL     OW58972   5.383   3.148   9.570  0.0968 -0.1264 -0.1357
18042SOL    HW158973   5.330   3.166   9.647  1.5676  2.7875  0.3165
18042SOL    HW258974   5.331   3.179   9.497 -0.2907 -0.6303 -0.0780
18043SOL     OW58975   8.106   4.362   2.840 -0.1128  0.3193 -0.1936
18043SOL    HW158976   8.164   4.318   2.778  0.2557 -1.6361  1.4464
18043SOL    HW258977   8.110   4.309   2.919 -2.3304  1.4560  0.7762
18044SOL     OW58978   6.420   2.259   0.620  0.1328 -0.2627  0.3811
18044SOL    HW158979   6.478   2.334   0.608  0.0467 -0.4453 -1.4841
18044SOL    HW258980   6.453   2.193   0.559 -0.6886 -1.1969  0.9108
18045SOL     OW58981   8.120   6.494   1.265  0.3246  0.4245  0.4866
18045SOL    HW158982   8.105   6.439   1.342  0.2360 -1.0572 -0.5582
18045SOL    HW258983   8.086   6.443   1.192 -0.7006  2.2968 -0.4302
18046SOL     OW58984   5.869   2.795   2.353 -0.1614  0.1708  0.3878
18046SOL    HW158985   5.921   2.719   2.329  1.4726  1.8623 -1.8012
18046SOL    HW258986   5.802   2.802   2.284  0.7741  1.6201 -0.4360
18047SOL     OW58987   4.953   2.442   8.746  0.2428  0.4211  0.0254
18047SOL    HW158988   4.969   2.366   8.802 -1.4341  0.9235  1.2770
18047SOL    HW258989   5.000   2.514   8.788 -0.6041  0.6901  0.5379
18048SOL     OW58990   8.073   1.244   1.689  0.1511  0.3656  0.0318
18048SOL    HW158991   8.073   1.244   1.785 -0.6663  0.9150  0.0454
18048SOL    HW258992   8.161   1.216   1.665 -0.2582 -1.9056  0.9239
18049SOL     OW58993   6.228   4.971   0.880  0.1851 -0.1804  0.0849
18049SOL    HW158994   6.179   5.039   0.926 -2.2889 -2.2970  0.7875
18049SOL    HW258995   6.223   4.996   0.787 -1.7655  0.0104  0.2008
18050SOL     OW58996   5.570   0.094   9.834 -0.4437  0.1048 -0.2129
18050SOL    HW158997   5.506   0.042   9.784 -1.1724  1.3978 -0.6940
18050SOL    HW258998   5.562   0.062   9.924 -1.8657  0.2935 -0.2455
18051SOL     OW58999   8.545   4.430   0.765  0.2422 -0.5502 -0.5597
18051SOL    HW159000   8.569   4.400   0.678  0.7378 -1.6816 -0.0502
18051SOL    HW259001   8.502   4.355   0.806  0.4281 -0.1890  0.3271
18052SOL     OW59002   8.667   2.484   3.941  0.2180 -0.6427 -0.3145
18052SOL    HW159003   8.708   2.476   4.027 -0.3574  1.3616  0.1966
18052SOL    HW259004   8.584   2.437   3.951 -0.6334  1.0025  0.8176
18053SOL     OW59005   6.926   2.268   1.890  0.0467  0.0880 -0.2892
18053SOL    HW159006   6.971   2.225   1.963 -2.7046 -0.4633  1.2122
18053SOL    HW259007   6.948   2.214   1.814 -0.2683 -1.8035  0.8863
18054SOL     OW59008   7.383   3.555   1.026  0.5966  0.9167 -0.0866
18054SOL    HW159009   7.362   3.614   1.099  0.2220 -0.0685  0.6220
18054SOL    HW259010   7.378   3.611   0.949 -1.5491  1.4673  0.3656
18055SOL     OW59011   4.495   2.384   9.567 -0.1350  0.2270 -0.5277
18055SOL    HW159012   4.541   2.378   9.651  0.8043 -2.0122 -1.1204
18055SOL    HW259013   4.512   2.474   9.537  1.5057  0.3483  0.6019
18056SOL     OW59014   4.376   3.574   1.635 -0.4308 -0.2835  0.2397
18056SOL    HW159015   4.379   3.489   1.678 -1.8231 -0.7425 -0.5127
18056SOL    HW259016   4.419   3.560   1.550 -0.9593 -0.3433 -0.0254
18057SOL     OW59017   6.748   2.947   0.250  0.2592 -0.2006 -0.0651
18057SOL    HW159018   6.828   2.952   0.196  1.1898  3.1064  1.3311
18057SOL    HW259019   6.686   2.899   0.196  1.9888  0.5156 -2.9305
18058SOL     OW59020   6.412   0.513   1.902  0.1335 -0.2005 -0.9887
18058SOL    HW159021   6.393   0.540   1.812  1.7762  0.2955 -1.2300
18058SOL    HW259022   6.470   0.438   1.893 -0.6802 -0.9205 -0.3217
18059SOL     OW59023   6.890   4.643   0.645  0.2371 -0.6493  0.0157
18059SOL    HW159024   6.925   4.601   0.723 -0.0576  1.3668  1.3307
18059SOL    HW259025   6.921   4.734   0.651 -2.1202  0.2934 -0.6864
18060SOL     OW59026   5.245   3.177   3.049 -0.6320  0.6069  0.3474
18060SOL    HW159027   5.203   3.205   2.967  0.2766 -0.4521 -0.5011
18060SOL    HW259028   5.310   3.113   3.022  0.3677  0.9608  1.8153
18061SOL     OW59029   6.224   4.866   8.922  0.0207  0.4574  0.4279
18061SOL    HW159030   6.313   4.830   8.922  0.0729  0.4713 -1.3399
18061SOL    HW259031   6.173   4.804   8.871 -1.3893 -0.3359  2.6637
18062SOL     OW59032   7.986   0.200   1.364  0.1763 -0.3563 -0.5170
18062SOL    HW159033   8.068   0.244   1.342  0.2486 -0.0094  0.4329
18062SOL    HW259034   7.961   0.156   1.283  0.5117  0.7817 -1.2713
18063SOL     OW59035   5.524   3.113   1.208 -0.2423 -0.0703 -0.5405
18063SOL    HW159036   5.473   3.177   1.258 -0.7268 -0.9066  0.0550
18063SOL    HW259037   5.503   3.132   1.117  0.0123  0.9427 -0.4028
18064SOL     OW59038   7.158   3.296   2.269 -0.1985 -0.2680 -0.1372
18064SOL    HW159039   7.116   3.285   2.183  1.4756 -0.8992 -0.9261
18064SOL    HW259040   7.130   3.382   2.299 -1.0929 -0.1782 -1.1575
18065SOL     OW59041   7.371   4.124   0.274 -0.3049 -0.2543 -0.1712
18065SOL    HW159042   7.368   4.219   0.264 -1.0705 -0.1074  1.2704
18065SOL    HW259043   7.292   4.101   0.323 -0.0711 -1.6218 -0.3739
18066SOL     OW59044   7.570   1.917   1.623  0.3329 -0.2153  0.0062
18066SOL    HW159045   7.662   1.913   1.596  0.5555  0.3236  0.6580
18066SOL    HW259046   7.571   1.966   1.705 -0.6909  1.2085 -0.7750
18067SOL     OW59047   4.279   2.937   0.934 -0.6208 -0.0619  0.3024
18067SOL    HW159048   4.217   2.951   0.862 -1.4595  3.5049  1.5221
18067SOL    HW259049   4.226   2.905   1.007 -0.8499  1.7062  0.9462
18068SOL     OW59050   7.798   1.957   9.729 -0.3426 -0.6165  0.4619
18068SOL    HW159051   7.770   1.889   9.668  1.8336 -0.7230 -0.5365
18068SOL    HW259052   7.737   2.029   9.716 -1.1244 -1.4162 -0.3687
18069SOL     OW59053   5.505   2.773   9.649 -0.5397  0.1969  0.0345
18069SOL    HW159054   5.576   2.831   9.675 -0.3754  0.2484 -0.5030
18069SOL    HW259055   5.430   2.830   9.636 -0.3504  0.3109 -0.5970
18070SOL     OW59056   6.812   3.243   3.026 -0.5265  0.4835 -0.2625
18070SOL    HW159057   6.786   3.216   2.938 -0.9999 -0.9742  0.2888
18070SOL    HW259058   6.884   3.305   3.012  0.3764 -0.8112 -1.6599
18071SOL     OW59059   6.700   5.997   4.247 -0.0648  0.1789 -0.4336
18071SOL    HW159060   6.774   5.939   4.229 -0.3821 -0.7031  0.9665
18071SOL    HW259061   6.686   5.989   4.341 -1.0427  1.4414 -0.4502
18072SOL     OW59062   7.149   4.295   2.052 -0.1993  0.1492 -0.0454
18072SOL    HW159063   7.140   4.383   2.014 -2.2443 -0.4169 -1.0018
18072SOL    HW259064   7.244   4.282   2.060  0.1592  2.6445  0.6746
18073SOL     OW59065   6.156   6.943   3.323 -0.5837  0.2940 -0.2312
18073SOL    HW159066   6.098   6.970   3.251 -0.9696  1.2686  0.4171
18073SOL    HW259067   6.240   6.926   3.281 -1.4775 -1.7812 -1.2941
18074SOL     OW59068   6.549   0.592   8.709 -0.3143  0.1369 -0.3324
18074SOL    HW159069   6.604   0.562   8.637 -0.8924 -0.0108 -0.7193
18074SOL    HW259070   6.490   0.655   8.670 -1.6050 -1.0073 -0.3095
18075SOL     OW59071   5.485   2.192   4.189  0.5472  0.3959  0.4400
18075SOL    HW159072   5.439   2.271   4.217 -0.4561 -0.6608  1.9003
18075SOL    HW259073   5.484   2.135   4.266  1.0354 -1.1434 -0.6446
18076SOL     OW59074   6.812   9.752   0.127 -0.4295  0.1707 -0.5305
18076SOL    HW159075   6.825   9.773   0.219  0.0950  0.2086 -0.6122
18076SOL    HW259076   6.717   9.739   0.118 -0.2282 -3.1748  0.7243
18077SOL     OW59077   6.303   2.321   1.740  0.4967 -0.1593  0.3696
18077SOL    HW159078   6.335   2.246   1.789  0.7288 -0.8597 -0.8102
18077SOL    HW259079   6.342   2.397   1.784 -0.3120 -0.6509  2.0053
18078SOL     OW59080   4.965   3.519   1.117  0.3290  0.3745  0.8797
18078SOL    HW159081   4.966   3.447   1.055 -0.4767  0.4796  0.7380
18078SOL    HW259082   5.052   3.558   1.109 -0.1785  1.2291 -1.1763
18079SOL     OW59083   5.090   1.278   3.328 -0.2526 -0.1378  0.1349
18079SOL    HW159084   5.014   1.251   3.379 -0.4826  0.2671  0.0134
18079SOL    HW259085   5.073   1.244   3.240 -0.1104 -0.3754  0.1984
18080SOL     OW59086   8.024   1.808   0.493 -0.2064  0.5321  0.4856
18080SOL    HW159087   8.038   1.713   0.490  0.0710  0.6036 -1.2269
18080SOL    HW259088   8.044   1.831   0.584  0.9372 -0.8732  0.6371
18081SOL     OW59089   6.178   8.712   0.074  0.0165 -0.0753  0.0617
18081SOL    HW159090   6.163   8.769  -0.002 -2.0305  0.0711  0.5094
18081SOL    HW259091   6.184   8.773   0.148  0.1623 -0.3291  0.2615
18082SOL     OW59092   6.633   3.328   0.930  0.0062 -0.0648 -0.3737
18082SOL    HW159093   6.709   3.276   0.902  2.4693  1.8567  2.1690
18082SOL    HW259094   6.664   3.418   0.925 -1.9610  0.7554  1.2281
18083SOL     OW59095   8.734   2.515   0.903  0.1322 -0.4641  0.0507
18083SOL    HW159096   8.690   2.450   0.957  1.5016 -1.8189 -0.4075
18083SOL    HW259097   8.761   2.468   0.824  0.4375  0.8587 -0.6797
18084SOL     OW59098   6.650   3.578   2.534 -0.2534 -1.1742  0.6008
18084SOL    HW159099   6.572   3.602   2.484  0.4192  1.0163  0.4717
18084SOL    HW259100   6.698   3.518   2.476 -0.7993 -0.8284 -0.2260
18085SOL     OW59101   5.047   2.569   9.381  0.4866  0.5296 -0.1619
18085SOL    HW159102   5.030   2.585   9.474  0.8651 -2.2767  0.4732
18085SOL    HW259103   5.142   2.557   9.375  0.5011  0.9702 -0.9744
18086SOL     OW59104   4.879   2.540   1.147 -0.3907 -0.0976 -0.3055
18086SOL    HW159105   4.933   2.544   1.226 -1.2711  0.3434  0.2874
18086SOL    HW259106   4.896   2.623   1.102 -1.7554  0.7635  0.6942
18087SOL     OW59107   4.560   2.290   1.235 -0.2080  0.0019 -0.3464
18087SOL    HW159108   4.508   2.254   1.307 -2.6061 -2.4376 -3.0365
18087SOL    HW259109   4.630   2.226   1.223  0.5998  0.7652  0.1935
18088SOL     OW59110   5.772   2.694   8.296 -0.0902 -0.1390 -0.5385
18088SOL    HW159111   5.745   2.785   8.284  0.9269  0.0220 -1.8314
18088SOL    HW259112   5.690   2.644   8.290 -0.8364  0.7349  1.4198
18089SOL     OW59113   5.433   4.459   3.182  0.3430 -0.2032  0.0732
18089SOL    HW159114   5.429   4.417   3.096 -0.0132 -0.5616  0.2600
18089SOL    HW259115   5.402   4.549   3.167 -0.3191 -0.4440 -0.0680
18090SOL     OW59116   7.926   3.232   0.966 -0.2947 -0.1507  0.6193
18090SOL    HW159117   7.959   3.142   0.964 -0.8578 -0.4238  2.3259
18090SOL    HW259118   7.891   3.246   0.878  0.4049 -1.3615  0.1182
18091SOL     OW59119   9.591   2.505   0.296 -0.0617  0.7783 -0.4300
18091SOL    HW159120   9.505   2.536   0.325 -1.2972 -2.2243 -0.5291
18091SOL    HW259121   9.645   2.510   0.375 -0.9892  0.6320  0.2412
18092SOL     OW59122   3.952   3.340   8.987  0.2152 -0.0582  0.2389
18092SOL    HW159123   3.907   3.308   8.908 -0.2803 -0.9569  0.8707
18092SOL    HW259124   3.885   3.392   9.032 -0.6892 -2.4174  1.8197
18093SOL     OW59125   5.796   2.240   2.244 -0.1458  0.3918  0.1159
18093SOL    HW159126   5.830   2.199   2.324 -1.8783  1.2153  1.3400
18093SOL    HW259127   5.772   2.166   2.188 -0.4991 -0.2446  1.0754
18094SOL     OW59128   9.566   2.034   9.742 -0.8501 -0.3608 -0.0856
18094SOL    HW159129   9.651   1.992   9.734 -0.8534 -1.0982  2.7178
18094SOL    HW259130   9.585   2.124   9.766 -0.8979  0.2238 -2.0582
18095SOL     OW59131   7.087   2.706   1.079 -0.5736  0.5865 -0.0258
18095SOL    HW159132   7.009   2.756   1.104  0.3798  1.6923  0.8088
18095SOL    HW259133   7.130   2.760   1.013 -0.0339  0.3944  0.1656
18096SOL     OW59134   8.614   3.050   1.204  0.0947  0.0491  0.6489
18096SOL    HW159135   8.522   3.023   1.202  0.6271 -1.8913  0.6837
18096SOL    HW259136   8.629   3.088   1.117 -0.8244  0.7818  0.7903
18097SOL     OW59137   6.162   3.227   0.494  0.3986  0.0995 -0.3959
18097SOL    HW159138   6.236   3.172   0.521  0.5922  1.0103  1.0566
18097SOL    HW259139   6.169   3.305   0.550 -1.6344  0.2218 -0.2583
18098SOL     OW59140   8.295   3.265   2.217 -0.1016  0.5645  0.3522
18098SOL    HW159141   8.382   3.305   2.215  0.3812 -0.4154  0.8966
18098SOL    HW259142   8.287   3.229   2.305 -1.1111  0.7415  0.3452
18099SOL     OW59143   5.830   2.049   2.031 -0.0975 -0.2375  0.1599
18099SOL    HW159144   5.820   1.966   2.079 -0.8304  0.3963  1.1417
18099SOL    HW259145   5.742   2.066   1.996  0.2324 -0.2509 -0.7021
18100SOL     OW59146   6.686   2.709   0.518  0.1105  0.4217 -0.0490
18100SOL    HW159147   6.729   2.752   0.443  0.3376  2.5621  1.2336
18100SOL    HW259148   6.736   2.739   0.594 -1.0020 -0.5499  1.0942
18101SOL     OW59149   3.899   1.098   9.468 -0.2691 -0.5371 -0.3098
18101SOL    HW159150   3.914   1.192   9.478 -1.6827 -0.1950 -1.0643
18101SOL    HW259151   3.964   1.056   9.524  0.2121  0.8993  0.2320
18102SOL     OW59152   6.831   9.693   1.518  0.3536  0.2221 -0.5148
18102SOL    HW159153   6.902   9.749   1.486 -1.1478  1.2948 -2.1134
18102SOL    HW259154   6.803   9.733   1.600  1.4840 -0.1483  0.0748
18103SOL     OW59155   6.462   3.821   9.615  0.1018 -0.3595  0.1188
18103SOL    HW159156   6.409   3.763   9.670  0.6047 -1.4234 -0.4821
18103SOL    HW259157   6.455   3.907   9.657 -2.1808 -0.4259 -0.0081
18104SOL     OW59158   7.355   2.534   0.065  0.3293  0.2160  0.4479
18104SOL    HW159159   7.417   2.549  -0.007 -0.8299  0.4733 -0.5267
18104SOL    HW259160   7.347   2.619   0.108  0.8484  0.1170  0.7503
18105SOL     OW59161   6.041   2.086   0.420 -0.4173 -0.5570  0.2768
18105SOL    HW159162   6.092   2.167   0.419 -0.2623 -0.6525 -0.7349
18105SOL    HW259163   6.042   2.056   0.329 -2.5653 -0.3647  0.1230
18106SOL     OW59164   8.276   3.748   8.325 -0.2095  0.4247  0.3471
18106SOL    HW159165   8.249   3.664   8.288 -0.3319  0.7951 -0.4294
18106SOL    HW259166   8.194   3.796   8.338 -0.2288  0.0776  1.7018
18107SOL     OW59167   5.657   3.659   9.180  0.1730 -0.4391 -0.3762
18107SOL    HW159168   5.603   3.707   9.242  0.5873 -1.4515  0.7964
18107SOL    HW259169   5.744   3.657   9.221  0.3748 -1.3979 -0.8233
18108SOL     OW59170   5.625   4.048   2.228 -0.1798  0.7101  0.0166
18108SOL    HW159171   5.561   4.109   2.192  0.1261 -0.6692 -3.2830
18108SOL    HW259172   5.611   3.967   2.178  2.7368 -0.2714  0.6111
18109SOL     OW59173   6.794   4.138   9.794  0.3906 -0.0051  0.0615
18109SOL    HW159174   6.761   4.227   9.805  0.2239 -0.1225  0.5328
18109SOL    HW259175   6.781   4.118   9.701  1.3375  0.8169 -0.2654
18110SOL     OW59176   5.737   3.715   0.152  0.2674 -0.0508 -0.2279
18110SOL    HW159177   5.657   3.752   0.190  0.6287  1.2564 -0.7045
18110SOL    HW259178   5.753   3.767   0.074  0.8785 -1.1455 -0.8563
18111SOL     OW59179   6.306   4.624   1.167 -0.5251 -0.2189 -0.1643
18111SOL    HW159180   6.341   4.649   1.081 -0.2862 -1.2730 -0.3991
18111SOL    HW259181   6.271   4.536   1.153  1.0300 -1.1133  1.2144
18112SOL     OW59182   7.273   2.633   9.289 -0.3436 -0.1080  0.5008
18112SOL    HW159183   7.352   2.587   9.319 -0.8378 -0.8065  0.7689
18112SOL    HW259184   7.292   2.656   9.198  1.8345  3.4901  1.6635
18113SOL     OW59185   5.377   4.728   2.854  0.7074  0.7235  0.2075
18113SOL    HW159186   5.373   4.633   2.863 -0.9998  0.8730  1.8061
18113SOL    HW259187   5.317   4.748   2.782  0.2488  0.6427  0.5629
18114SOL     OW59188   8.936   2.287   1.017 -0.2632 -0.0617 -0.1557
18114SOL    HW159189   8.942   2.381   0.999 -0.2643 -0.3890 -2.1170
18114SOL    HW259190   8.846   2.273   1.047 -0.7484  0.3613 -1.3589
18115SOL     OW59191   7.569   2.336   2.050  1.1301 -0.2113 -0.5028
18115SOL    HW159192   7.655   2.353   2.087  0.2275  3.0385  0.3829
18115SOL    HW259193   7.514   2.407   2.083 -2.1496 -2.6056 -0.3041
18116SOL     OW59194   5.277   1.272   0.630  0.1267  0.0799 -0.2143
18116SOL    HW159195   5.274   1.232   0.717  0.2819 -0.0187 -0.2523
18116SOL    HW259196   5.192   1.314   0.619 -0.3251 -0.8809 -0.4718
18117SOL     OW59197   4.776   2.152   3.572  0.3607  0.4476  0.0368
18117SOL    HW159198   4.724   2.086   3.618 -0.6408  0.7221 -0.6688
18117SOL    HW259199   4.711   2.215   3.541  1.0202  0.3600 -1.6006
18118SOL     OW59200   7.292   2.060   0.904  0.1293 -0.2079  0.0530
18118SOL    HW159201   7.312   2.014   0.822  2.0605  1.5412 -0.5191
18118SOL    HW259202   7.368   2.045   0.959 -1.3762 -1.8381  1.8556
18119SOL     OW59203   7.204   1.030   9.622 -0.6833 -1.1860 -0.6281
18119SOL    HW159204   7.144   1.075   9.562  0.4395 -0.5737 -1.3304
18119SOL    HW259205   7.179   0.938   9.616 -1.2370 -1.0069 -1.2924
18120SOL     OW59206   3.635   2.001   0.931 -0.2204  0.1893 -0.0050
18120SOL    HW159207   3.611   1.964   1.016  0.3116  1.2418  0.6257
18120SOL    HW259208   3.672   1.927   0.882 -1.4659 -0.6487  0.2915
18121SOL     OW59209   6.436   1.860   1.903 -0.2247  0.0584  0.3600
18121SOL    HW159210   6.438   1.953   1.881  1.0440  0.0313  0.2825
18121SOL    HW259211   6.393   1.818   1.828 -1.3257  0.6308  0.6526
18122SOL     OW59212   5.164   1.874   9.320 -0.2953  0.0393 -1.0194
18122SOL    HW159213   5.097   1.908   9.380  0.0787 -1.2770  0.2180
18122SOL    HW259214   5.116   1.853   9.240 -1.4821 -1.2812 -0.0156
18123SOL     OW59215   7.843   1.921   1.706 -0.2377  0.4491  0.4226
18123SOL    HW159216   7.868   1.913   1.798 -0.4202 -0.4376  0.4000
18123SOL    HW259217   7.887   2.001   1.677  1.5195 -0.3428  0.7351
18124SOL     OW59218   6.745   9.842   2.056  0.3303  0.5349 -0.6037
18124SOL    HW159219   6.758   9.846   1.961 -0.2344  1.2345 -0.6607
18124SOL    HW259220   6.828   9.874   2.092  1.2742 -1.5429 -0.7949
18125SOL     OW59221   8.134   3.252   0.623  0.0142 -0.0995 -0.3282
18125SOL    HW159222   8.065   3.188   0.642  0.8240 -0.5721  1.2100
18125SOL    HW259223   8.202   3.201   0.580  0.7336 -0.3611  1.0545
18126SOL     OW59224   7.453   1.208   0.429  0.5692 -0.0740 -0.2551
18126SOL    HW159225   7.412   1.281   0.383 -0.5716 -0.7421 -0.3330
18126SOL    HW259226   7.455   1.137   0.366 -0.8921 -0.9581  0.6416
18127SOL     OW59227   6.142   3.424   2.161  0.2623 -0.0645 -0.2110
18127SOL    HW159228   6.159   3.488   2.093 -2.1332  0.2646 -0.5655
18127SOL    HW259229   6.209   3.357   2.148  2.4748  2.0196 -0.1696
18128SOL     OW59230   8.092   1.852   1.467  0.0972 -0.2455  0.5171
18128SOL    HW159231   8.093   1.756   1.470 -0.7204 -0.2607  0.5924
18128SOL    HW259232   8.000   1.874   1.452  0.4412  0.4975 -0.6785
18129SOL     OW59233   4.064   1.924   1.445  0.3601 -0.0752  0.1561
18129SOL    HW159234   4.067   1.837   1.484  1.2742 -0.5905 -1.0103
18129SOL    HW259235   4.009   1.913   1.367 -0.3897  0.6459  0.5671
18130SOL     OW59236   7.248   2.290   9.197 -0.5228  0.1860  0.4424
18130SOL    HW159237   7.160   2.291   9.233 -0.8744  0.4885 -0.3933
18130SOL    HW259238   7.280   2.379   9.209 -1.7142  1.1160 -2.4643
18131SOL     OW59239   8.203   4.625   1.408  0.0552 -0.1071 -0.1665
18131SOL    HW159240   8.150   4.549   1.386 -0.5412  0.3494 -0.3257
18131SOL    HW259241   8.293   4.591   1.411 -0.1920 -0.7976 -0.3032
18132SOL     OW59242   3.104   2.662   1.495  0.2156 -0.3685 -0.0953
18132SOL    HW159243   3.135   2.703   1.576  0.3036 -0.0644 -0.2829
18132SOL    HW259244   3.051   2.729   1.452  1.5211  0.0612 -1.0958
18133SOL     OW59245   4.876   1.876   0.267  0.1160  0.0193 -0.3758
18133SOL    HW159246   4.951   1.858   0.210  0.1357  0.1783 -0.3990
18133SOL    HW259247   4.852   1.790   0.302  1.5589  0.1884  1.1905
18134SOL     OW59248   6.486   3.448   0.200  0.2234 -0.3150 -0.4130
18134SOL    HW159249   6.443   3.366   0.224 -1.0266  0.1352 -1.0199
18134SOL    HW259250   6.529   3.477   0.281 -0.1540 -1.0637  0.0681
18135SOL     OW59251   6.051   2.035   0.159 -0.2519  0.1841  0.4784
18135SOL    HW159252   6.122   1.973   0.143 -0.6165 -0.1274  0.0363
18135SOL    HW259253   6.073   2.112   0.106 -0.8262 -0.3650 -0.5923
18136SOL     OW59254   5.768   2.697   9.742  0.2653  0.1731 -0.1969
18136SOL    HW159255   5.771   2.610   9.702  1.5504 -0.0936  0.4367
18136SOL    HW259256   5.714   2.687   9.820 -0.3375  0.1619 -0.6111
18137SOL     OW59257   6.939   4.086   8.500 -0.1382 -0.1883  0.5698
18137SOL    HW159258   6.989   4.047   8.572  1.4999  2.3793  0.9408
18137SOL    HW259259   6.945   4.180   8.514 -2.5109  0.3184 -1.1788
18138SOL     OW59260   5.420   2.032   0.669 -0.3851  0.0559 -0.3750
18138SOL    HW159261   5.474   2.089   0.615  0.0517  1.1389  1.1713
18138SOL    HW259262   5.481   1.989   0.728 -0.8438 -1.2241 -0.7899
18139SOL     OW59263   4.195   0.178   0.682  0.0265  0.8060 -0.0939
18139SOL    HW159264   4.122   0.198   0.742 -0.0408  1.1024 -0.2763
18139SOL    HW259265   4.175   0.226   0.602 -0.4341 -0.4236 -0.7504
18140SOL     OW59266   6.154   0.875   9.283 -0.5286 -0.1076 -0.4767
18140SOL    HW159267   6.217   0.824   9.333  1.1390 -0.5740 -2.8653
18140SOL    HW259268   6.101   0.920   9.349  2.3111  0.3646  1.6773
18141SOL     OW59269   6.232   2.812   2.048  0.3474  0.4698 -0.2766
18141SOL    HW159270   6.293   2.881   2.021  0.5316  0.6760  0.6381
18141SOL    HW259271   6.155   2.825   1.992 -0.2870  2.4550  0.9444
18142SOL     OW59272   6.054   3.506   9.707 -0.3723 -0.2259 -0.6356
18142SOL    HW159273   6.073   3.416   9.733  1.0473 -0.0394 -0.9492
18142SOL    HW259274   6.054   3.505   9.612  2.5992  0.6081 -0.7359
18143SOL     OW59275   6.821   2.568   8.588 -0.1436 -0.4171 -0.1281
18143SOL    HW159276   6.835   2.477   8.613 -0.1869 -1.4736 -3.4955
18143SOL    HW259277   6.766   2.563   8.510 -0.2068  2.5148 -0.3747
18144SOL     OW59278   8.259   1.912   2.831  0.1629 -0.5401 -0.1739
18144SOL    HW159279   8.236   1.938   2.921  1.8923 -1.0796  0.4795
18144SOL    HW259280   8.267   1.817   2.835 -0.8733 -0.6909 -1.2175
18145SOL     OW59281   7.446   4.504   2.686 -0.0423 -0.4491  0.1301
18145SOL    HW159282   7.409   4.541   2.606 -1.1973 -2.6061 -0.4137
18145SOL    HW259283   7.513   4.443   2.656  0.2459 -0.4992  0.8653
18146SOL     OW59284   7.144   1.352   0.026 -0.3596  0.2944 -0.3325
18146SOL    HW159285   7.087   1.294  -0.024  0.4455  0.2304 -1.2140
18146SOL    HW259286   7.103   1.438   0.020 -0.3143  0.2686 -1.0397
18147SOL     OW59287   5.634   1.745   9.736  0.5257 -0.0024 -0.6741
18147SOL    HW159288   5.645   1.651   9.750  0.5437  0.0273 -0.4957
18147SOL    HW259289   5.659   1.758   9.644 -0.7542 -0.3686 -1.0873
18148SOL     OW59290   8.314   2.564   9.046 -0.5536  0.2647 -0.6192
18148SOL    HW159291   8.328   2.595   8.956  1.4747 -0.2270 -0.5280
18148SOL    HW259292   8.341   2.472   9.044 -4.2444 -0.9920 -0.3510
18149SOL     OW59293   2.891   4.899   1.092 -0.0915  0.2395 -0.6601
18149SOL    HW159294   2.936   4.979   1.121  1.7673 -1.0463  0.2042
18149SOL    HW259295   2.952   4.858   1.030 -1.2143 -0.3132 -1.4386
18150SOL     OW59296   6.232   4.623   2.902 -0.5918  0.1954  0.2850
18150SOL    HW159297   6.252   4.663   2.987 -0.1165  0.0646  0.2368
18150SOL    HW259298   6.206   4.534   2.924 -3.3760  0.9974  0.5587
18151SOL     OW59299   8.198   4.151   0.363 -0.0648  0.3023  0.6663
18151SOL    HW159300   8.235   4.232   0.399  1.7873  0.0597 -0.5533
18151SOL    HW259301   8.275   4.098   0.340 -1.2141 -0.8171 -0.7734
18152SOL     OW59302   8.012   5.068   2.178 -0.6975 -0.1689 -0.2120
18152SOL    HW159303   7.996   5.002   2.111  0.4658 -1.1345  0.4236
18152SOL    HW259304   8.043   5.144   2.130  0.4426 -0.9633 -0.7756
18153SOL     OW59305   5.767   4.330   9.225 -0.2366 -0.6485  0.4816
18153SOL    HW159306   5.725   4.278   9.156  0.5489 -0.6849  0.0113
18153SOL    HW259307   5.780   4.416   9.184  4.1244 -1.7889 -1.0786
18154SOL     OW59308   3.276   5.327   3.226  0.4413  0.5076  0.6768
18154SOL    HW159309   3.325   5.244   3.227 -1.1142 -0.4788 -0.4034
18154SOL    HW259310   3.206   5.314   3.290  1.2326  1.7107  1.8316
18155SOL     OW59311   7.035   4.631   3.514  0.0866  0.4496  0.3122
18155SOL    HW159312   6.988   4.599   3.437 -0.6174  1.0442  0.4828
18155SOL    HW259313   7.105   4.567   3.528 -1.6351 -1.3828  1.0293
18156SOL     OW59314   6.130   4.112   9.413  0.2028 -0.8876  0.2866
18156SOL    HW159315   6.101   4.072   9.332  0.7564 -1.2257  0.2491
18156SOL    HW259316   6.223   4.129   9.400 -0.2783  1.7907 -0.2614
18157SOL     OW59317   6.347   0.838   1.826 -0.1825  0.3718 -0.3708
18157SOL    HW159318   6.420   0.796   1.781 -1.1356 -0.9370 -0.7359
18157SOL    HW259319   6.272   0.827   1.767 -0.9838  0.4950  0.5961
18158SOL     OW59320   5.349   2.684   1.061  0.5942  0.1790 -0.5092
18158SOL    HW159321   5.294   2.719   1.131  1.4325  0.1485  0.1747
18158SOL    HW259322   5.362   2.592   1.084  0.2959 -0.0108 -1.0820
18159SOL     OW59323   4.379   2.246   1.654  0.6245 -0.0574 -0.0507
18159SOL    HW159324   4.353   2.193   1.730 -2.2030 -0.8756 -1.4658
18159SOL    HW259325   4.408   2.182   1.589  2.3302  0.5898  0.0167
18160SOL     OW59326   5.583   1.413   1.833  0.4769 -0.5692 -0.5229
18160SOL    HW159327   5.655   1.351   1.846  0.4442 -0.5632 -0.3044
18160SOL    HW259328   5.504   1.360   1.843  0.2972  0.0950  3.5193
18161SOL     OW59329   7.510   4.677   0.405 -0.8142  0.0629  0.4313
18161SOL    HW159330   7.606   4.673   0.400 -0.7196  0.6525  1.4494
18161SOL    HW259331   7.486   4.741   0.338 -0.5982 -0.8643 -0.5629
18162SOL     OW59332   5.598   3.175   1.478 -0.1687 -0.1115  0.1472
18162SOL    HW159333   5.628   3.170   1.387 -1.5833  0.4640 -0.3827
18162SOL    HW259334   5.673   3.145   1.530  1.4515  1.5721 -1.0714
18163SOL     OW59335   7.216   1.786   0.444 -0.1249  0.1050  0.1917
18163SOL    HW159336   7.242   1.790   0.352  0.7271 -1.2508  0.3383
18163SOL    HW259337   7.151   1.856   0.454 -0.8816 -0.2788 -1.6343
18164SOL     OW59338   6.161   2.347   2.322  0.2483 -0.4885  0.1288
18164SOL    HW159339   6.200   2.269   2.363  0.1563  0.0366  1.2496
18164SOL    HW259340   6.234   2.388   2.275  0.3381 -1.1469 -0.3191
18165SOL     OW59341   6.939   2.442   0.848  0.0474  0.0237  0.0251
18165SOL    HW159342   6.871   2.385   0.814 -0.7491  1.4630 -0.8981
18165SOL    HW259343   6.917   2.454   0.941 -0.8017  0.2653 -0.2041
18166SOL     OW59344   8.959   3.947   8.605  0.0294  0.2404 -0.2941
18166SOL    HW159345   9.017   3.900   8.545  1.1255  0.0824  0.8570
18166SOL    HW259346   9.018   3.996   8.662 -1.0188  0.9976  0.1720
18167SOL     OW59347   6.460   3.229   1.615 -0.2847 -0.2627 -0.0058
18167SOL    HW159348   6.410   3.150   1.635 -1.0440 -0.4589 -2.4344
18167SOL    HW259349   6.395   3.292   1.583  0.8462 -0.2649 -2.5328
18168SOL     OW59350   7.338   3.532   2.388  0.3503  0.1712 -0.4007
18168SOL    HW159351   7.413   3.479   2.363 -0.3563 -0.4377 -1.2786
18168SOL    HW259352   7.329   3.596   2.317  0.5471  0.7989  0.1263
18169SOL     OW59353   8.079   2.422   2.139 -0.0988 -0.1303  0.1081
18169SOL    HW159354   8.088   2.459   2.051  1.0031 -1.6718 -0.4813
18169SOL    HW259355   8.130   2.479   2.195  1.2784 -0.5108 -0.7134
18170SOL     OW59356   4.035   2.967   9.577 -0.4086  0.2124 -0.0125
18170SOL    HW159357   4.000   2.976   9.666  0.0218 -0.7400  0.2726
18170SOL    HW259358   4.017   3.051   9.535 -0.0292  0.9113  1.1811
18171SOL     OW59359   5.418   1.978   9.216 -0.4435 -0.0297 -0.3871
18171SOL    HW159360   5.488   1.913   9.226  0.4043  0.9843  0.6266
18171SOL    HW259361   5.346   1.944   9.270 -0.1964 -0.3830 -0.2754
18172SOL     OW59362   5.336   2.532   9.331  0.2316  0.1084  0.3764
18172SOL    HW159363   5.361   2.440   9.322  0.4645  0.1894  0.1666
18172SOL    HW259364   5.398   2.567   9.395  1.4348  0.5836 -0.9707
18173SOL     OW59365   5.617   3.631   8.259 -0.9811 -0.0545 -0.1816
18173SOL    HW159366   5.652   3.543   8.274 -0.0143  0.6131  1.7672
18173SOL    HW259367   5.634   3.647   8.166  1.0749 -1.0087 -0.0379
18174SOL     OW59368   5.793   2.544   1.955 -0.0202  0.8310 -0.1504
18174SOL    HW159369   5.882   2.515   1.971 -0.7291 -0.6264  1.5023
18174SOL    HW259370   5.777   2.611   2.022 -0.2876  0.7813 -0.1632
18175SOL     OW59371   5.574   1.754   9.179 -0.2110  0.1030 -0.0250
18175SOL    HW159372   5.635   1.690   9.215 -0.4053  0.0277  0.1796
18175SOL    HW259373   5.504   1.701   9.140 -0.7617  0.1828  0.8215
18176SOL     OW59374   6.065   1.868   1.162  0.3909 -0.5399 -0.6552
18176SOL    HW159375   6.160   1.861   1.150  0.4742  1.5393 -1.6403
18176SOL    HW259376   6.037   1.935   1.099 -1.5776 -0.3779  0.3009
18177SOL     OW59377   5.708   1.490   9.768 -0.4460 -0.5566  0.4977
18177SOL    HW159378   5.784   1.454   9.722 -0.4811  0.2985 -0.2452
18177SOL    HW259379   5.672   1.415   9.817 -1.0939 -1.8135 -1.7540
18178SOL     OW59380   7.583   2.073   1.869  0.2314  0.3597 -0.1108
18178SOL    HW159381   7.531   2.023   1.932 -1.2742  1.9579 -0.0087
18178SOL    HW259382   7.667   2.086   1.913 -0.0742 -0.3247  0.7108
18179SOL     OW59383   8.640   1.768   0.320  0.4195 -0.1440  0.1966
18179SOL    HW159384   8.591   1.688   0.339  1.8016 -1.1514 -0.2913
18179SOL    HW259385   8.642   1.816   0.403 -0.8053 -0.3871  0.3851
18180SOL     OW59386   7.196   5.766   2.294  0.0238 -0.4057  0.5302
18180SOL    HW159387   7.246   5.685   2.301  0.4740 -0.3515 -1.4923
18180SOL    HW259388   7.240   5.827   2.354  1.1600 -0.9608  0.2756
18181SOL     OW59389   4.591   4.121   2.810 -0.3751 -0.2105  0.0117
18181SOL    HW159390   4.663   4.108   2.872  0.6066  3.2034 -0.2002
18181SOL    HW259391   4.518   4.152   2.864 -0.0537  1.1383 -0.3026
18182SOL     OW59392   6.038   1.595   1.652  0.3854  0.1075 -0.2205
18182SOL    HW159393   6.051   1.636   1.738  0.4418  0.3473 -0.3416
18182SOL    HW259394   5.970   1.648   1.610 -1.0452 -1.1471  0.4121
18183SOL     OW59395   5.471   5.509   1.919  0.3571  0.5568 -0.8825
18183SOL    HW159396   5.462   5.526   1.825  0.6097  0.8378 -0.8589
18183SOL    HW259397   5.535   5.438   1.925  0.8133  0.9559 -0.9027
18184SOL     OW59398   7.256   2.690   1.881 -0.1008 -0.3972 -0.3656
18184SOL    HW159399   7.178   2.669   1.830  0.8378 -0.7575 -1.6945
18184SOL    HW259400   7.223   2.704   1.970 -1.9171  1.2576 -1.2234
18185SOL     OW59401   4.721   1.941   8.170 -0.5598  0.3379 -0.5909
18185SOL    HW159402   4.742   1.965   8.261 -1.0515  1.6236 -0.8139
18185SOL    HW259403   4.632   1.906   8.174 -1.3549  2.2418 -0.8595
18186SOL     OW59404   5.661   3.727   1.573 -0.5967  0.2036  0.2225
18186SOL    HW159405   5.660   3.822   1.557  0.0887  0.2821  0.5938
18186SOL    HW259406   5.614   3.690   1.498  1.7254  0.6362 -1.5949
18187SOL     OW59407   9.226   2.131   0.379 -0.8874  0.6179 -0.1658
18187SOL    HW159408   9.245   2.218   0.413 -0.5537  1.0864 -1.5259
18187SOL    HW259409   9.308   2.084   0.387 -0.0433  1.5270 -2.6484
18188SOL     OW59410   7.546   3.083   0.398 -0.1767 -0.1552  0.1342
18188SOL    HW159411   7.592   3.044   0.324 -1.4789 -2.2939  0.3507
18188SOL    HW259412   7.480   3.139   0.359 -0.8239 -1.2359 -0.3579
18189SOL     OW59413   7.238   3.372   7.961  0.1934 -0.4495  0.4751
18189SOL    HW159414   7.207   3.312   8.028 -0.3243 -0.8994 -0.1601
18189SOL    HW259415   7.236   3.321   7.880  1.4234 -0.1153  0.2150
18190SOL     OW59416   7.141   1.580   1.604  0.0629  0.4776  0.6084
18190SOL    HW159417   7.218   1.534   1.637 -0.8965 -0.2170  1.9741
18190SOL    HW259418   7.067   1.543   1.654 -1.1391  1.2337 -0.5363
18191SOL     OW59419   5.742   1.252   9.411 -0.0814 -0.3914  0.1518
18191SOL    HW159420   5.654   1.234   9.445 -1.2566  1.3076 -1.7696
18191SOL    HW259421   5.800   1.201   9.467 -2.2799 -1.5898  1.4782
18192SOL     OW59422   5.630   4.799   2.952 -0.4103  0.2412  0.5294
18192SOL    HW159423   5.687   4.724   2.936  0.5082  1.3150 -1.6872
18192SOL    HW259424   5.542   4.762   2.959 -0.0952 -0.9958 -1.4217
18193SOL     OW59425   6.628   1.703   1.273  0.6490  0.3229  0.5632
18193SOL    HW159426   6.619   1.618   1.230  2.0088  0.1184  0.6551
18193SOL    HW259427   6.604   1.766   1.205  0.0839 -0.1042  0.3526
18194SOL     OW59428   6.335   1.764   1.669  0.0331 -0.3340  0.1802
18194SOL    HW159429   6.303   1.674   1.679  0.2412 -0.2644  1.6472
18194SOL    HW259430   6.357   1.771   1.576  2.1820 -2.5380  0.4197
18195SOL     OW59431   6.723   0.440   2.596  0.0227 -0.2958 -0.1904
18195SOL    HW159432   6.731   0.354   2.555 -3.2539  0.4599 -2.8682
18195SOL    HW259433   6.640   0.436   2.644 -0.2480  1.3441 -0.4602
18196SOL     OW59434   5.538   9.584   0.802  0.0932  0.3550 -0.1306
18196SOL    HW159435   5.590   9.620   0.874 -0.8458  1.3990  0.0565
18196SOL    HW259436   5.596   9.588   0.726  0.9382 -0.3364  0.4549
18197SOL     OW59437   7.291   1.579   8.957 -0.1987  0.6723  0.0658
18197SOL    HW159438   7.235   1.634   8.902 -0.6914  0.4071  0.2936
18197SOL    HW259439   7.380   1.598   8.927 -0.4993 -0.0531 -1.3544
18198SOL     OW59440   8.058   2.787   2.686  0.8323 -0.0131  0.2222
18198SOL    HW159441   7.976   2.784   2.735 -0.6218  0.8835 -1.9933
18198SOL    HW259442   8.058   2.705   2.636  0.6986  0.4990 -0.6310
18199SOL     OW59443   5.343   3.451   0.070 -0.4995  0.4269  0.0309
18199SOL    HW159444   5.261   3.428   0.026 -0.9298  0.4283  0.8237
18199SOL    HW259445   5.390   3.368   0.078 -0.2920  0.4674 -0.6658
18200SOL     OW59446   6.768   4.043   9.258  0.1876 -0.0069 -0.2028
18200SOL    HW159447   6.862   4.035   9.272  0.2893 -0.4060 -1.0810
18200SOL    HW259448   6.735   3.954   9.265  0.0792 -0.0626 -1.2795
18201SOL     OW59449   4.022   1.924   0.734  0.0041  0.2693 -0.1384
18201SOL    HW159450   4.010   1.944   0.826 -0.3525 -3.2217  0.7286
18201SOL    HW259451   4.114   1.896   0.727 -0.4150 -1.1279 -0.4122
18202SOL     OW59452   7.332   1.941   2.773  0.0134  0.1272  0.1374
18202SOL    HW159453   7.237   1.938   2.756  0.1702  1.6600 -1.2513
18202SOL    HW259454   7.358   1.849   2.775 -1.3590 -0.3142 -0.4545
18203SOL     OW59455   6.281   4.188   1.365 -0.2518  0.3668 -0.5654
18203SOL    HW159456   6.221   4.114   1.363  0.8840 -0.5742 -0.6806
18203SOL    HW259457   6.252   4.240   1.440 -1.2817  0.0191 -0.7012
18204SOL     OW59458   9.181   3.138   1.407 -0.4610  0.2128 -0.5690
18204SOL    HW159459   9.091   3.166   1.387 -0.1236  1.9841  0.2594
18204SOL    HW259460   9.228   3.151   1.325 -0.2892  2.3297 -0.1975
18205SOL     OW59461   5.151   4.913   9.742  0.1093 -0.3987 -0.1017
18205SOL    HW159462   5.247   4.914   9.735  0.0894  1.0821 -0.4550
18205SOL    HW259463   5.120   4.929   9.653 -0.4415  0.6837  0.2763
18206SOL     OW59464   5.537   2.261   2.521 -0.5148  0.0254 -0.0053
18206SOL    HW159465   5.599   2.310   2.467 -0.6289  0.4886  0.2753
18206SOL    HW259466   5.579   2.176   2.534  0.3771  0.5581  0.7382
18207SOL     OW59467   7.012   1.648   0.031  0.8830 -0.0804  0.1510
18207SOL    HW159468   6.966   1.673   0.112  1.7720  0.0208  0.6315
18207SOL    HW259469   6.943   1.610  -0.024  0.0249  0.9162  0.4802
18208SOL     OW59470   6.268   1.867   0.130 -0.4825  0.5043  0.1117
18208SOL    HW159471   6.333   1.816   0.081 -0.6235  0.2112  0.2251
18208SOL    HW259472   6.317   1.906   0.202 -0.4606  0.1373  0.3021
18209SOL     OW59473   6.707   4.717   9.507  0.4560  0.4961  0.3575
18209SOL    HW159474   6.713   4.630   9.469  0.2223  0.6154  0.0431
18209SOL    HW259475   6.643   4.709   9.578 -0.5108  0.6852 -0.4720
18210SOL     OW59476   6.517   3.107   0.251  0.3696  0.7040  0.2635
18210SOL    HW159477   6.568   3.175   0.294 -0.1699  1.8548 -0.8531
18210SOL    HW259478   6.582   3.046   0.217  1.1167  2.4661 -1.6898
18211SOL     OW59479   5.899   2.760   2.946  0.7360  1.0971  0.0575
18211SOL    HW159480   5.915   2.675   2.987  1.1500  1.6119  0.9839
18211SOL    HW259481   5.839   2.740   2.874  1.0754 -0.0255  0.0631
18212SOL     OW59482   6.631   2.611   2.039  0.0723 -0.8739  0.1288
18212SOL    HW159483   6.598   2.539   2.093  1.4565 -1.5019  0.1627
18212SOL    HW259484   6.718   2.583   2.011  1.4258  1.4831  1.6200
18213SOL     OW59485   5.674   2.170   1.019 -0.4569  0.2300 -0.3763
18213SOL    HW159486   5.676   2.134   0.930  1.8368 -1.8524  0.4148
18213SOL    HW259487   5.763   2.160   1.051 -0.9355  2.0507  1.7863
18214SOL     OW59488   6.104   2.839   3.066  0.4602  0.0320 -0.0340
18214SOL    HW159489   6.022   2.806   3.031 -0.4422  0.7955  1.2810
18214SOL    HW259490   6.116   2.924   3.022 -1.2257  1.5033  2.1210
18215SOL     OW59491   7.272   0.563   2.514  0.0351  0.1787  0.2396
18215SOL    HW159492   7.254   0.631   2.450 -0.7404 -2.9520 -3.2535
18215SOL    HW259493   7.319   0.496   2.465  0.0735 -2.1852  3.1912
18216SOL     OW59494   3.517   3.865   1.691 -0.0477 -0.1400 -0.7631
18216SOL    HW159495   3.448   3.803   1.666 -0.8486  0.7180 -0.7323
18216SOL    HW259496   3.587   3.810   1.726 -1.8750 -0.9019  2.0444
18217SOL     OW59497   7.054   5.454   3.790  0.1752 -0.2521  0.2772
18217SOL    HW159498   7.105   5.497   3.858  0.4278  0.0544 -0.1047
18217SOL    HW259499   6.986   5.517   3.768 -0.6464 -0.8232  1.0856
18218SOL     OW59500   5.408   2.452   3.759 -0.0352 -0.4313 -0.3479
18218SOL    HW159501   5.333   2.398   3.734 -0.0049 -0.1518 -1.0618
18218SOL    HW259502   5.484   2.395   3.746 -0.1730 -1.0698  1.3775
18219SOL     OW59503   5.398   2.869   3.916  0.6119 -0.7111 -0.1454
18219SOL    HW159504   5.413   2.956   3.879  2.2590 -0.7872  0.2675
18219SOL    HW259505   5.484   2.827   3.913  0.4577 -1.3167  2.1525
18220SOL     OW59506   5.043   0.883   1.142  0.0481  0.1140 -0.4533
18220SOL    HW159507   4.964   0.841   1.108 -0.6793 -0.0174  1.3008
18220SOL    HW259508   5.011   0.960   1.188  1.0831  0.7753 -0.8041
18221SOL     OW59509   5.643   1.118   5.304  0.4845 -0.5776 -0.0722
18221SOL    HW159510   5.668   1.054   5.237 -0.3171 -0.4014 -0.5613
18221SOL    HW259511   5.549   1.104   5.315  1.0240 -2.6261  3.1867
18222SOL     OW59512   5.713   4.885   1.637  0.1632 -0.2239  0.5197
18222SOL    HW159513   5.690   4.795   1.660  0.0618 -0.2904  0.1722
18222SOL    HW259514   5.752   4.921   1.716 -1.5782  0.0429  1.3049
18223SOL     OW59515   8.866   3.273   3.276  0.0549 -0.0078 -0.5060
18223SOL    HW159516   8.861   3.196   3.219 -1.8036 -0.6272  0.4039
18223SOL    HW259517   8.937   3.253   3.337 -0.4682 -1.0590 -0.2257
18224SOL     OW59518   6.241   1.534   2.343 -0.0519  0.0761 -0.0968
18224SOL    HW159519   6.207   1.567   2.260  1.3956  0.1342 -0.7098
18224SOL    HW259520   6.174   1.474   2.374 -1.1734  0.9787 -0.6895
18225SOL     OW59521   3.720   2.905   2.479  0.6162 -0.7733 -0.1028
18225SOL    HW159522   3.736   2.820   2.521 -0.2874 -0.9950 -0.1870
18225SOL    HW259523   3.672   2.883   2.399  0.4940 -0.1875 -0.1928
18226SOL     OW59524   5.105   3.650   2.740 -0.2390 -0.2373  0.4594
18226SOL    HW159525   5.180   3.591   2.742  0.8501  1.0662 -0.4556
18226SOL    HW259526   5.139   3.734   2.772 -1.2933  0.3887 -0.0043
18227SOL     OW59527   6.094   1.875   1.439 -0.2712 -0.0164  0.6995
18227SOL    HW159528   6.039   1.941   1.480 -0.0924 -0.0929  1.0693
18227SOL    HW259529   6.074   1.881   1.345 -1.3721 -0.4801  0.8985
18228SOL     OW59530   4.291   1.017   1.865  0.0102 -0.0061 -0.7063
18228SOL    HW159531   4.277   0.966   1.945 -1.1920 -0.2872 -1.0826
18228SOL    HW259532   4.319   0.952   1.800  1.1368  0.2449 -0.4911
18229SOL     OW59533   8.348   1.040   2.837  0.1983  0.1988  0.1568
18229SOL    HW159534   8.288   1.008   2.904  1.5539 -0.8443  0.9130
18229SOL    HW259535   8.291   1.084   2.774 -1.3923 -0.9644  0.7045
18230SOL     OW59536   6.632   2.850   4.985  0.5698 -0.5601  0.1313
18230SOL    HW159537   6.624   2.798   4.905  2.4206 -0.0705 -0.4472
18230SOL    HW259538   6.612   2.789   5.055 -1.8123 -0.8248 -0.6845
18231SOL     OW59539   5.508   0.274   1.939  0.5661  0.4471 -0.0007
18231SOL    HW159540   5.451   0.197   1.939 -0.3944  1.0968 -2.1248
18231SOL    HW259541   5.536   0.283   2.031 -1.7739 -0.6022  0.8879
18232SOL     OW59542   6.268   3.307   2.943  0.2906  0.3484 -0.2583
18232SOL    HW159543   6.272   3.350   2.857  0.3388  0.8493 -0.0055
18232SOL    HW259544   6.293   3.374   3.005 -0.0707  0.0796  0.1874
18233SOL     OW59545   5.559   3.230   0.696 -0.0413  0.3126  0.1692
18233SOL    HW159546   5.503   3.152   0.689  0.1476  0.2488 -0.8605
18233SOL    HW259547   5.634   3.209   0.641  0.3825  0.9158  0.5176
18234SOL     OW59548   6.562   4.193   4.589 -0.7136 -0.0094  0.6092
18234SOL    HW159549   6.567   4.218   4.681 -0.9276 -1.6433  1.0936
18234SOL    HW259550   6.625   4.250   4.545  1.5183 -1.1075  2.2210
18235SOL     OW59551   9.108   2.453   2.214  0.0280  0.1053 -0.2972
18235SOL    HW159552   9.096   2.547   2.201 -3.7346 -0.2413 -0.4323
18235SOL    HW259553   9.123   2.419   2.127  0.7518  0.4688 -0.3273
18236SOL     OW59554   5.002   2.365   2.710 -0.8815  0.0713  0.4160
18236SOL    HW159555   4.930   2.322   2.756 -1.0938  0.5731  0.5682
18236SOL    HW259556   5.024   2.306   2.638  0.8740 -1.7626  2.3536
18237SOL     OW59557   5.250   3.496   0.483 -0.0129  0.4402 -0.1988
18237SOL    HW159558   5.220   3.407   0.465 -1.5089  1.0758 -0.9898
18237SOL    HW259559   5.171   3.549   0.482  0.9460  1.9230 -0.5348
18238SOL     OW59560   6.400   2.658   9.776 -0.0057 -0.7158 -0.6456
18238SOL    HW159561   6.359   2.608   9.704 -1.0402 -2.2835  0.9454
18238SOL    HW259562   6.414   2.593   9.845 -2.5649  1.3169  2.0451
18239SOL     OW59563   6.111   1.622   3.825  0.4916  0.2358 -0.1162
18239SOL    HW159564   6.203   1.595   3.827  0.2607 -0.8315 -1.7614
18239SOL    HW259565   6.111   1.700   3.769  0.4722  0.5646  0.3432
18240SOL     OW59566   7.899   2.928   3.701 -0.3056 -0.2530 -0.5860
18240SOL    HW159567   7.925   2.881   3.780 -0.4607  0.5182 -0.0693
18240SOL    HW259568   7.818   2.885   3.673  0.0676 -0.9139 -0.6782
18241SOL     OW59569   6.704   1.662   2.521 -0.2779 -0.6246 -0.5257
18241SOL    HW159570   6.689   1.722   2.447 -0.4643 -1.1290 -0.9022
18241SOL    HW259571   6.619   1.620   2.535 -1.2730  2.0211  2.3052
18242SOL     OW59572   6.302   1.726   3.217 -0.4265 -0.1308 -0.3180
18242SOL    HW159573   6.326   1.800   3.161 -1.3100  1.2695  1.0829
18242SOL    HW259574   6.307   1.650   3.159  1.3015  0.8898 -1.6021
18243SOL     OW59575   6.827   3.285   2.454 -0.1926  0.4843 -0.1680
18243SOL    HW159576   6.778   3.341   2.394 -0.6146  0.3146  0.0141
18243SOL    HW259577   6.890   3.344   2.495 -1.2376  1.0395  0.6940
18244SOL     OW59578   9.001   9.716   2.790 -0.2142 -0.5820 -0.2853
18244SOL    HW159579   8.957   9.710   2.705  0.3290 -2.0786 -0.4825
18244SOL    HW259580   8.975   9.637   2.836 -2.3982  1.2556  1.9322
18245SOL     OW59581   8.887   3.642   1.647  0.3445  0.4378 -0.1206
18245SOL    HW159582   8.971   3.677   1.674 -0.2968  2.1627 -0.2173
18245SOL    HW259583   8.900   3.548   1.641  1.8164  0.5212  1.3927
18246SOL     OW59584   6.275   2.505   1.087  0.5042  0.5456 -0.3131
18246SOL    HW159585   6.266   2.410   1.091 -0.3152  0.6062 -0.5635
18246SOL    HW259586   6.303   2.522   0.997  1.8415  0.4635  0.0677
18247SOL     OW59587   7.018   1.365   2.709 -0.2949  0.2948  0.4618
18247SOL    HW159588   7.072   1.294   2.742 -0.3332 -0.7044 -1.4951
18247SOL    HW259589   7.067   1.401   2.635 -0.7961  1.5711  0.7194
18248SOL     OW59590   7.068   1.912   2.354  0.0750  0.2658  0.2917
18248SOL    HW159591   7.143   1.857   2.375 -0.0942  0.3320  1.0843
18248SOL    HW259592   7.033   1.874   2.273 -1.4178 -2.2862  1.9914
18249SOL     OW59593   7.456   2.006   4.331 -0.1172  0.1526 -0.2109
18249SOL    HW159594   7.515   2.033   4.261  0.2938 -0.0277  0.0595
18249SOL    HW259595   7.481   2.061   4.406  0.2454 -0.4741  0.1355
18250SOL     OW59596   7.050   2.423   4.183  0.4288  0.1012 -0.8348
18250SOL    HW159597   6.959   2.415   4.214  0.4986 -0.1451 -0.6911
18250SOL    HW259598   7.062   2.349   4.123  0.6278 -0.0391 -0.6225
18251SOL     OW59599   5.491   2.606   1.386 -0.3519 -0.1290 -0.3111
18251SOL    HW159600   5.431   2.680   1.382  1.1885  1.1504 -1.0553
18251SOL    HW259601   5.453   2.541   1.327 -1.4858  0.2430 -0.0165
18252SOL     OW59602   6.747   0.594   2.369  0.0837 -0.1122 -0.1018
18252SOL    HW159603   6.702   0.678   2.364  1.4624  0.6167 -1.2087
18252SOL    HW259604   6.725   0.560   2.455 -0.1287  1.6369  0.5805
18253SOL     OW59605   6.945   3.897   3.251  0.7828  0.0968 -0.1228
18253SOL    HW159606   7.008   3.872   3.183  0.0579 -0.3768 -0.6335
18253SOL    HW259607   6.936   3.818   3.305  0.9379  0.2981  0.2018
18254SOL     OW59608   5.814   6.473   0.702  0.5218  0.1603  0.1237
18254SOL    HW159609   5.871   6.538   0.661  1.1052  1.4106  2.7329
18254SOL    HW259610   5.871   6.397   0.717  1.4504  1.1907  2.1898
18255SOL     OW59611   6.803   0.556   0.708 -0.6937 -0.3086 -0.3187
18255SOL    HW159612   6.734   0.622   0.705  0.1679  0.7275  1.0557
18255SOL    HW259613   6.879   0.599   0.668 -0.6567 -1.2045 -1.2465
18256SOL     OW59614   7.435   2.578   2.736  0.0586  0.4469  0.2581
18256SOL    HW159615   7.504   2.620   2.685  1.8888 -1.4550  1.0349
18256SOL    HW259616   7.371   2.550   2.670  1.2906 -0.0326 -0.7731
18257SOL     OW59617   8.600   2.867   1.564  0.7520  0.3450 -0.1590
18257SOL    HW159618   8.674   2.860   1.504 -0.1721  0.5238 -1.3521
18257SOL    HW259619   8.547   2.789   1.546 -0.1037  0.9629 -0.3923
18258SOL     OW59620   7.419   3.117   1.258  0.4675 -0.1553  0.4815
18258SOL    HW159621   7.381   3.104   1.345  1.7735  0.0832  1.1121
18258SOL    HW259622   7.374   3.194   1.224  0.3698  0.1165  1.2082
18259SOL     OW59623   4.646   5.395   1.386 -0.3175  0.3376 -0.3214
18259SOL    HW159624   4.732   5.433   1.364 -0.0141 -0.7401 -1.0763
18259SOL    HW259625   4.605   5.380   1.301 -1.1429  0.5686  0.0319
18260SOL     OW59626   4.697   1.895   0.777 -0.0779  0.5249  0.8722
18260SOL    HW159627   4.734   1.956   0.714  1.5383  0.1788  1.4378
18260SOL    HW259628   4.619   1.860   0.734  1.2255 -0.0559 -1.1524
18261SOL     OW59629   8.138   1.839   3.409  0.5135 -0.3785  0.4659
18261SOL    HW159630   8.151   1.929   3.437  2.4243 -0.1230 -1.0106
18261SOL    HW259631   8.215   1.792   3.442 -0.6362 -1.5899  1.5457
18262SOL     OW59632   5.938   1.275   8.228  0.1569  0.2251 -0.3840
18262SOL    HW159633   5.914   1.323   8.148 -0.1599  1.1910  0.2711
18262SOL    HW259634   6.034   1.274   8.227  0.1567  0.0836 -0.8540
18263SOL     OW59635   5.472   3.868   2.830 -0.4245 -0.2856  0.2520
18263SOL    HW159636   5.497   3.777   2.845 -0.6516 -0.3213  0.4237
18263SOL    HW259637   5.546   3.906   2.783  0.0887 -0.3046  1.0371
18264SOL     OW59638   6.684   3.426   2.274  0.3468  0.5039 -0.3165
18264SOL    HW159639   6.590   3.421   2.252  0.2557 -0.8890  0.3055
18264SOL    HW259640   6.724   3.467   2.197 -0.6779  0.4636 -0.8951
18265SOL     OW59641   6.076   2.154   6.672  0.3489  0.1611  0.0744
18265SOL    HW159642   6.132   2.224   6.638  1.7597 -1.0392 -0.1702
18265SOL    HW259643   6.029   2.122   6.595  2.0859 -1.2421 -0.4802
18266SOL     OW59644   6.977   4.942   1.157  0.5187  0.1514 -0.0340
18266SOL    HW159645   7.023   5.016   1.118 -0.7946  0.8197 -0.3430
18266SOL    HW259646   7.010   4.866   1.108  1.7233  0.5271  0.1543
18267SOL     OW59647   5.131   1.391   1.795  0.9110  0.1896 -0.2242
18267SOL    HW159648   5.216   1.350   1.810  0.1306 -1.4842 -0.2289
18267SOL    HW259649   5.077   1.361   1.868  0.3591  1.3816 -0.1218
18268SOL     OW59650   5.319   2.847   4.606 -0.1046 -0.4356  0.5402
18268SOL    HW159651   5.269   2.776   4.567  0.9168 -0.6336 -0.4748
18268SOL    HW259652   5.410   2.816   4.605  0.4948  1.2062 -0.7806
18269SOL     OW59653   5.273   1.066   2.291 -0.1100 -0.1687  0.0562
18269SOL    HW159654   5.188   1.107   2.304  0.9146  2.4196 -0.6718
18269SOL    HW259655   5.308   1.054   2.380  0.1714  2.1364  0.3329
18270SOL     OW59656   5.906   3.386   2.296 -0.0587 -0.4281  0.5066
18270SOL    HW159657   5.986   3.399   2.245 -0.5452  0.7445  0.0160
18270SOL    HW259658   5.911   3.295   2.325  1.0198 -0.6321 -0.2607
18271SOL     OW59659   3.589   2.994   3.786 -0.5171 -0.2810  0.5108
18271SOL    HW159660   3.504   2.965   3.819 -0.0830 -3.3862 -0.7849
18271SOL    HW259661   3.648   2.921   3.802  1.5931  1.1992 -0.0100
18272SOL     OW59662   6.221   4.693   3.540  0.1583  0.6727 -0.0657
18272SOL    HW159663   6.153   4.758   3.527  0.7867  1.3270 -0.1283
18272SOL    HW259664   6.224   4.678   3.634 -0.4270  0.2506 -0.1119
18273SOL     OW59665   5.426   2.737   0.800  0.1921  0.3328 -0.2965
18273SOL    HW159666   5.405   2.697   0.885 -2.4583  1.4096 -0.3275
18273SOL    HW259667   5.401   2.670   0.736 -1.1353  0.7546 -0.2610
18274SOL     OW59668   8.767   0.710   1.123 -0.0881 -0.0896  0.0214
18274SOL    HW159669   8.687   0.725   1.073 -0.4070  0.8648  0.7842
18274SOL    HW259670   8.816   0.646   1.072 -1.5351 -1.0304 -0.2337
18275SOL     OW59671   6.777   1.178   4.537 -0.6116  0.5718 -0.2804
18275SOL    HW159672   6.837   1.248   4.510 -0.5506  0.2883 -0.8982
18275SOL    HW259673   6.791   1.170   4.631 -0.5192  1.2972 -0.2267
18276SOL     OW59674   8.446   1.661   1.397 -0.2540  0.6364 -0.4777
18276SOL    HW159675   8.381   1.694   1.336 -1.2719  0.0239  0.2427
18276SOL    HW259676   8.420   1.698   1.482 -2.0685 -2.6658  0.5846
18277SOL     OW59677   7.099   4.924   2.346  0.5467 -0.4780 -0.1740
18277SOL    HW159678   7.051   4.907   2.427  1.2332 -0.4734  0.2438
18277SOL    HW259679   7.084   4.846   2.292 -0.7474 -0.0423 -0.4617
18278SOL     OW59680   7.200   2.883   2.589 -0.6498 -0.0453 -0.1337
18278SOL    HW159681   7.209   2.964   2.539  2.1412  0.0433  0.3518
18278SOL    HW259682   7.180   2.816   2.524 -1.0728  0.7191 -0.7962
18279SOL     OW59683   5.476   0.435   2.633 -0.1132  0.1314 -0.0736
18279SOL    HW159684   5.561   0.399   2.660 -1.2456 -1.7402  1.2419
18279SOL    HW259685   5.442   0.371   2.571 -1.0914  0.2044  0.3687
18280SOL     OW59686   3.932   2.306   4.005  0.2700  0.0380  0.2560
18280SOL    HW159687   3.933   2.398   3.979 -0.3333 -0.1594 -0.5217
18280SOL    HW259688   3.984   2.262   3.938 -2.1133 -0.6198 -1.2975
18281SOL     OW59689   8.269   3.398   1.438  0.3891  0.7500  0.2285
18281SOL    HW159690   8.333   3.451   1.486  0.1382  1.0441  0.2397
18281SOL    HW259691   8.286   3.308   1.467 -0.3415  1.0111  1.5389
18282SOL     OW59692   5.627   5.798   1.499  0.1414 -0.7404  0.5717
18282SOL    HW159693   5.539   5.831   1.478  0.6241  1.0320  1.1922
18282SOL    HW259694   5.662   5.770   1.415 -0.5231 -0.1858  0.0952
18283SOL     OW59695   5.844   3.420   1.371  0.0082  0.2406 -0.0928
18283SOL    HW159696   5.900   3.489   1.337  1.5212 -0.0086  1.7102
18283SOL    HW259697   5.809   3.376   1.293  0.4157  1.8937 -1.2592
18284SOL     OW59698   5.628   2.155   2.903  0.2100 -0.4759 -0.1667
18284SOL    HW159699   5.603   2.097   2.831 -0.4101 -0.9604  0.4232
18284SOL    HW259700   5.604   2.107   2.982 -1.2081  0.9485  0.3339
18285SOL     OW59701   6.220   4.079   4.685 -0.2249  0.3272 -0.7708
18285SOL    HW159702   6.153   4.017   4.656  0.1614 -1.8177  2.3462
18285SOL    HW259703   6.302   4.043   4.652 -0.2836  1.3005 -2.0566
18286SOL     OW59704   6.196   2.552   2.093 -0.0928 -0.1903  0.1002
18286SOL    HW159705   6.107   2.535   2.063  0.2181 -0.0591 -0.9437
18286SOL    HW259706   6.208   2.646   2.081 -0.1702 -0.0077  1.2865
18287SOL     OW59707   6.375   2.629   3.233 -0.0722  0.0830 -0.3295
18287SOL    HW159708   6.414   2.621   3.320 -0.9132  0.1147  0.0697
18287SOL    HW259709   6.443   2.601   3.172  0.4114 -0.2718  0.3672
18288SOL     OW59710   2.121   2.518   2.254  0.2516  0.3921  0.6858
18288SOL    HW159711   2.169   2.457   2.199  2.3149  1.3200  1.3802
18288SOL    HW259712   2.092   2.465   2.329  1.7207  0.1470  1.1087
18289SOL     OW59713   7.678   1.047   1.972 -0.1525  0.0890 -0.1368
18289SOL    HW159714   7.759   0.998   1.987  1.5417  2.5656 -0.4885
18289SOL    HW259715   7.628   0.993   1.911  1.4808 -1.2966 -0.3313
18290SOL     OW59716   5.712   2.818   3.917 -0.0025 -0.3035  0.3182
18290SOL    HW159717   5.771   2.786   3.848 -1.8192 -0.7660 -1.1122
18290SOL    HW259718   5.704   2.744   3.977 -1.5266 -1.4451 -1.1760
18291SOL     OW59719   5.868   3.136   1.482  0.4461  0.2479 -0.1305
18291SOL    HW159720   5.911   3.216   1.453  1.5231 -0.7739 -1.5237
18291SOL    HW259721   5.851   3.087   1.401  0.4783 -1.2426  0.7299
18292SOL     OW59722   7.903   3.343   4.442  0.0985  0.7588 -0.1579
18292SOL    HW159723   7.937   3.255   4.457 -0.3040  0.5949 -0.1714
18292SOL    HW259724   7.912   3.387   4.527 -1.2958  0.1391  0.3427
18293SOL     OW59725   6.412   4.624   3.282  0.4509 -0.4582 -0.4215
18293SOL    HW159726   6.487   4.682   3.266  0.2866 -0.6515 -1.9947
18293SOL    HW259727   6.450   4.536   3.280  0.1670 -0.5652 -1.3933
18294SOL     OW59728   6.168   3.367   3.965 -0.4238  0.9278  0.2198
18294SOL    HW159729   6.079   3.354   3.933 -0.5402 -0.3681  0.9846
18294SOL    HW259730   6.220   3.301   3.918 -0.1111  0.8205  0.7136
18295SOL     OW59731   9.091   1.299   2.572  0.2069  0.0850  0.5225
18295SOL    HW159732   9.130   1.383   2.548  0.0028  0.6413  2.0112
18295SOL    HW259733   9.146   1.234   2.528  0.7635  0.9739 -0.1349
18296SOL     OW59734   5.743   1.604   1.962  0.3505  0.1615  0.4905
18296SOL    HW159735   5.669   1.560   1.921  1.1713 -0.5045 -0.3380
18296SOL    HW259736   5.746   1.570   2.051 -0.0904 -0.1170  0.4001
18297SOL     OW59737   8.061   1.571   2.754 -0.2446  0.4076  0.2047
18297SOL    HW159738   8.153   1.570   2.778 -0.1224 -0.7757 -0.2630
18297SOL    HW259739   8.017   1.525   2.825 -0.6686  2.0264  1.0505
18298SOL     OW59740   8.516   3.921   3.423 -0.0759 -0.3133  0.2659
18298SOL    HW159741   8.486   3.972   3.347  2.2372  2.2022  0.9022
18298SOL    HW259742   8.442   3.924   3.483 -1.5193 -1.3668 -1.3370
18299SOL     OW59743   5.726   6.211   1.930 -0.7439  0.1848  0.1592
18299SOL    HW159744   5.782   6.240   2.001 -0.8360  0.6191  0.0577
18299SOL    HW259745   5.645   6.262   1.940 -0.6941  0.3738 -0.3535
18300SOL     OW59746   5.166   2.386   5.835 -0.4705 -0.0543  0.2573
18300SOL    HW159747   5.142   2.301   5.800  0.8540  0.1422 -1.2525
18300SOL    HW259748   5.251   2.373   5.876  1.0469  0.9679 -2.2874
18301SOL     OW59749   4.878   9.761   2.303 -0.2215 -0.3820  0.7213
18301SOL    HW159750   4.942   9.830   2.318 -0.2405 -0.4383  1.0775
18301SOL    HW259751   4.882   9.707   2.382 -0.8843 -0.2471  0.8484
18302SOL     OW59752   6.435   2.372   3.543  0.8587 -0.4366 -0.0012
18302SOL    HW159753   6.514   2.399   3.590  1.1027 -0.5395 -0.3426
18302SOL    HW259754   6.468   2.328   3.465  0.4652 -1.2598  0.2883
18303SOL     OW59755   7.845   4.274   1.440  0.5994  0.2060  0.5964
18303SOL    HW159756   7.818   4.326   1.364  0.3424 -0.2489  0.3726
18303SOL    HW259757   7.940   4.287   1.446  0.8274 -0.8227 -0.6092
18304SOL     OW59758   8.041   3.147   1.643 -0.5001 -0.1824 -0.1434
18304SOL    HW159759   8.126   3.190   1.650 -1.7106  2.4225 -0.2872
18304SOL    HW259760   8.062   3.054   1.643  2.4932  0.3251 -2.2408
18305SOL     OW59761   5.829   1.986   1.443  0.3082  0.1155  0.1072
18305SOL    HW159762   5.792   2.059   1.494  1.6033  0.6257  0.3443
18305SOL    HW259763   5.791   1.997   1.355 -2.2468 -0.9902  0.9737
18306SOL     OW59764   6.303   3.055   1.315 -0.2478  0.4795  0.1097
18306SOL    HW159765   6.379   3.059   1.257 -0.6326  0.5129 -0.3895
18306SOL    HW259766   6.263   2.970   1.296 -1.5973  1.3711 -1.2254
18307SOL     OW59767   8.491   1.244   3.019  0.7273 -0.3792 -0.0971
18307SOL    HW159768   8.479   1.247   2.924 -2.3468  1.7153  0.2063
18307SOL    HW259769   8.534   1.327   3.041 -2.0012  0.9966  0.5391
18308SOL     OW59770   4.979   4.122   2.908  0.6404  0.3562 -0.0561
18308SOL    HW159771   5.044   4.179   2.868  0.3826  0.3320 -0.5182
18308SOL    HW259772   5.002   4.034   2.879  1.5216  0.1002  1.3052
18309SOL     OW59773   5.676   2.796   2.134 -0.6939  0.8932  0.3335
18309SOL    HW159774   5.695   2.854   2.060 -1.8943 -0.6732 -1.3133
18309SOL    HW259775   5.581   2.798   2.141 -0.8550 -1.4751 -0.3780
18310SOL     OW59776   5.844   3.963   3.207 -0.1045  0.2910  0.2020
18310SOL    HW159777   5.907   3.892   3.221  1.5503  1.8738  1.2322
18310SOL    HW259778   5.897   4.043   3.211 -1.3579  1.5736 -3.8443
18311SOL     OW59779   8.300   2.572   1.351  0.2836  0.2335 -0.0365
18311SOL    HW159780   8.284   2.627   1.428 -2.1026  1.9682 -1.6128
18311SOL    HW259781   8.285   2.483   1.382  1.0522  0.6994  1.8561
18312SOL     OW59782   7.067   4.062   5.708 -0.0866  0.2366 -0.0396
18312SOL    HW159783   7.114   4.127   5.656 -1.0588 -0.2532 -1.6006
18312SOL    HW259784   7.025   4.005   5.643 -1.2494 -0.4752  1.2808
18313SOL     OW59785   5.569   3.559   4.184 -0.9091  0.5280  0.1197
18313SOL    HW159786   5.578   3.604   4.100 -0.5961 -0.1313 -0.2071
18313SOL    HW259787   5.643   3.499   4.186 -1.7008 -0.4615  0.2486
18314SOL     OW59788   4.649   5.168   3.051  0.1565  0.5695 -0.0068
18314SOL    HW159789   4.617   5.149   2.962  0.6690 -0.9561  0.1039
18314SOL    HW259790   4.663   5.081   3.090  0.2268  1.2205  1.4668
18315SOL     OW59791   5.533   0.090   1.675 -0.8251  0.1795 -0.0585
18315SOL    HW159792   5.573   0.169   1.638 -1.5355  0.4122 -0.3520
18315SOL    HW259793   5.604   0.046   1.721  0.0127  0.0827 -1.3801
18316SOL     OW59794   8.099   1.841   3.743  0.1938 -0.4074 -0.4963
18316SOL    HW159795   8.044   1.899   3.691  0.0232 -0.0587  0.0642
18316SOL    HW259796   8.148   1.899   3.802  1.2339 -0.7080 -1.0427
18317SOL     OW59797   7.304   3.384   4.419 -0.1729  0.0260 -0.1924
18317SOL    HW159798   7.273   3.300   4.453  0.0733 -0.3163 -0.8051
18317SOL    HW259799   7.367   3.414   4.484  1.1667 -1.1827 -0.8779
18318SOL     OW59800   0.007   2.668   3.174 -0.3062 -0.0435  0.4350
18318SOL    HW159801  -0.073   2.657   3.226 -0.1785 -0.8354  0.4785
18318SOL    HW259802  -0.014   2.628   3.090 -0.1647  0.3198  0.2268
18319SOL     OW59803   7.356   3.522   2.049 -0.2274  0.1985  0.7083
18319SOL    HW159804   7.411   3.547   1.976  0.3359 -0.5237  0.8765
18319SOL    HW259805   7.359   3.597   2.109  0.9711 -0.0232  0.9411
18320SOL     OW59806   7.948   2.209   3.521 -0.0888  0.1718 -0.2616
18320SOL    HW159807   7.984   2.144   3.581 -0.8619  0.1744  0.2237
18320SOL    HW259808   7.999   2.288   3.536  0.2361 -0.0539 -0.1778
18321SOL     OW59809   7.834   0.796   1.551 -0.2756  0.3047  0.0653
18321SOL    HW159810   7.794   0.711   1.570 -1.0265  0.0624 -2.2591
18321SOL    HW259811   7.857   0.791   1.458  2.4853  1.5523  0.5890
18322SOL     OW59812   4.946   1.326   2.889 -0.5188  0.3881 -0.0494
18322SOL    HW159813   4.915   1.292   2.805 -0.1428  0.9263 -0.4099
18322SOL    HW259814   4.900   1.273   2.954 -0.3525 -0.4514 -0.5931
18323SOL     OW59815   3.666   0.979   4.804  0.1666 -0.1355  0.1335
18323SOL    HW159816   3.662   0.890   4.838 -1.0886  0.2700  1.0972
18323SOL    HW259817   3.760   0.996   4.793  0.4821 -1.0808  1.2509
18324SOL     OW59818   7.373   1.564   3.240 -0.1707  0.1910  0.6314
18324SOL    HW159819   7.363   1.477   3.279 -1.7897  0.2957  0.5296
18324SOL    HW259820   7.447   1.603   3.286  1.8616 -1.9278 -0.6477
18325SOL     OW59821   4.563   0.884   4.001  0.1962 -0.3463 -0.2211
18325SOL    HW159822   4.541   0.811   3.942 -1.2453  0.2774 -0.4931
18325SOL    HW259823   4.510   0.869   4.079 -0.4985  0.6638 -0.4786
18326SOL     OW59824   7.984   3.082   4.025  0.4368 -0.3568 -0.5092
18326SOL    HW159825   7.988   3.177   4.042 -0.1529 -0.4266  0.0572
18326SOL    HW259826   8.068   3.062   3.986  0.2318  0.5734 -1.4864
18327SOL     OW59827   8.690   1.355   3.204  0.1661 -0.2952 -0.2370
18327SOL    HW159828   8.757   1.337   3.270  1.2653 -1.2061 -1.5511
18327SOL    HW259829   8.734   1.341   3.120 -1.1725  0.8786 -1.1924
18328SOL     OW59830   7.136   2.189   4.042  0.1164  0.2654  0.1254
18328SOL    HW159831   7.171   2.139   4.116  0.9239  1.3950  0.5384
18328SOL    HW259832   7.213   2.225   3.998 -0.4249  0.9867 -0.2630
18329SOL     OW59833   8.614   3.000   3.381  0.1970 -0.4063 -0.1160
18329SOL    HW159834   8.588   2.948   3.305 -0.1913 -1.6962  0.8619
18329SOL    HW259835   8.535   3.047   3.406  0.4247  0.3190 -0.7171
18330SOL     OW59836   4.234   4.029   3.125 -0.4928  0.4154  0.0736
18330SOL    HW159837   4.227   3.934   3.139  1.5075  0.3618  1.0645
18330SOL    HW259838   4.180   4.068   3.195 -1.0497  0.0363 -0.1333
18331SOL     OW59839   7.634   3.298   2.077 -0.2337  0.3119  0.1248
18331SOL    HW159840   7.683   3.372   2.043  0.1060  1.0524  2.0855
18331SOL    HW259841   7.684   3.221   2.050  0.0394  0.8432 -0.9271
18332SOL     OW59842   7.261   2.438   0.484 -0.4174 -0.3017  0.4158
18332SOL    HW159843   7.179   2.393   0.506  0.0052 -1.0634  0.4473
18332SOL    HW259844   7.234   2.528   0.466 -0.9984 -0.0211  2.4310
18333SOL     OW59845   8.967   1.882   1.909  0.1423 -0.4663  0.0410
18333SOL    HW159846   8.934   1.793   1.895  1.3360 -1.0471  0.8049
18333SOL    HW259847   8.966   1.893   2.004  3.2678 -0.9959  0.2417
18334SOL     OW59848   5.236   4.289   2.382  0.2380 -0.5284 -0.4540
18334SOL    HW159849   5.224   4.369   2.432 -0.2033 -0.5311 -0.5531
18334SOL    HW259850   5.331   4.277   2.378  0.2955 -0.1628 -0.2036
18335SOL     OW59851   6.422   5.239   4.205 -0.7321  0.5047 -0.8810
18335SOL    HW159852   6.487   5.200   4.147  0.4639  0.7396  0.2586
18335SOL    HW259853   6.348   5.260   4.147 -0.1824 -0.6007 -2.0447
18336SOL     OW59854   6.546   1.288   8.835 -0.1150  0.0377 -0.5196
18336SOL    HW159855   6.588   1.229   8.898 -1.1532  0.4062  0.5716
18336SOL    HW259856   6.610   1.298   8.765  1.9158  1.0868  1.3594
18337SOL     OW59857   7.414   2.491   1.802 -0.3557 -0.0229 -0.4052
18337SOL    HW159858   7.369   2.416   1.841  0.3468 -0.6760 -0.8298
18337SOL    HW259859   7.365   2.567   1.833 -0.5186 -0.5969  0.7992
18338SOL     OW59860   7.034   1.135   3.045 -0.0279 -0.0780  0.4747
18338SOL    HW159861   7.094   1.067   3.013  2.9678  2.9384 -0.8807
18338SOL    HW259862   6.952   1.117   2.999  0.0334 -3.6785  1.4769
18339SOL     OW59863   4.853   1.641   0.723  0.8378  1.2278 -0.3177
18339SOL    HW159864   4.816   1.727   0.741  1.4848  1.3193  0.6827
18339SOL    HW259865   4.780   1.590   0.687 -0.5120  1.1741  2.2453
18340SOL     OW59866   5.547   6.414   1.828 -0.0844 -0.1970 -0.0620
18340SOL    HW159867   5.514   6.495   1.790  0.6581  0.3692  0.4957
18340SOL    HW259868   5.626   6.394   1.779  0.7151  0.3780  0.9404
18341SOL     OW59869   7.276   2.552   3.581  0.5177 -0.2029  0.0568
18341SOL    HW159870   7.355   2.520   3.536  0.5743 -0.2747  0.2062
18341SOL    HW259871   7.228   2.599   3.513  0.0177 -1.3134 -0.3841
18342SOL     OW59872   3.555   3.568   3.133  0.3739 -0.0106 -0.0313
18342SOL    HW159873   3.577   3.476   3.142 -1.4135 -0.4424  0.4119
18342SOL    HW259874   3.525   3.577   3.042  0.1918  0.0542  0.0350
18343SOL     OW59875   4.704   1.672   0.356  0.4495  0.0992  0.0656
18343SOL    HW159876   4.680   1.580   0.368  0.7232  0.1304  0.9509
18343SOL    HW259877   4.682   1.713   0.440  0.8555  0.7189 -0.1267
18344SOL     OW59878   6.150   4.059   5.284 -0.4656 -0.0516 -0.5262
18344SOL    HW159879   6.090   4.103   5.224 -0.7669  0.6628  0.2689
18344SOL    HW259880   6.094   4.011   5.344 -0.1714 -0.6694 -0.7389
18345SOL     OW59881   4.336   0.633   1.171  0.0367  0.0165  0.1698
18345SOL    HW159882   4.398   0.561   1.182  0.1827  0.4137  2.4320
18345SOL    HW259883   4.389   0.706   1.138  0.0058 -0.6961 -1.5176
18346SOL     OW59884   8.957   3.017   1.682 -0.0223 -0.2668  0.9244
18346SOL    HW159885   8.992   3.057   1.761  0.4764 -0.5119  0.8354
18346SOL    HW259886   9.028   2.959   1.652 -0.8969 -1.5911  1.3240
18347SOL     OW59887   6.449   3.584   0.510 -0.4982  0.3313 -0.9162
18347SOL    HW159888   6.535   3.607   0.474 -0.5967 -0.9554 -2.0247
18347SOL    HW259889   6.443   3.489   0.498 -1.1363  0.0557  1.2430
18348SOL     OW59890   6.128   4.860   2.725 -0.0823 -0.1293 -0.2884
18348SOL    HW159891   6.173   4.789   2.680 -0.8450 -0.7828 -0.0469
18348SOL    HW259892   6.173   4.940   2.696 -0.6017 -0.5089 -2.2903
18349SOL     OW59893   6.934   3.456   5.944 -0.1709  0.0461  0.0027
18349SOL    HW159894   6.847   3.463   5.903  0.1286 -2.0586 -1.1675
18349SOL    HW259895   6.994   3.491   5.879  0.0923 -1.2153 -0.4679
18350SOL     OW59896   4.011   3.787   3.592 -0.2135 -0.0991  0.7512
18350SOL    HW159897   3.930   3.736   3.585 -1.1348  1.2140  1.3052
18350SOL    HW259898   4.080   3.725   3.570 -1.5256 -0.5372 -2.7368
18351SOL     OW59899   6.761   4.979   3.012 -0.4423  0.1083  0.7274
18351SOL    HW159900   6.762   4.884   3.026 -0.0844  0.0501  0.3536
18351SOL    HW259901   6.788   4.989   2.920  0.1077  0.6023  0.9384
18352SOL     OW59902   7.002   3.440   2.875  0.3393 -0.1805  0.7002
18352SOL    HW159903   7.092   3.466   2.896 -0.1541  0.7799  1.7582
18352SOL    HW259904   6.954   3.523   2.868 -0.3415 -0.6550 -0.4875
18353SOL     OW59905   7.898   2.668   4.445  0.0837  0.3807 -0.2605
18353SOL    HW159906   7.918   2.717   4.525  0.6699 -0.5024  0.1504
18353SOL    HW259907   7.977   2.616   4.428 -0.5139 -0.4156 -0.6800
18354SOL     OW59908   7.038   2.865   3.417  0.4711 -0.3285  0.7563
18354SOL    HW159909   7.119   2.885   3.370  0.6042  0.1147  1.1644
18354SOL    HW259910   7.030   2.935   3.481 -0.5457 -0.0380  0.3352
18355SOL     OW59911   6.856   2.836   2.762 -0.5738 -0.2934 -0.3762
18355SOL    HW159912   6.825   2.861   2.849  0.5603 -0.0597 -0.0203
18355SOL    HW259913   6.881   2.919   2.720 -0.2969 -0.4862 -0.5973
18356SOL     OW59914   7.110   1.807   0.826  0.2392 -0.5587 -0.0202
18356SOL    HW159915   7.150   1.873   0.770 -1.0300 -1.1617 -1.6982
18356SOL    HW259916   7.100   1.851   0.911  0.4431  1.0283 -0.7832
18357SOL     OW59917   8.905   2.636   4.108  0.1585  0.0996  0.7107
18357SOL    HW159918   8.856   2.562   4.144 -1.5082  0.0828 -1.3932
18357SOL    HW259919   8.992   2.602   4.092 -0.0995 -0.8951  1.3550
18358SOL     OW59920   6.679   2.278   2.884 -0.2738  0.3163 -0.3309
18358SOL    HW159921   6.742   2.343   2.852  0.7096 -0.6681 -0.4643
18358SOL    HW259922   6.594   2.319   2.871  0.3307  1.7076 -0.1160
18359SOL     OW59923   5.660   2.768   5.553 -0.2647 -0.7343  0.8017
18359SOL    HW159924   5.755   2.765   5.546 -0.3214 -0.5358 -0.0864
18359SOL    HW259925   5.644   2.799   5.643  0.5467  1.3686  0.2965
18360SOL     OW59926   7.173   2.898   0.621  0.3143  1.2688  0.2126
18360SOL    HW159927   7.175   2.822   0.679 -2.4196 -1.9995 -3.4177
18360SOL    HW259928   7.254   2.891   0.570  0.2727  1.0903  0.1723
18361SOL     OW59929   4.849   2.571   2.197  0.2929 -0.0760 -0.1339
18361SOL    HW159930   4.866   2.493   2.251 -0.3598  0.6101  1.0924
18361SOL    HW259931   4.887   2.549   2.111  1.4002 -1.1773  0.6016
18362SOL     OW59932   7.621   3.394   1.737 -0.1052  0.2515 -0.2571
18362SOL    HW159933   7.690   3.456   1.714  0.1746  0.0712  0.0873
18362SOL    HW259934   7.565   3.442   1.798  0.8225 -0.2247  1.0264
18363SOL     OW59935   6.876   1.123   2.639  0.7986 -0.0616  0.0629
18363SOL    HW159936   6.920   1.206   2.660 -0.0826  0.8002 -1.3983
18363SOL    HW259937   6.944   1.071   2.596  0.8605  0.6379 -0.7114
18364SOL     OW59938   5.506   4.292   2.341 -0.0003 -0.9952  0.0480
18364SOL    HW159939   5.502   4.340   2.258  0.2180  0.9232  1.0975
18364SOL    HW259940   5.600   4.285   2.360 -0.0459  1.5602  1.7065
18365SOL     OW59941   5.350   5.032   3.217  0.2929 -0.6020 -0.1877
18365SOL    HW159942   5.274   5.055   3.270  1.6478  3.2616  0.4128
18365SOL    HW259943   5.408   4.984   3.277 -0.0524 -0.1469  0.5188
18366SOL     OW59944   4.457   1.819   3.751 -0.3869  0.1233  0.1634
18366SOL    HW159945   4.538   1.859   3.719 -0.3488  0.4915  0.6904
18366SOL    HW259946   4.396   1.827   3.678 -0.0517  0.1646 -0.1162
18367SOL     OW59947   6.805   6.017   8.728  0.1448 -0.1608 -0.0718
18367SOL    HW159948   6.761   6.096   8.761 -0.0881 -0.8866  1.4104
18367SOL    HW259949   6.793   5.952   8.797  2.4149 -0.7921 -0.1928
18368SOL     OW59950   7.278   2.801   1.525  0.0449  0.1115  0.4858
18368SOL    HW159951   7.235   2.882   1.553  1.2591  0.6968  0.7063
18368SOL    HW259952   7.209   2.751   1.482 -0.5323  1.6348 -0.4296
18369SOL     OW59953   6.618   0.384   1.647 -0.1792  0.1745  0.2046
18369SOL    HW159954   6.526   0.408   1.639 -0.2111  0.3479  1.0334
18369SOL    HW259955   6.664   0.447   1.591 -0.6757 -0.9213 -1.5272
18370SOL     OW59956   5.196   3.741   2.174  0.1143  0.4347  0.3048
18370SOL    HW159957   5.267   3.679   2.188  0.3560  0.4502 -0.7739
18370SOL    HW259958   5.149   3.706   2.098 -0.8761  0.5701  0.8348
18371SOL     OW59959   7.393   4.348   1.637 -0.1301 -0.1416 -0.4271
18371SOL    HW159960   7.380   4.269   1.689  1.2986  1.5209  2.7636
18371SOL    HW259961   7.478   4.336   1.595 -0.8595 -1.1029 -1.6898
18372SOL     OW59962   7.226   3.032   3.763 -0.0828 -0.1142 -0.1987
18372SOL    HW159963   7.309   2.985   3.767  0.5466  0.9077 -0.6417
18372SOL    HW259964   7.248   3.121   3.791 -1.3664 -0.2299  1.3027
18373SOL     OW59965   7.897   2.863   5.165  0.3152  0.0298 -0.2230
18373SOL    HW159966   7.841   2.908   5.228 -0.5471  2.2174 -2.3521
18373SOL    HW259967   7.986   2.875   5.199  0.0398  2.7147 -0.1901
18374SOL     OW59968   6.442   0.459   2.590  0.4291  1.1059 -0.0984
18374SOL    HW159969   6.388   0.388   2.625  1.6954  0.6808  1.0351
18374SOL    HW259970   6.406   0.475   2.502 -0.9186  0.1994  0.2636
18375SOL     OW59971   8.256   3.238   1.091  0.6282  0.0369 -0.0533
18375SOL    HW159972   8.316   3.183   1.141  3.0897  1.4030 -1.2821
18375SOL    HW259973   8.224   3.181   1.021  0.0417 -0.8616  0.9213
18376SOL     OW59974   8.471   2.722   4.107 -0.0133  0.2715 -0.0865
18376SOL    HW159975   8.379   2.713   4.130 -0.0333 -0.2243 -0.3397
18376SOL    HW259976   8.505   2.633   4.106  0.7219  0.5176  0.9815
18377SOL     OW59977   5.400   9.214   1.467  0.0981 -0.0245  0.1681
18377SOL    HW159978   5.464   9.153   1.505 -0.4716  0.5258  2.1202
18377SOL    HW259979   5.429   9.300   1.497 -0.7347  0.3693 -0.1394
18378SOL     OW59980   6.499   3.544   1.556  0.0073 -0.6280  0.4062
18378SOL    HW159981   6.435   3.615   1.565 -0.3550 -1.0664  1.3297
18378SOL    HW259982   6.463   3.489   1.487  1.2633  1.0918 -1.7665
18379SOL     OW59983   5.961   2.654   4.139 -0.2795 -0.0443 -0.4637
18379SOL    HW159984   5.906   2.576   4.128 -0.6368  0.4252 -2.5527
18379SOL    HW259985   6.016   2.656   4.060  0.8157  0.9956  0.2817
18380SOL     OW59986   5.388   3.633   2.653  0.3043 -0.2447 -0.0222
18380SOL    HW159987   5.430   3.641   2.739 -0.5560  0.7869  0.3171
18380SOL    HW259988   5.398   3.719   2.612 -1.0274 -0.1079 -0.1225
18381SOL     OW59989   8.410   1.066   0.770 -0.2816 -0.1830 -0.4891
18381SOL    HW159990   8.488   1.118   0.791 -0.2573  0.3698 -1.8395
18381SOL    HW259991   8.355   1.073   0.848  1.2141 -0.9793  0.6676
18382SOL     OW59992   5.573   1.373   3.034 -0.4973  0.2483  0.5559
18382SOL    HW159993   5.529   1.457   3.049 -0.4699  0.1425  1.3018
18382SOL    HW259994   5.662   1.397   3.006 -1.2097  0.4676 -1.6972
18383SOL     OW59995   6.299   3.655   0.184 -0.1826  0.0683  0.2832
18383SOL    HW159996   6.278   3.643   0.091 -2.1145  0.1644  0.6809
18383SOL    HW259997   6.355   3.580   0.205  0.1696 -0.0329 -0.9192
18384SOL     OW59998   4.964   3.331   0.909  0.0343  0.1691  0.0815
18384SOL    HW159999   5.026   3.309   0.839  0.6457  0.1499  0.6132
18384SOL    HW260000   4.878   3.317   0.871  0.3738 -0.8338 -0.3495
18385SOL     OW60001   7.421   2.831   1.131 -0.1152 -0.1040 -0.8239
18385SOL    HW160002   7.393   2.920   1.151 -2.1353 -0.6164 -1.1396
18385SOL    HW260003   7.464   2.800   1.211 -0.5781  0.7029 -0.2543
18386SOL     OW60004   9.007   2.805   3.027 -0.4606  0.4537 -0.3792
18386SOL    HW160005   8.917   2.795   3.056 -0.1152 -1.3236  0.2108
18386SOL    HW260006   9.056   2.824   3.107 -0.0022 -1.0336 -0.2647
18387SOL     OW60007   8.941   2.748   2.697  0.1594  0.0644 -0.5416
18387SOL    HW160008   8.914   2.735   2.788  0.5862  0.5428 -0.3432
18387SOL    HW260009   8.990   2.668   2.675  1.1933  0.5031  0.0781
18388SOL     OW60010   6.460   3.556   1.866 -0.0339 -0.4437  0.0358
18388SOL    HW160011   6.502   3.472   1.885 -0.1290 -0.1426  1.7556
18388SOL    HW260012   6.460   3.562   1.770  0.5377 -2.1039 -0.0998
18389SOL     OW60013   6.621   0.825   5.020  0.3829  0.6874  0.1018
18389SOL    HW160014   6.658   0.809   4.934  1.4189  2.4589  0.1597
18389SOL    HW260015   6.693   0.809   5.081 -0.4946 -1.0946  0.7140
18390SOL     OW60016   7.133   1.936   3.748 -0.8628  0.2136 -0.3068
18390SOL    HW160017   7.165   1.846   3.746  0.3370  0.6386 -0.9247
18390SOL    HW260018   7.209   1.989   3.773 -1.4592  1.0973 -0.2909
18391SOL     OW60019   8.326   3.234   1.847  0.5481 -0.5496 -0.2320
18391SOL    HW160020   8.259   3.303   1.851  0.1593 -0.9646  0.6135
18391SOL    HW260021   8.407   3.281   1.827  0.0969  0.0194 -0.7840
18392SOL     OW60022   5.812   3.740   4.396 -0.6061 -0.2574 -0.6150
18392SOL    HW160023   5.807   3.670   4.330  0.0439  0.8263 -1.8721
18392SOL    HW260024   5.883   3.797   4.365  0.4956 -0.2857  1.6409
18393SOL     OW60025   3.775   1.950   2.131  0.0655 -0.1602  0.0721
18393SOL    HW160026   3.761   1.873   2.186  0.0759  0.6354  1.2224
18393SOL    HW260027   3.710   2.013   2.161  0.7438  0.6522 -0.1220
18394SOL     OW60028   5.595   0.930   8.758 -0.3018 -0.1930  0.1624
18394SOL    HW160029   5.579   0.994   8.688 -1.0919 -0.5035  0.0575
18394SOL    HW260030   5.517   0.932   8.812  0.1245 -0.2831  0.7877
18395SOL     OW60031   9.092   0.210   1.456 -0.0691 -0.1382  0.0841
18395SOL    HW160032   9.146   0.154   1.401  1.9747  2.2494 -0.5430
18395SOL    HW260033   9.067   0.283   1.399 -1.7723  0.1584  1.1251
18396SOL     OW60034   8.252   2.328   2.463  0.0494  0.5932  0.5187
18396SOL    HW160035   8.229   2.243   2.425  0.0328  1.1602 -0.8223
18396SOL    HW260036   8.346   2.337   2.445  0.2741  0.4182  1.5771
18397SOL     OW60037   7.521   6.841   1.515  0.8484  0.5009 -0.2930
18397SOL    HW160038   7.519   6.849   1.419  2.3612  1.3031 -0.2943
18397SOL    HW260039   7.467   6.915   1.546 -2.1771 -1.4440 -0.4790
18398SOL     OW60040   8.216   3.587   4.105  0.3056 -0.6531  0.4059
18398SOL    HW160041   8.240   3.508   4.154 -3.4038 -2.5548 -0.4643
18398SOL    HW260042   8.230   3.563   4.014  1.5178  0.7003  0.2048
18399SOL     OW60043   5.355   1.617   5.258  0.2316  0.2146  0.0277
18399SOL    HW160044   5.274   1.609   5.207  0.3602  2.5280 -0.6441
18399SOL    HW260045   5.331   1.587   5.346 -1.0943 -0.0430 -0.4006
18400SOL     OW60046   6.853   1.796   2.843 -0.4013  0.4971 -0.1517
18400SOL    HW160047   6.825   1.818   2.754  1.6927  2.0205 -0.5114
18400SOL    HW260048   6.852   1.701   2.846 -1.3128  0.4325 -1.5129
18401SOL     OW60049   5.925   2.518   2.743  0.5510 -0.2021 -0.3660
18401SOL    HW160050   5.840   2.544   2.777  0.0474  1.3246 -2.5827
18401SOL    HW260051   5.907   2.486   2.654  2.3315  0.9608 -1.2093
18402SOL     OW60052   6.448   1.272   2.885  1.2487  0.2309 -0.0785
18402SOL    HW160053   6.537   1.303   2.900  1.9857 -0.2333 -2.7870
18402SOL    HW260054   6.441   1.267   2.789 -0.8493 -2.1060  0.0894
18403SOL     OW60055   4.341   1.846   1.721 -0.0359  0.0321  0.3440
18403SOL    HW160056   4.270   1.785   1.700  0.9601 -0.9749 -0.2215
18403SOL    HW260057   4.297   1.924   1.756 -1.4592 -0.2716 -0.6903
18404SOL     OW60058   7.232   2.599   5.686 -0.2176  0.1387  0.0198
18404SOL    HW160059   7.162   2.621   5.747 -0.2337 -3.4826  1.5185
18404SOL    HW260060   7.204   2.517   5.645  2.3579 -0.5157 -0.6283
18405SOL     OW60061   6.342   3.343   1.385 -0.2001  0.4972 -0.0769
18405SOL    HW160062   6.292   3.262   1.389 -1.1099  0.9849 -0.9598
18405SOL    HW260063   6.382   3.343   1.298 -0.2950  1.0291 -0.1266
18406SOL     OW60064   6.929   3.616   3.229 -0.4966 -0.1827 -0.3312
18406SOL    HW160065   6.959   3.525   3.232 -2.3737 -0.8474 -0.3409
18406SOL    HW260066   6.834   3.610   3.236 -0.6445  1.8112 -0.0752
18407SOL     OW60067   6.182   9.550   1.209  0.0341  0.4566 -0.1115
18407SOL    HW160068   6.211   9.516   1.293  0.7471  1.2103 -0.0401
18407SOL    HW260069   6.169   9.472   1.155  0.0635 -0.0041  0.5381
18408SOL     OW60070   5.633   1.713   2.437  0.4890  0.2655 -0.3550
18408SOL    HW160071   5.684   1.664   2.372  0.4303  0.7976 -0.8104
18408SOL    HW260072   5.694   1.725   2.511  0.9610  0.7136 -0.8087
18409SOL     OW60073   7.693   2.619   2.187  0.0905 -0.4111  0.2554
18409SOL    HW160074   7.660   2.695   2.139  2.1869  0.2696 -0.2449
18409SOL    HW260075   7.765   2.587   2.133 -0.6156 -2.6621  0.5734
18410SOL     OW60076   9.152   3.739   1.773 -0.1752 -0.0393  0.8920
18410SOL    HW160077   9.172   3.822   1.818  0.2048 -0.6190  1.8271
18410SOL    HW260078   9.168   3.672   1.840 -0.2548 -0.8827  0.0727
18411SOL     OW60079   4.738   0.239   3.316 -0.7055  0.5732  0.1204
18411SOL    HW160080   4.734   0.311   3.253 -0.0830  1.6375  1.2316
18411SOL    HW260081   4.700   0.275   3.396 -0.2001 -0.2657  0.7643
18412SOL     OW60082   7.617   1.473   4.119 -0.3564 -0.4532 -0.5226
18412SOL    HW160083   7.620   1.452   4.025  2.0903  1.1152 -0.8999
18412SOL    HW260084   7.598   1.566   4.122  2.5318  0.1960  0.3072
18413SOL     OW60085   6.862   5.430   3.518 -0.3939  0.3296  0.4675
18413SOL    HW160086   6.844   5.503   3.459  0.5941 -0.1261 -0.4388
18413SOL    HW260087   6.866   5.470   3.605 -3.7959  0.7265  0.5776
18414SOL     OW60088   4.560   2.669   3.306  0.2177 -0.0236  0.4927
18414SOL    HW160089   4.529   2.579   3.304  0.8534 -0.2499  0.6991
18414SOL    HW260090   4.481   2.721   3.319 -0.1414 -0.5541  0.4620
18415SOL     OW60091   8.682   4.358   2.373 -0.0131 -0.1605 -0.2288
18415SOL    HW160092   8.657   4.294   2.439  0.0037 -0.6422 -0.6842
18415SOL    HW260093   8.677   4.442   2.418  0.6506 -0.5335  0.5829
18416SOL     OW60094   8.865   0.314   4.761 -0.1340 -0.3478  0.4475
18416SOL    HW160095   8.878   0.407   4.777  1.2223 -0.3581 -0.4185
18416SOL    HW260096   8.845   0.308   4.668  0.2140 -0.9422  0.4012
18417SOL     OW60097   5.153   3.766   3.701  0.6438 -0.3519  0.0348
18417SOL    HW160098   5.213   3.693   3.717  0.3918 -0.3771  0.9364
18417SOL    HW260099   5.209   3.844   3.705  1.3638 -0.5619 -3.2931
18418SOL     OW60100   5.566   1.735   5.370 -0.0428 -0.0410 -0.4321
18418SOL    HW160101   5.511   1.693   5.304 -0.8649  0.2561  0.0487
18418SOL    HW260102   5.556   1.681   5.448  0.9966 -0.4411 -0.5591
18419SOL     OW60103   6.965   0.957   7.509  0.4468  0.6609  0.4250
18419SOL    HW160104   6.930   1.003   7.585 -0.8832 -1.0317  0.8828
18419SOL    HW260105   7.039   0.907   7.543  0.9919  1.3051  0.2138
18420SOL     OW60106   6.872   2.045   6.184 -0.2324  0.6780  0.4064
18420SOL    HW160107   6.786   2.087   6.175 -1.5259 -1.0042  3.4101
18420SOL    HW260108   6.927   2.112   6.224 -0.7919  1.1007  0.4778
18421SOL     OW60109   7.104   2.668   4.675 -0.0007  0.5762 -0.4065
18421SOL    HW160110   7.061   2.679   4.760 -0.3176  1.3213 -0.6500
18421SOL    HW260111   7.098   2.574   4.657 -1.4409  0.6389 -0.3733
18422SOL     OW60112   8.896   1.521   2.348 -0.6059 -0.3359 -0.0871
18422SOL    HW160113   8.922   1.606   2.313 -0.5956 -0.2067  0.2286
18422SOL    HW260114   8.878   1.538   2.441 -0.4711 -0.7050  0.0084
18423SOL     OW60115   6.396   1.236   5.213 -0.1149  0.0002 -0.1087
18423SOL    HW160116   6.348   1.236   5.130  1.0637 -0.2162 -0.8097
18423SOL    HW260117   6.402   1.143   5.237  0.1088  0.0090 -0.1248
18424SOL     OW60118   9.272   0.548   4.507 -0.1453 -0.2107 -0.0623
18424SOL    HW160119   9.235   0.514   4.426  2.5918 -0.0023 -1.5044
18424SOL    HW260120   9.304   0.471   4.553 -1.9923 -0.3663  1.0762
18425SOL     OW60121   7.511   3.987   3.291 -0.0598 -0.4805  0.8243
18425SOL    HW160122   7.483   3.913   3.236  0.5195 -0.6728  0.7754
18425SOL    HW260123   7.595   3.958   3.328  2.3891  1.6752 -2.4308
18426SOL     OW60124   6.052   3.930   4.516  0.1974  0.4422 -0.2065
18426SOL    HW160125   5.979   3.879   4.553  1.8759 -1.0423  1.2398
18426SOL    HW260126   6.010   4.006   4.477 -2.4486 -1.7454 -2.0654
18427SOL     OW60127   7.245   2.554   4.042  0.0441  0.1265 -0.0324
18427SOL    HW160128   7.191   2.565   3.964  0.6485  0.8374 -0.3592
18427SOL    HW260129   7.195   2.493   4.097 -0.2775 -0.5681 -1.0674
18428SOL     OW60130   6.191   2.263   4.337 -0.1158  1.1380 -0.2177
18428SOL    HW160131   6.175   2.246   4.429 -0.5219  0.3727 -0.4205
18428SOL    HW260132   6.257   2.198   4.312  0.2019  1.5258 -0.4015
18429SOL     OW60133   0.302   3.890   7.073 -0.6665  0.1367  0.2999
18429SOL    HW160134   0.209   3.913   7.069 -0.9836 -0.9187  1.2573
18429SOL    HW260135   0.325   3.866   6.983 -2.1288 -2.5428  0.5617
18430SOL     OW60136   5.923   3.524   3.108  0.7054  0.6617 -0.0849
18430SOL    HW160137   5.906   3.587   3.038  0.8516  0.5822 -0.1932
18430SOL    HW260138   6.008   3.486   3.086  0.6669  0.5033  0.0358
18431SOL     OW60139   5.793   2.874   3.406  0.5895 -0.3983 -0.2732
18431SOL    HW160140   5.786   2.944   3.472  0.2442 -0.1106 -0.6155
18431SOL    HW260141   5.880   2.837   3.420  0.2903 -0.7584  0.7622
18432SOL     OW60142   4.153   3.801   1.816 -0.4263  0.1278  0.3383
18432SOL    HW160143   4.072   3.818   1.865 -0.4477 -1.3691  0.8769
18432SOL    HW260144   4.123   3.763   1.734 -0.2923 -3.3827  1.7491
18433SOL     OW60145   3.640   2.401   2.107 -0.0015 -0.0216 -0.2264
18433SOL    HW160146   3.650   2.392   2.013  0.4861 -0.9441 -0.0930
18433SOL    HW260147   3.665   2.316   2.143  1.0017  0.6767  0.8169
18434SOL     OW60148   5.300   2.430   5.282 -0.5293  0.2677  0.6374
18434SOL    HW160149   5.330   2.407   5.194 -0.1912 -1.4893  1.1664
18434SOL    HW260150   5.212   2.393   5.287 -0.7176  0.7553  0.8812
18435SOL     OW60151   5.413   6.866   3.525  0.2035 -0.0537 -0.2099
18435SOL    HW160152   5.392   6.956   3.553  1.2734  0.9332 -2.3512
18435SOL    HW260153   5.437   6.821   3.606 -1.2800  1.2953  1.0544
18436SOL     OW60154   4.008   5.661   3.039  0.4252 -0.0909 -0.1918
18436SOL    HW160155   4.094   5.622   3.058 -0.3201 -2.6676 -1.6009
18436SOL    HW260156   3.960   5.655   3.122  0.2085 -2.7637 -0.4183
18437SOL     OW60157   9.311   0.512   5.400  0.0929 -0.2042 -0.1868
18437SOL    HW160158   9.325   0.458   5.478  0.5578  0.6244  0.3184
18437SOL    HW260159   9.267   0.590   5.432  0.9477  0.4849 -0.6178
18438SOL     OW60160   6.735   4.763   1.863 -0.1126  0.1389  0.0511
18438SOL    HW160161   6.650   4.792   1.896 -0.1517 -0.3212  0.3646
18438SOL    HW260162   6.748   4.813   1.783  0.1299  1.5317  0.9225
18439SOL     OW60163   7.598   3.477   5.177 -0.1402 -0.5132 -0.5186
18439SOL    HW160164   7.666   3.464   5.243  0.5271  0.3579 -1.0129
18439SOL    HW260165   7.634   3.437   5.098  0.5165  1.3047 -1.1937
18440SOL     OW60166   7.409   2.313   9.612  0.2117  0.2413 -0.3663
18440SOL    HW160167   7.315   2.318   9.598  0.2142  1.5868 -0.0296
18440SOL    HW260168   7.434   2.401   9.641  1.2565 -0.6080  1.4789
18441SOL     OW60169   7.608   3.270   4.435  0.2897 -0.2867 -0.0934
18441SOL    HW160170   7.685   3.327   4.429 -0.6183  1.1081  0.7932
18441SOL    HW260171   7.536   3.325   4.405 -0.7622 -0.6666  1.5911
18442SOL     OW60172   6.352   3.362   6.291  0.0774  0.9374  0.3052
18442SOL    HW160173   6.303   3.283   6.314  0.4822  1.1131  1.8978
18442SOL    HW260174   6.426   3.331   6.239  0.9220  0.0871  1.9395
18443SOL     OW60175   6.551   3.603   3.006  0.1019  0.2307  0.1590
18443SOL    HW160176   6.599   3.563   3.080  0.8571  0.7164 -0.0609
18443SOL    HW260177   6.504   3.677   3.045  2.6284  2.1893 -0.2451
18444SOL     OW60178   8.212   2.752   7.366 -0.2709  0.1556 -0.3137
18444SOL    HW160179   8.138   2.749   7.305  0.1356  0.9274 -0.8459
18444SOL    HW260180   8.187   2.818   7.431  0.3458  1.0911 -1.0162
18445SOL     OW60181   6.634   5.998   4.525 -0.0936  0.3871  0.5841
18445SOL    HW160182   6.541   5.998   4.501  0.3845  0.9894 -1.4444
18445SOL    HW260183   6.645   5.918   4.578 -1.3233 -0.9155 -1.0141
18446SOL     OW60184   4.605   2.615   3.897 -0.3665  0.3353  0.2476
18446SOL    HW160185   4.622   2.686   3.959  0.6015  1.4430 -1.1929
18446SOL    HW260186   4.595   2.537   3.951  4.0830  0.5012  1.7775
18447SOL     OW60187   4.854   2.216   4.113 -0.4625  0.1002  0.2833
18447SOL    HW160188   4.844   2.219   4.208 -1.9052 -1.0222  0.2066
18447SOL    HW260189   4.787   2.277   4.080 -1.0227 -0.6717 -0.0339
18448SOL     OW60190   6.498   3.591   9.433 -0.0820 -0.0171  0.5033
18448SOL    HW160191   6.412   3.584   9.390  1.0998  1.7792 -2.4583
18448SOL    HW260192   6.484   3.655   9.503 -0.7760  2.1925 -1.4983
18449SOL     OW60193   7.046   1.706   4.983 -0.3779 -0.1582  0.4706
18449SOL    HW160194   7.112   1.736   4.920 -0.2318  1.6320  1.4116
18449SOL    HW260195   6.983   1.658   4.930 -0.0674  0.9829 -1.0135
18450SOL     OW60196   6.855   1.292   5.368 -0.0134 -0.0870 -0.2450
18450SOL    HW160197   6.927   1.323   5.313 -0.1241  0.8245  0.1086
18450SOL    HW260198   6.857   1.197   5.359  0.9893 -0.0456 -0.5436
18451SOL     OW60199   7.218   5.159   5.270  0.3845 -0.0405  0.6539
18451SOL    HW160200   7.276   5.128   5.339  3.4608  2.9996 -0.2668
18451SOL    HW260201   7.244   5.250   5.256 -2.4942  0.5283 -2.1329
18452SOL     OW60202   6.430   5.454   3.855 -0.2701 -0.1476 -0.0553
18452SOL    HW160203   6.513   5.407   3.844  0.1210  0.5225 -0.0456
18452SOL    HW260204   6.376   5.396   3.909  0.2696 -0.4940  0.1192
18453SOL     OW60205   5.747   3.373   1.130 -0.1916  0.0443 -0.2700
18453SOL    HW160206   5.715   3.458   1.159  0.7002  0.3418 -0.1363
18453SOL    HW260207   5.793   3.390   1.049  1.1507 -0.0871  0.4433
18454SOL     OW60208   5.851   3.421   4.938 -0.3016  0.2291  0.0367
18454SOL    HW160209   5.871   3.329   4.920  0.1829 -0.1055  2.0345
18454SOL    HW260210   5.932   3.468   4.918 -0.0470 -0.0099  0.4864
18455SOL     OW60211   7.004   3.080   3.609  0.0781  0.3889 -0.0729
18455SOL    HW160212   7.059   3.153   3.582  1.1479 -0.0235  0.9183
18455SOL    HW260213   7.031   3.062   3.699 -1.7505  0.2197  0.4742
18456SOL     OW60214   4.940   3.352   5.265 -0.0646 -0.3462  0.0789
18456SOL    HW160215   4.910   3.419   5.204  0.1435  0.2113  0.5732
18456SOL    HW260216   4.989   3.401   5.332  2.1055 -1.2087 -0.7957
18457SOL     OW60217   8.699   2.773   6.452  0.0206 -0.1127  0.0004
18457SOL    HW160218   8.785   2.732   6.450  0.4693  0.5474  2.6586
18457SOL    HW260219   8.638   2.700   6.460  0.5540 -0.4552  1.1075
18458SOL     OW60220   6.195   1.510   4.168  0.5769 -0.1975  0.3124
18458SOL    HW160221   6.167   1.457   4.243 -0.4204 -0.7550 -0.4182
18458SOL    HW260222   6.279   1.547   4.194  1.2012 -1.9776  0.9388
18459SOL     OW60223   6.789   1.250   1.786 -0.4479  0.0253 -0.4365
18459SOL    HW160224   6.866   1.301   1.763 -0.8342  0.2609 -1.2296
18459SOL    HW260225   6.773   1.194   1.710 -1.3366  0.3185 -0.4774
18460SOL     OW60226   5.576   9.507   2.817 -0.2186 -0.1850  0.8399
18460SOL    HW160227   5.527   9.581   2.852 -2.0838 -1.4736  1.0875
18460SOL    HW260228   5.512   9.458   2.765  0.6812 -2.1897  1.5393
18461SOL     OW60229   6.801   3.270   3.572 -0.0040  0.6475 -0.0826
18461SOL    HW160230   6.832   3.321   3.498 -0.4663  0.1606 -0.6221
18461SOL    HW260231   6.860   3.195   3.576 -0.4905  0.2367 -0.4900
18462SOL     OW60232   6.153   4.351   2.867 -0.0109  0.3695 -0.3562
18462SOL    HW160233   6.079   4.304   2.906 -0.0085  0.8349  0.2293
18462SOL    HW260234   6.178   4.299   2.791 -1.7088  0.8421 -1.2855
18463SOL     OW60235   8.551   9.752   5.431 -0.1235 -0.3370 -0.4677
18463SOL    HW160236   8.480   9.807   5.462  0.2926  1.0782 -1.8727
18463SOL    HW260237   8.630   9.789   5.470 -0.0641 -1.5647  0.6496
18464SOL     OW60238   6.149   1.975   5.473  0.1775  0.2240  1.1818
18464SOL    HW160239   6.082   2.026   5.519 -0.6079  1.0891 -0.7944
18464SOL    HW260240   6.101   1.932   5.401  1.5065 -0.2293  0.5302
18465SOL     OW60241   7.365   0.868   4.314  0.4924 -0.0309  0.6018
18465SOL    HW160242   7.340   0.939   4.373 -0.6523 -0.1136  0.2497
18465SOL    HW260243   7.409   0.912   4.241  1.1097  0.1595  1.0795
18466SOL     OW60244   7.269   2.843   5.600  0.2550 -0.0360 -0.2588
18466SOL    HW160245   7.207   2.904   5.640  1.2033  1.6774 -1.2755
18466SOL    HW260246   7.237   2.756   5.625 -2.6960  0.7395 -0.9489
18467SOL     OW60247   6.134   2.578   1.564  0.2946  0.1645 -0.2032
18467SOL    HW160248   6.125   2.673   1.563 -0.2379  0.1198  0.0789
18467SOL    HW260249   6.206   2.560   1.504 -0.7114  0.6208 -1.5946
18468SOL     OW60250   4.688   1.922   5.971  0.2899 -0.4336 -0.1835
18468SOL    HW160251   4.765   1.866   5.983  0.0063 -0.7008  0.4322
18468SOL    HW260252   4.621   1.863   5.936 -0.4727 -0.8618  1.8688
18469SOL     OW60253   6.420   4.182   5.640 -0.2781  0.2070 -0.4973
18469SOL    HW160254   6.339   4.222   5.609  0.0158  1.9015  0.7562
18469SOL    HW260255   6.392   4.109   5.695 -0.8993  0.0535 -1.0113
18470SOL     OW60256   4.773   5.464   3.705 -0.6088 -0.6403 -0.2434
18470SOL    HW160257   4.834   5.494   3.637 -1.4703  1.1222 -0.3043
18470SOL    HW260258   4.799   5.513   3.784  0.6092 -2.9235  0.8633
18471SOL     OW60259   5.229   0.265   3.213  0.5712 -0.7556 -0.0505
18471SOL    HW160260   5.155   0.230   3.263 -0.2702  1.8313  0.6749
18471SOL    HW260261   5.293   0.291   3.280  0.3622  0.7588 -0.4045
18472SOL     OW60262   8.071   2.056   5.104 -0.0334  0.2705 -0.6152
18472SOL    HW160263   8.056   2.062   5.010 -1.2995  2.0896 -0.3483
18472SOL    HW260264   8.166   2.054   5.113  0.1105  0.6507 -1.9080
18473SOL     OW60265   7.713   4.116   3.055 -0.6678 -0.5516 -0.3475
18473SOL    HW160266   7.775   4.083   3.120 -1.5905 -0.5975  0.5368
18473SOL    HW260267   7.751   4.198   3.024 -0.0643 -0.6867  0.0244
18474SOL     OW60268   5.594   2.233   3.741 -0.0341  0.0349  0.2331
18474SOL    HW160269   5.552   2.179   3.674 -1.8162  1.7392 -0.1123
18474SOL    HW260270   5.606   2.175   3.816 -1.1478 -1.0255 -0.3820
18475SOL     OW60271   5.372   0.592   1.438  0.0228 -0.2574  0.4289
18475SOL    HW160272   5.459   0.616   1.407  0.1363  1.9142  2.2122
18475SOL    HW260273   5.312   0.637   1.378  0.0544 -1.6374 -0.7104
18476SOL     OW60274   7.051   3.553   5.699  0.4499 -0.3727  0.1048
18476SOL    HW160275   7.104   3.518   5.628  0.8001  0.6709 -0.1672
18476SOL    HW260276   7.100   3.629   5.730  0.2644 -0.7677  1.4184
18477SOL     OW60277   7.788   1.037   4.541 -0.0843  0.2582 -0.3158
18477SOL    HW160278   7.721   0.979   4.577 -0.4914 -0.2303 -1.7658
18477SOL    HW260279   7.813   0.996   4.458  1.2132  1.0237 -0.3338
18478SOL     OW60280   7.696   7.197   4.727  0.1370  0.0784  0.1618
18478SOL    HW160281   7.692   7.288   4.699  0.8620  0.6017  1.7054
18478SOL    HW260282   7.737   7.152   4.653 -0.7176  0.8700 -0.8402
18479SOL     OW60283   5.474   3.755   3.173 -0.0582 -0.2886  0.0614
18479SOL    HW160284   5.379   3.762   3.162  0.0879 -0.2065 -1.2888
18479SOL    HW260285   5.509   3.838   3.140  0.4808 -0.2640  0.6743
18480SOL     OW60286   4.542   2.490   6.222  0.1440 -0.2202 -0.2310
18480SOL    HW160287   4.595   2.555   6.176 -2.3638  2.0472 -0.2291
18480SOL    HW260288   4.577   2.489   6.311  0.6435  0.6916 -0.3998
18481SOL     OW60289   7.530   9.775   5.233 -0.1995  0.1558 -0.3722
18481SOL    HW160290   7.455   9.810   5.280 -1.3748  1.1336 -2.8093
18481SOL    HW260291   7.576   9.852   5.199  1.0823 -0.4900 -0.1824
18482SOL     OW60292   7.719   1.978   2.767  0.8018  0.3904 -0.1877
18482SOL    HW160293   7.662   2.054   2.770  0.3901  0.0660  0.3570
18482SOL    HW260294   7.761   1.983   2.681  1.6456  1.8400  0.2965
18483SOL     OW60295   5.843   2.391   4.180 -0.0091 -0.5751 -0.0824
18483SOL    HW160296   5.828   2.299   4.205 -5.3438  0.7254  3.0073
18483SOL    HW260297   5.901   2.424   4.249  0.9994 -1.2777 -0.5610
18484SOL     OW60298   5.627   2.500   5.499 -0.2892  0.4595 -0.0375
18484SOL    HW160299   5.715   2.476   5.528  0.0817  1.5039 -0.2699
18484SOL    HW260300   5.624   2.596   5.506 -2.4744  0.3128  3.0491
18485SOL     OW60301   8.258   1.193   6.611  0.2033  0.0483  0.6748
18485SOL    HW160302   8.260   1.128   6.541  0.9989  0.4191  0.3364
18485SOL    HW260303   8.295   1.272   6.572  2.9934 -0.4106  2.1116
18486SOL     OW60304   8.309   2.127   5.569 -0.3304  0.6574  0.7773
18486SOL    HW160305   8.328   2.071   5.644 -0.2512 -1.2631 -0.6037
18486SOL    HW260306   8.394   2.142   5.528 -0.6929 -1.2215 -0.8329
18487SOL     OW60307   9.571   0.654   2.863 -0.1060 -0.5027 -0.2685
18487SOL    HW160308   9.592   0.709   2.787 -0.8437  0.5875  0.2962
18487SOL    HW260309   9.654   0.609   2.882  0.4047  0.0824 -1.0067
18488SOL     OW60310   6.642   2.883   4.449  0.3034  0.5468 -0.5342
18488SOL    HW160311   6.590   2.866   4.370  1.4424  0.4507 -1.2843
18488SOL    HW260312   6.635   2.802   4.500 -1.9480  1.2458  0.3921
18489SOL     OW60313   5.947   3.317   0.912 -0.2026  0.4787  0.0379
18489SOL    HW160314   5.913   3.323   0.823 -0.2371 -1.3138 -0.1118
18489SOL    HW260315   6.039   3.343   0.904 -0.3287  0.8025 -0.4248
18490SOL     OW60316   4.591   0.872   2.777  0.3171  0.1353  0.6920
18490SOL    HW160317   4.592   0.800   2.714 -1.6563 -0.4237  1.2187
18490SOL    HW260318   4.561   0.832   2.859  1.0774  1.1891  1.5134
18491SOL     OW60319   6.117   0.689   2.606  0.1991 -0.1645 -0.0043
18491SOL    HW160320   6.133   0.677   2.512 -0.9748 -0.3485 -0.2009
18491SOL    HW260321   6.064   0.613   2.631 -0.4617  0.4644  0.5493
18492SOL     OW60322   6.363   1.353   5.473 -0.4255  0.7608 -0.4398
18492SOL    HW160323   6.455   1.378   5.480 -0.2766 -0.1446  1.2736
18492SOL    HW260324   6.351   1.332   5.380  0.6347  2.5162 -1.0182
18493SOL     OW60325   4.653   2.104   5.269 -0.5016  0.2121  0.3325
18493SOL    HW160326   4.606   2.169   5.321 -0.3545  0.1483  0.5452
18493SOL    HW260327   4.598   2.090   5.192 -0.1965  1.1095 -0.0652
18494SOL     OW60328   4.206   3.857   4.177 -0.0627  0.1568 -0.7829
18494SOL    HW160329   4.218   3.944   4.217 -0.3816  0.3292 -1.0561
18494SOL    HW260330   4.291   3.815   4.186  0.2728  0.7297 -1.1878
18495SOL     OW60331   7.544   3.791   3.667  0.4873 -0.0912  0.8312
18495SOL    HW160332   7.633   3.780   3.699  0.2678  0.7220  1.7496
18495SOL    HW260333   7.542   3.878   3.628  0.3899 -0.5538 -0.2448
18496SOL     OW60334   6.517   2.860   2.701  0.0528  0.1737  0.0857
18496SOL    HW160335   6.468   2.895   2.626  1.9719  0.6547 -0.9978
18496SOL    HW260336   6.450   2.846   2.769 -1.3605  2.2771 -0.7776
18497SOL     OW60337   7.490   2.483   5.718  0.1830 -0.4740 -0.1489
18497SOL    HW160338   7.474   2.403   5.669 -0.9101 -0.4199  0.1053
18497SOL    HW260339   7.404   2.525   5.725  0.7072  0.6161 -0.1046
18498SOL     OW60340   7.594   0.835   3.398  0.3109  0.1331 -0.5823
18498SOL    HW160341   7.526   0.886   3.354 -0.6157 -0.0465  0.5645
18498SOL    HW260342   7.667   0.895   3.407 -0.4620  1.0134 -0.0023
18499SOL     OW60343   7.828   1.181   6.095 -0.0807 -0.3018 -0.5697
18499SOL    HW160344   7.871   1.132   6.165 -3.4692 -2.1982  0.3791
18499SOL    HW260345   7.794   1.113   6.037 -1.7371  1.0696 -1.2586
18500SOL     OW60346   7.574   1.493   4.478  0.5058  0.1733  0.2438
18500SOL    HW160347   7.550   1.586   4.475  0.7832  0.3679  2.5788
18500SOL    HW260348   7.491   1.447   4.466  0.2814  0.7011 -0.3468
18501SOL     OW60349   8.614   3.311   3.398  0.1113  0.2378 -0.0715
18501SOL    HW160350   8.555   3.255   3.449 -0.8032  0.6683 -0.6374
18501SOL    HW260351   8.659   3.250   3.339  1.7023 -0.3751  1.6641
18502SOL     OW60352   8.034   1.767   4.698  0.1890  0.3833 -0.2202
18502SOL    HW160353   8.068   1.854   4.677 -1.1968  1.5170  1.8364
18502SOL    HW260354   7.971   1.783   4.769 -1.5396 -2.0894 -1.0949
18503SOL     OW60355   6.752   2.008   6.643  0.3004  0.1509 -0.1149
18503SOL    HW160356   6.757   2.102   6.624  1.9726 -0.0713 -0.9501
18503SOL    HW260357   6.797   1.998   6.727  0.2428  0.0877 -0.0917
18504SOL     OW60358   5.202   1.059   5.147  0.2928  0.0761 -0.5482
18504SOL    HW160359   5.218   1.116   5.071 -0.0073 -1.1267 -1.5539
18504SOL    HW260360   5.272   1.081   5.208 -0.3579  2.1708 -0.4907
18505SOL     OW60361   6.203   1.237   6.701 -0.2253  0.4023  0.2850
18505SOL    HW160362   6.264   1.164   6.715 -0.7820  0.2347  2.0261
18505SOL    HW260363   6.202   1.248   6.606  0.5202 -1.3032  0.0313
18506SOL     OW60364   8.339   1.553   4.026  0.1498  0.3569  0.2259
18506SOL    HW160365   8.397   1.564   4.101  0.4675 -0.7458  0.1651
18506SOL    HW260366   8.399   1.542   3.952  0.0757 -3.4378  0.5025
18507SOL     OW60367   3.858   3.333   1.606 -0.2137  0.0470  0.1140
18507SOL    HW160368   3.829   3.251   1.646  1.1829 -1.1426 -1.2206
18507SOL    HW260369   3.943   3.350   1.646  0.0960  0.1359 -0.5700
18508SOL     OW60370   5.450   2.751   2.752 -0.0117  0.4495 -0.3843
18508SOL    HW160371   5.488   2.820   2.697  0.7492 -0.6780 -1.3193
18508SOL    HW260372   5.449   2.674   2.696  1.1347 -0.8412  1.3068
18509SOL     OW60373   7.251   3.549   5.507 -0.4501 -0.5441 -0.2519
18509SOL    HW160374   7.231   3.535   5.415 -0.9068 -0.0350 -0.2387
18509SOL    HW260375   7.284   3.639   5.511  2.2564 -1.4681 -0.3155
18510SOL     OW60376   6.858   6.469   1.584  0.1479 -0.4187 -0.2763
18510SOL    HW160377   6.829   6.458   1.494  1.2761  0.3597 -0.7634
18510SOL    HW260378   6.777   6.471   1.635 -0.6352  0.9769 -1.4877
18511SOL     OW60379   6.452   2.571   4.498 -0.0253 -0.9880  0.7939
18511SOL    HW160380   6.514   2.531   4.437  1.4124  1.6178  0.3699
18511SOL    HW260381   6.379   2.599   4.444  0.3000 -0.5021  0.6020
18512SOL     OW60382   7.803   1.303   4.529 -0.8474 -0.1601 -0.1756
18512SOL    HW160383   7.892   1.324   4.556 -0.9273  0.2083 -0.1940
18512SOL    HW260384   7.784   1.219   4.571 -1.2724  0.7755  1.6555
18513SOL     OW60385   7.444   1.231   5.602 -0.0655 -0.2523  0.0161
18513SOL    HW160386   7.498   1.309   5.611 -0.6152  0.2635 -0.9523
18513SOL    HW260387   7.463   1.199   5.514 -0.0204 -1.0814  0.3209
18514SOL     OW60388   8.511   9.731   4.174  0.2810  0.3941  0.0674
18514SOL    HW160389   8.506   9.657   4.235 -0.1919  1.5065  1.4140
18514SOL    HW260390   8.536   9.691   4.090 -1.5589 -1.5126  0.3524
18515SOL     OW60391   5.421   2.788   5.918 -0.0665  0.5085 -0.4517
18515SOL    HW160392   5.505   2.761   5.882  0.1164 -0.8668  0.8978
18515SOL    HW260393   5.360   2.779   5.845  1.0197  2.2153 -1.6525
18516SOL     OW60394   7.740   2.736   7.218 -0.0749  0.2574  0.1828
18516SOL    HW160395   7.755   2.821   7.258  0.2172  0.3081 -0.0322
18516SOL    HW260396   7.649   2.715   7.239 -0.1155  0.5745  0.3210
18517SOL     OW60397   7.696   3.550   5.930 -0.0093 -0.7309 -0.3531
18517SOL    HW160398   7.616   3.518   5.974 -0.1047 -0.6613 -0.4761
18517SOL    HW260399   7.689   3.645   5.934  0.4922 -0.7223  0.4020
18518SOL     OW60400   6.116   2.269   4.587 -0.4269  0.5599 -0.1987
18518SOL    HW160401   6.082   2.183   4.561 -2.6230  1.6961 -1.4479
18518SOL    HW260402   6.125   2.265   4.682  0.1757 -1.2460 -0.3047
18519SOL     OW60403   5.275   1.340   4.527  0.4484 -0.6553  0.4928
18519SOL    HW160404   5.366   1.322   4.548  1.9933  1.2082 -3.5227
18519SOL    HW260405   5.238   1.256   4.502  1.9766 -1.0565 -0.5462
18520SOL     OW60406   6.459   4.857   3.534  0.4729  0.3875 -0.1891
18520SOL    HW160407   6.377   4.810   3.519  0.7546  0.5825 -3.0163
18520SOL    HW260408   6.519   4.791   3.566 -0.5477  0.0570  1.1040
18521SOL     OW60409   5.617   1.236   6.577 -0.3321  0.1715  0.0653
18521SOL    HW160410   5.640   1.217   6.486 -0.1655 -1.7162  0.4628
18521SOL    HW260411   5.521   1.243   6.576 -0.3503 -0.0761 -0.2156
18522SOL     OW60412   7.848   3.999   7.466 -0.0680 -0.1208 -0.5094
18522SOL    HW160413   7.867   3.931   7.531 -0.7826 -0.1073 -0.2820
18522SOL    HW260414   7.810   3.952   7.392  0.6567 -0.1242 -0.8926
18523SOL     OW60415   7.799   2.771   2.732 -0.3529  0.0530 -0.3205
18523SOL    HW160416   7.804   2.799   2.640  0.4933  0.9740 -0.0169
18523SOL    HW260417   7.783   2.852   2.780  0.6958 -0.1881  0.4670
18524SOL     OW60418   4.364   0.751   4.133 -0.6828  0.0853  0.2443
18524SOL    HW160419   4.301   0.784   4.197 -0.6324 -1.2232  1.0127
18524SOL    HW260420   4.313   0.738   4.053 -0.7050  1.9303 -0.0717
18525SOL     OW60421   8.319   1.225   5.624 -0.3009 -0.9997 -0.1722
18525SOL    HW160422   8.274   1.253   5.704  0.0063 -1.4044  0.1461
18525SOL    HW260423   8.295   1.291   5.559 -0.3440 -0.5250  0.3192
18526SOL     OW60424   2.956   2.592   5.604  0.4403 -0.2512  0.5351
18526SOL    HW160425   2.987   2.607   5.693  0.9817 -1.6964  0.6030
18526SOL    HW260426   2.882   2.652   5.594  0.9417  0.5864  1.6284
18527SOL     OW60427   3.612   4.711   7.342 -0.0526  0.1284 -0.6755
18527SOL    HW160428   3.527   4.697   7.301 -1.1255  2.0420  0.7130
18527SOL    HW260429   3.599   4.689   7.434  0.5249  1.7099 -0.1682
18528SOL     OW60430   4.514   2.367   3.554 -0.0706 -1.1353  0.4656
18528SOL    HW160431   4.464   2.286   3.560  1.0521 -2.0421 -1.5537
18528SOL    HW260432   4.505   2.395   3.462  1.7686 -0.4658  0.4408
18529SOL     OW60433   7.270   4.410   5.843 -0.1484  0.0579 -0.6624
18529SOL    HW160434   7.252   4.479   5.907 -1.2497  0.2812 -1.1854
18529SOL    HW260435   7.280   4.330   5.896 -0.3187  0.3649 -0.1593
18530SOL     OW60436   7.929   1.691   5.262  0.1715 -0.2675 -0.1629
18530SOL    HW160437   7.928   1.604   5.223 -0.4544  1.0431 -3.3902
18530SOL    HW260438   7.950   1.676   5.354  2.2533 -3.6126 -1.0216
18531SOL     OW60439   6.940   3.141   6.726  0.0892  0.2231  0.2732
18531SOL    HW160440   6.954   3.198   6.802 -0.6750 -0.6706  1.1112
18531SOL    HW260441   6.914   3.201   6.656 -0.0759  0.9799  0.9667
18532SOL     OW60442   5.494   3.256   4.114  0.0019  0.0010 -0.0412
18532SOL    HW160443   5.482   3.288   4.203  0.3867 -0.2722  0.1129
18532SOL    HW260444   5.582   3.219   4.114  0.3533  0.8234 -0.7910
18533SOL     OW60445   4.908   2.066   3.098 -0.2398  0.0072  0.1138
18533SOL    HW160446   4.830   2.062   3.042 -0.0981  1.3632 -0.2123
18533SOL    HW260447   4.925   1.975   3.122 -0.9590 -0.4820 -1.1462
18534SOL     OW60448   7.696   4.650   7.976  0.4631 -0.0704 -0.3039
18534SOL    HW160449   7.706   4.728   8.030  0.0668 -1.5691  2.0993
18534SOL    HW260450   7.659   4.682   7.894 -1.8967  2.0326  1.4298
18535SOL     OW60451   5.222   0.199   3.603  0.0224  0.4224  0.2272
18535SOL    HW160452   5.130   0.180   3.583  0.0359 -0.7558  1.1468
18535SOL    HW260453   5.243   0.140   3.675  1.3257  1.1364  0.4553
18536SOL     OW60454   7.564   8.666   4.070 -0.6833 -0.4965 -0.3979
18536SOL    HW160455   7.524   8.752   4.079 -2.6252 -1.3542 -0.3993
18536SOL    HW260456   7.549   8.623   4.154  1.0082 -0.5885 -0.0936
18537SOL     OW60457   4.177   3.364   4.669  0.2617  0.3554  0.6181
18537SOL    HW160458   4.256   3.417   4.656 -0.0886  0.7189 -0.0736
18537SOL    HW260459   4.136   3.361   4.583  0.1541 -0.8644  0.7032
18538SOL     OW60460   8.489   3.367   5.223  0.1184 -0.6504 -0.2328
18538SOL    HW160461   8.436   3.442   5.248 -2.3065 -2.1787 -0.4387
18538SOL    HW260462   8.490   3.310   5.300  1.0188 -0.9223 -0.4229
18539SOL     OW60463   8.225   3.586   4.450 -0.0943  0.2277  0.7005
18539SOL    HW160464   8.132   3.605   4.459  0.0449  1.6294 -0.4487
18539SOL    HW260465   8.229   3.510   4.391 -0.4907  0.5945  0.1997
18540SOL     OW60466   8.054   4.326   4.273  0.2191  0.5779 -0.1736
18540SOL    HW160467   8.079   4.274   4.349 -1.6659  1.4994  1.1355
18540SOL    HW260468   8.073   4.269   4.198 -0.5171 -1.4573  1.1085
18541SOL     OW60469   8.330   2.392   4.869  0.3805 -0.1757 -0.2282
18541SOL    HW160470   8.243   2.430   4.879  0.0156 -1.3441  1.2937
18541SOL    HW260471   8.337   2.371   4.775 -1.5749 -1.4319 -0.1375
18542SOL     OW60472   4.943   3.564   2.251 -0.1945 -0.4504 -0.4151
18542SOL    HW160473   4.965   3.506   2.324  0.2493 -0.3139 -0.4405
18542SOL    HW260474   4.911   3.644   2.292 -0.2004 -0.4737 -0.3748
18543SOL     OW60475   5.563   1.999   4.484 -0.0628  0.2660  0.2501
18543SOL    HW160476   5.484   1.955   4.453  0.6757 -1.4087  0.6282
18543SOL    HW260477   5.530   2.074   4.535 -1.4652 -0.9372  1.2072
18544SOL     OW60478   8.372   2.314   6.705 -0.2581  0.6960 -0.7652
18544SOL    HW160479   8.402   2.231   6.740 -0.9648  0.9887  0.6104
18544SOL    HW260480   8.433   2.379   6.740 -0.3355  0.8773 -0.9611
18545SOL     OW60481   4.847   2.230   6.069  0.1759  0.3963 -0.0705
18545SOL    HW160482   4.905   2.154   6.061  0.3215  0.5843 -0.8571
18545SOL    HW260483   4.835   2.241   6.163 -0.3684 -0.9973  0.0465
18546SOL     OW60484   6.454   1.589   6.189 -0.2623 -0.2515  0.0631
18546SOL    HW160485   6.411   1.667   6.223 -1.9495 -0.8291 -0.6595
18546SOL    HW260486   6.426   1.519   6.247  0.0248 -0.5738 -0.1835
18547SOL     OW60487   6.071   1.875   3.707 -0.3295 -0.6582  0.2546
18547SOL    HW160488   6.000   1.932   3.739 -0.1429 -0.5848  0.5373
18547SOL    HW260489   6.149   1.931   3.707 -0.4973 -0.3569 -1.2640
18548SOL     OW60490   8.075   3.326   3.329 -0.1220 -0.0585  0.0663
18548SOL    HW160491   8.058   3.327   3.423 -2.2832  1.7699 -0.2548
18548SOL    HW260492   8.170   3.320   3.321  0.0821 -0.4214  2.3576
18549SOL     OW60493   8.551   2.899   5.946 -0.2354  0.2226 -0.1237
18549SOL    HW160494   8.541   2.968   6.012  0.8767  1.0289 -0.7672
18549SOL    HW260495   8.461   2.877   5.921 -0.7287 -0.4053  1.9159
18550SOL     OW60496   5.803   1.497   6.833  0.5348 -0.2188 -0.3386
18550SOL    HW160497   5.732   1.515   6.771  0.6618 -0.9651 -0.7116
18550SOL    HW260498   5.847   1.581   6.845 -0.1558  0.1629 -0.4247
18551SOL     OW60499   5.947   4.862   4.496  0.2266  0.5508 -0.2506
18551SOL    HW160500   5.938   4.810   4.576 -0.3089 -0.3975 -0.9153
18551SOL    HW260501   6.003   4.936   4.522 -0.0010  0.2983  1.0106
18552SOL     OW60502   7.323   2.642   5.993  0.0148  0.2506 -0.4768
18552SOL    HW160503   7.239   2.686   6.002  0.1199  0.4815 -0.6299
18552SOL    HW260504   7.309   2.576   5.926  0.7542  2.2801 -2.7966
18553SOL     OW60505   7.983   3.821   3.498  0.0284 -0.0107  0.1306
18553SOL    HW160506   8.037   3.858   3.567  0.4137  1.7031 -1.0355
18553SOL    HW260507   8.027   3.846   3.416 -0.0752 -2.4793 -0.7689
18554SOL     OW60508   7.943   2.314   4.738 -0.0037  0.4196 -0.3469
18554SOL    HW160509   7.991   2.303   4.656  0.4850  1.1038 -0.1727
18554SOL    HW260510   8.001   2.369   4.791 -0.6889  0.6899  0.1310
18555SOL     OW60511   5.774   0.876   6.004  0.1356 -0.1273  0.5290
18555SOL    HW160512   5.693   0.832   6.029  0.1032 -0.4988 -0.2127
18555SOL    HW260513   5.762   0.967   6.033 -1.8520  0.6283 -2.2945
18556SOL     OW60514   7.939   3.203   9.079  0.5409 -0.0624  1.2057
18556SOL    HW160515   7.998   3.160   9.018  2.1080  1.5797  1.4850
18556SOL    HW260516   7.853   3.198   9.036  1.6886  1.6918 -1.5973
18557SOL     OW60517   6.903   3.223   5.097  0.1512  0.4170 -0.0197
18557SOL    HW160518   6.913   3.140   5.050  3.2494  0.4868  0.2890
18557SOL    HW260519   6.933   3.289   5.035 -0.4360  1.0900  0.4040
18558SOL     OW60520   6.457   3.662   4.257  0.2404  0.5470  0.2111
18558SOL    HW160521   6.428   3.574   4.233 -1.5664  1.6005 -1.8366
18558SOL    HW260522   6.398   3.688   4.328  1.4720 -0.2557  1.5549
18559SOL     OW60523   8.870   2.400   4.954  0.0954 -0.7700 -0.2021
18559SOL    HW160524   8.934   2.441   4.896 -0.3863 -1.8986 -1.5818
18559SOL    HW260525   8.921   2.336   5.005  0.5851  0.4789  0.9336
18560SOL     OW60526   2.400   1.818   5.077  0.3931 -0.0270  0.3334
18560SOL    HW160527   2.325   1.849   5.028  1.4220  0.0186 -1.2764
18560SOL    HW260528   2.370   1.814   5.168 -2.1078 -1.7598 -0.4751
18561SOL     OW60529   5.080   0.695   3.793 -0.2004  0.1669 -0.2096
18561SOL    HW160530   5.147   0.694   3.724 -0.5005 -0.2287 -0.4976
18561SOL    HW260531   5.129   0.682   3.874  0.2765  1.6154 -0.2315
18562SOL     OW60532   6.518   2.203   2.142 -0.5451  0.5570  0.1442
18562SOL    HW160533   6.498   2.243   2.226  1.5462 -0.0746  1.0186
18562SOL    HW260534   6.600   2.244   2.114  1.2587 -2.3162  0.6924
18563SOL     OW60535   6.238   4.312   4.547  0.0049  0.1961 -0.1288
18563SOL    HW160536   6.211   4.254   4.476  0.3455 -0.3334  0.1716
18563SOL    HW260537   6.251   4.254   4.622  3.0119  0.2290 -0.4911
18564SOL     OW60538   7.769   2.603   2.965  0.4983 -0.0702 -0.1112
18564SOL    HW160539   7.826   2.654   3.022  0.5233  0.1689 -0.3473
18564SOL    HW260540   7.759   2.657   2.886 -1.1560  0.5305  0.4634
18565SOL     OW60541   3.466   2.470   5.119  0.4856  0.0689  0.2402
18565SOL    HW160542   3.465   2.474   5.215 -1.0261  0.5438  0.2301
18565SOL    HW260543   3.472   2.562   5.091  1.8935 -0.1198 -0.1395
18566SOL     OW60544   6.624   0.497   6.328  0.1477  0.4670  0.7922
18566SOL    HW160545   6.686   0.528   6.261  1.8923 -0.4705  1.8958
18566SOL    HW260546   6.678   0.448   6.389 -1.4942  0.7825  2.5884
18567SOL     OW60547   6.987   2.185   2.477 -0.1764  0.0003  0.4348
18567SOL    HW160548   7.003   2.209   2.569  0.5226 -0.2651  0.3864
18567SOL    HW260549   7.074   2.170   2.441 -0.5052 -0.9399  0.0088
18568SOL     OW60550   8.117   5.672   2.441  0.5773 -0.2022 -0.0862
18568SOL    HW160551   8.077   5.615   2.376  2.3036 -2.0493  0.3630
18568SOL    HW260552   8.062   5.664   2.518 -0.4327  0.5372 -0.7056
18569SOL     OW60553   7.391   3.586   3.717 -0.2031 -0.6962  0.1885
18569SOL    HW160554   7.443   3.662   3.690 -1.4409  0.5948  1.2677
18569SOL    HW260555   7.455   3.515   3.721  1.0139  0.2696 -0.8282
18570SOL     OW60556   5.592   0.720   4.286 -0.2573 -0.4371  0.6454
18570SOL    HW160557   5.592   0.801   4.236 -0.1235 -0.2975  0.8673
18570SOL    HW260558   5.620   0.653   4.224  1.6448  0.0057  0.9385
18571SOL     OW60559   7.712   2.647   5.747 -0.6038 -0.6125  0.0407
18571SOL    HW160560   7.623   2.612   5.745 -1.1784  0.7777 -1.1650
18571SOL    HW260561   7.766   2.576   5.782 -2.1698 -1.4969  0.7610
18572SOL     OW60562   4.203   4.132   1.291 -0.0857  0.3152  0.6794
18572SOL    HW160563   4.123   4.086   1.265  0.4582 -0.3163  0.0722
18572SOL    HW260564   4.233   4.086   1.370 -0.5852  0.8673  1.1923
18573SOL     OW60565   4.941   9.433   6.524  0.5184  0.0502  1.0647
18573SOL    HW160566   4.898   9.518   6.531 -0.3849 -0.3692  0.7902
18573SOL    HW260567   4.973   9.414   6.612  1.2113  0.9161  1.0067
18574SOL     OW60568   9.366   2.859   6.151  0.0726  0.7263  0.0543
18574SOL    HW160569   9.453   2.836   6.184 -0.3031 -0.2173  0.4121
18574SOL    HW260570   9.380   2.877   6.058  0.8508  1.7839  0.3441
18575SOL     OW60571   6.134   2.243   3.901  0.2614  0.2586  0.7802
18575SOL    HW160572   6.147   2.303   3.828 -1.1909  0.8230  0.9480
18575SOL    HW260573   6.039   2.241   3.914  0.2180 -2.3686  0.5434
18576SOL     OW60574   4.357   5.309   0.944 -0.5960  0.8739 -0.3785
18576SOL    HW160575   4.298   5.310   0.869 -1.6075  0.8897  0.4012
18576SOL    HW260576   4.311   5.258   1.011  1.3298 -1.3326 -0.5693
18577SOL     OW60577   8.413   2.931   2.807 -0.0074 -0.2872  0.2696
18577SOL    HW160578   8.414   3.020   2.842 -0.8305  0.2767 -1.0714
18577SOL    HW260579   8.496   2.922   2.761  1.4324 -1.2961  2.8478
18578SOL     OW60580   8.756   1.608   2.591  0.3340 -0.2163  0.3558
18578SOL    HW160581   8.743   1.629   2.683  0.8388  1.6248  0.0427
18578SOL    HW260582   8.693   1.538   2.574 -0.4423  0.0635  1.8598
18579SOL     OW60583   6.442   1.109   5.885  0.2243 -0.0656 -0.2933
18579SOL    HW160584   6.500   1.182   5.862  1.1966 -0.2043  1.4841
18579SOL    HW260585   6.458   1.095   5.979 -1.1937 -1.4670 -0.2204
18580SOL     OW60586   5.265   3.861   5.157  0.2946  0.2285  0.3688
18580SOL    HW160587   5.259   3.809   5.077  0.7546  0.4072  0.2132
18580SOL    HW260588   5.174   3.877   5.182  0.0410  2.6037 -1.6856
18581SOL     OW60589   5.145   3.413   4.628  0.2180  0.7513 -0.0211
18581SOL    HW160590   5.097   3.341   4.668  1.8376 -0.6271 -0.4671
18581SOL    HW260591   5.109   3.420   4.539  0.1302  0.4414 -0.0092
18582SOL     OW60592   5.227   1.849   3.341  0.0707  0.1065  0.0691
18582SOL    HW160593   5.159   1.809   3.287  1.2686  1.0252 -2.3059
18582SOL    HW260594   5.266   1.777   3.390  0.0413 -1.1079 -1.6235
18583SOL     OW60595   4.097   1.577   3.580  0.7985 -0.0267  0.1646
18583SOL    HW160596   4.168   1.517   3.559  0.6703 -0.7959  1.7924
18583SOL    HW260597   4.052   1.536   3.654 -0.4874  1.1332  0.0663
18584SOL     OW60598   7.286   3.654   5.048 -0.2624  0.4009 -0.4601
18584SOL    HW160599   7.358   3.694   5.097  0.8237 -0.8091 -1.0209
18584SOL    HW260600   7.255   3.582   5.104  0.7974 -0.8078 -1.3712
18585SOL     OW60601   6.166   1.697   3.490  0.3162  0.1150  0.4171
18585SOL    HW160602   6.095   1.737   3.540  0.7534  0.3196  0.8808
18585SOL    HW260603   6.131   1.613   3.462  0.4268 -0.4673  1.9460
18586SOL     OW60604   7.305   2.103   4.973 -0.8069  0.4638 -0.8430
18586SOL    HW160605   7.317   2.194   4.949 -0.5419  0.9063  0.8481
18586SOL    HW260606   7.347   2.095   5.059 -0.8973 -1.2258 -0.9235
18587SOL     OW60607   4.515   3.504   9.194  0.4321 -0.1147  0.1067
18587SOL    HW160608   4.581   3.571   9.213 -0.9157  1.6674 -1.1596
18587SOL    HW260609   4.470   3.489   9.277 -0.3787  1.8753  0.0666
18588SOL     OW60610   4.920   2.970   1.730 -0.6175  0.2778 -0.4588
18588SOL    HW160611   4.912   3.049   1.677  2.0026 -0.0456 -1.4622
18588SOL    HW260612   4.884   2.900   1.675  1.4099  0.0668 -1.6195
18589SOL     OW60613   6.343   3.971   1.152  0.0510  0.4234  0.1694
18589SOL    HW160614   6.358   4.033   1.223 -2.1359 -0.3507  1.3887
18589SOL    HW260615   6.328   4.026   1.075 -2.1337  1.5250  1.2770
18590SOL     OW60616   6.883   0.981   3.860 -0.7253  0.3370  0.3362
18590SOL    HW160617   6.885   1.071   3.826  2.1560  0.9172  1.7547
18590SOL    HW260618   6.853   0.991   3.950 -0.1484 -0.0674  0.5768
18591SOL     OW60619   4.489   3.383   3.836 -0.3124 -0.8526 -0.2001
18591SOL    HW160620   4.490   3.290   3.856  1.3197 -0.8011  0.0778
18591SOL    HW260621   4.578   3.413   3.853 -1.5896  1.5538  3.3352
18592SOL     OW60622   6.505   0.807   5.440 -0.1590  0.2861 -0.2660
18592SOL    HW160623   6.497   0.857   5.521 -1.8497 -1.5430  0.7833
18592SOL    HW260624   6.592   0.767   5.445  0.4402  1.5428 -0.2165
18593SOL     OW60625   5.780   3.726   5.033 -0.1495 -0.0097  0.2262
18593SOL    HW160626   5.700   3.761   4.993  0.1585  0.7583  0.2472
18593SOL    HW260627   5.751   3.653   5.086 -0.6363 -0.7902 -1.0548
18594SOL     OW60628   6.806   2.932   4.717  0.1699  0.1809 -0.5819
18594SOL    HW160629   6.885   2.979   4.742 -0.7831  1.4206  0.2609
18594SOL    HW260630   6.831   2.840   4.716  2.0570  0.6485 -2.0548
18595SOL     OW60631   8.681   2.375   6.219  0.4527 -0.1380 -0.2649
18595SOL    HW160632   8.678   2.467   6.243 -0.8500 -0.4518  0.9266
18595SOL    HW260633   8.650   2.373   6.128  0.9380  0.6369 -0.4500
18596SOL     OW60634   7.733   5.711   5.465 -0.6702 -0.3803 -0.2642
18596SOL    HW160635   7.768   5.782   5.411  0.0469 -0.9826 -0.6019
18596SOL    HW260636   7.653   5.684   5.420 -1.1707  0.4731  0.0848
18597SOL     OW60637   5.061   2.843   4.713 -0.1702  0.1396  0.6811
18597SOL    HW160638   5.023   2.930   4.703 -0.4752 -0.0959 -0.3333
18597SOL    HW260639   5.155   2.857   4.711 -0.1945  0.2763 -1.4548
18598SOL     OW60640   4.394   0.256   3.148 -0.0401  0.1624 -0.1895
18598SOL    HW160641   4.368   0.343   3.179  2.3149  0.9325 -0.2071
18598SOL    HW260642   4.476   0.270   3.101 -0.4235 -1.8639 -1.6079
18599SOL     OW60643   4.877   9.561   3.701  0.1845  0.1988 -0.7398
18599SOL    HW160644   4.816   9.540   3.772 -0.1602  0.3485 -0.9864
18599SOL    HW260645   4.821   9.575   3.625  0.5938 -0.6087 -1.1991
18600SOL     OW60646   7.208   2.001   4.205 -0.2342 -0.7562 -0.3147
18600SOL    HW160647   7.190   1.952   4.125  1.6758  1.3289 -2.1678
18600SOL    HW260648   7.288   1.961   4.240  0.8152  0.3451 -1.3404
18601SOL     OW60649   8.515   2.080   2.961  0.3642  0.3790 -0.0023
18601SOL    HW160650   8.429   2.073   3.002  0.0898 -0.1734 -0.6611
18601SOL    HW260651   8.576   2.080   3.035 -0.2923  3.3234  0.6367
18602SOL     OW60652   6.135   5.652   3.204 -0.1701 -0.2398  0.0942
18602SOL    HW160653   6.102   5.591   3.270 -0.9663  0.0847  0.0096
18602SOL    HW260654   6.228   5.661   3.224  0.0609 -1.7959 -0.1480
18603SOL     OW60655   6.713   5.217   3.420  0.3196  0.1606  0.4756
18603SOL    HW160656   6.748   5.306   3.428 -2.2978  1.2170  1.2376
18603SOL    HW260657   6.728   5.178   3.506  0.6612  0.1654  0.4216
18604SOL     OW60658   5.647   2.372   3.224  0.1344  0.3113  0.5520
18604SOL    HW160659   5.604   2.431   3.286 -1.0272  0.5580 -0.4463
18604SOL    HW260660   5.735   2.408   3.214 -0.5119  1.8436  0.0537
18605SOL     OW60661   6.755   2.825   3.297 -0.5929 -0.3829  0.1086
18605SOL    HW160662   6.718   2.913   3.293 -2.0194 -0.9942 -1.8645
18605SOL    HW260663   6.825   2.831   3.361 -1.4387  1.8834  0.9209
18606SOL     OW60664   6.771   4.203   5.772  0.2063  0.5459 -0.0462
18606SOL    HW160665   6.729   4.269   5.717 -0.2633  1.8849  1.8133
18606SOL    HW260666   6.700   4.143   5.796  0.2040  0.5280 -0.0971
18607SOL     OW60667   6.701   1.722   6.285 -0.3636  0.6391 -0.5479
18607SOL    HW160668   6.654   1.650   6.243  1.6971 -0.3087 -1.3910
18607SOL    HW260669   6.645   1.749   6.358 -2.0056 -0.6226 -1.2881
18608SOL     OW60670   2.483   3.169   2.077  0.1385 -0.5427 -0.4262
18608SOL    HW160671   2.530   3.178   2.160  2.7180 -1.3910 -1.6944
18608SOL    HW260672   2.400   3.127   2.101  0.1810  0.5351  1.8578
18609SOL     OW60673   7.026   2.786   5.292 -0.0002 -0.1736 -0.4058
18609SOL    HW160674   6.953   2.757   5.348  0.5712 -0.1178  0.3855
18609SOL    HW260675   6.993   2.865   5.249 -1.2103 -1.3792 -1.8073
18610SOL     OW60676   8.045   0.360   4.172  0.2699 -0.2408 -0.6355
18610SOL    HW160677   8.077   0.451   4.174 -2.3977  0.8060 -1.3817
18610SOL    HW260678   7.967   0.363   4.117 -0.5578 -2.7835  0.2514
18611SOL     OW60679   5.176   4.997   3.871  0.7914  0.7424 -0.0388
18611SOL    HW160680   5.266   4.986   3.902  0.6318  0.3394  0.2899
18611SOL    HW260681   5.135   5.053   3.936  0.4235 -0.1998  0.5683
18612SOL     OW60682   6.223   1.938   6.576  0.3369 -0.0624  0.5260
18612SOL    HW160683   6.260   1.994   6.508  3.0620 -0.4942  1.5239
18612SOL    HW260684   6.181   1.998   6.637  2.2668  0.8870  1.0097
18613SOL     OW60685   3.938   1.080   5.402  0.8704 -0.4842  0.4980
18613SOL    HW160686   3.847   1.051   5.416  0.6848 -0.3420 -0.3734
18613SOL    HW260687   3.970   1.100   5.490  0.5378 -1.9523  0.9874
18614SOL     OW60688   5.437   0.713   5.060 -0.1237 -0.1981 -0.3361
18614SOL    HW160689   5.498   0.750   4.996 -0.4900  1.3762  0.1782
18614SOL    HW260690   5.358   0.693   5.010  0.3130 -0.9284 -0.7438
18615SOL     OW60691   7.067   2.268   2.740 -0.4147  0.7355 -0.4137
18615SOL    HW160692   7.021   2.346   2.771  0.3885  0.2211  2.3787
18615SOL    HW260693   7.071   2.211   2.817 -0.0605 -1.6462 -2.0878
18616SOL     OW60694   4.841   2.270   4.379  0.6756  0.1230 -0.6706
18616SOL    HW160695   4.844   2.304   4.469 -0.3701  0.1794 -0.6397
18616SOL    HW260696   4.850   2.175   4.389  2.4198  0.2470 -0.6686
18617SOL     OW60697   5.238   1.027   4.534 -0.0461 -0.4127 -0.2742
18617SOL    HW160698   5.273   0.964   4.471  0.8788 -0.0538 -0.1355
18617SOL    HW260699   5.309   1.041   4.596 -0.9936 -0.8823  0.9631
18618SOL     OW60700   8.582   2.984   3.752  0.0160 -0.6760  0.1729
18618SOL    HW160701   8.580   3.079   3.764  3.1535 -0.4689 -0.1358
18618SOL    HW260702   8.511   2.967   3.690 -2.2998  1.0391  2.1409
18619SOL     OW60703   7.241   1.150   4.944 -0.1306  0.0898 -0.0818
18619SOL    HW160704   7.256   1.060   4.916 -1.1950  0.1964 -1.1023
18619SOL    HW260705   7.305   1.165   5.014  0.1251 -1.4130  0.0407
18620SOL     OW60706   7.901   0.308   1.744  0.1276 -0.4349 -0.4500
18620SOL    HW160707   7.921   0.240   1.680  0.9996 -0.2880 -0.3483
18620SOL    HW260708   7.978   0.312   1.800 -0.5894 -0.4960  0.5681
18621SOL     OW60709   3.437   3.320   2.667 -0.2937 -0.8615  0.1129
18621SOL    HW160710   3.481   3.243   2.703  0.0938 -1.4614 -1.5345
18621SOL    HW260711   3.504   3.388   2.666 -0.4642 -0.6753  1.0105
18622SOL     OW60712   4.346   2.734   1.474  0.5911 -0.0217  0.0157
18622SOL    HW160713   4.279   2.797   1.448 -0.1315 -0.7584  0.0219
18622SOL    HW260714   4.296   2.662   1.514  1.5238  0.3456  1.9590
18623SOL     OW60715   6.395   2.654   6.577 -0.3792  0.2804 -0.2226
18623SOL    HW160716   6.450   2.584   6.541 -1.0842 -0.6897  0.5442
18623SOL    HW260717   6.455   2.707   6.629 -0.4714 -2.1510  2.6488
18624SOL     OW60718   6.569   2.380   5.159  0.1222  0.0373 -0.2472
18624SOL    HW160719   6.646   2.327   5.177  0.3505  1.0247  2.0283
18624SOL    HW260720   6.501   2.345   5.217 -0.0716  1.4034  0.3898
18625SOL     OW60721   4.797   1.033   6.946 -0.2681 -0.0818 -0.2476
18625SOL    HW160722   4.720   0.985   6.914 -0.7559 -0.5285  1.5266
18625SOL    HW260723   4.831   1.078   6.868 -2.2878  0.0771 -1.0956
18626SOL     OW60724   7.070   2.126   5.169  0.1516 -0.1400 -0.1476
18626SOL    HW160725   7.137   2.189   5.197  0.6245 -0.8753  0.4051
18626SOL    HW260726   7.108   2.081   5.094  1.0749 -1.8527  1.2918
18627SOL     OW60727   6.581   1.827   5.566  0.3369 -0.4637 -0.3200
18627SOL    HW160728   6.515   1.778   5.516 -0.7763  1.1945 -0.5498
18627SOL    HW260729   6.640   1.760   5.599  0.0266 -1.7936 -2.2733
18628SOL     OW60730   6.824   2.795   5.503  0.2404 -0.0009  0.0775
18628SOL    HW160731   6.907   2.779   5.548 -0.2715  1.9907  1.9398
18628SOL    HW260732   6.823   2.890   5.489 -1.4447 -0.0746 -0.4866
18629SOL     OW60733   6.176   1.587   5.536  0.3510 -0.7355  0.3950
18629SOL    HW160734   6.240   1.658   5.536  0.3526 -0.7338  0.7102
18629SOL    HW260735   6.227   1.508   5.522  0.1085 -0.4940 -2.5523
18630SOL     OW60736   7.406   2.171   5.989 -0.0131 -0.0843 -0.1742
18630SOL    HW160737   7.410   2.121   5.908 -0.8642  0.5087 -0.6073
18630SOL    HW260738   7.317   2.157   6.021  0.2636 -0.1720  0.5677
18631SOL     OW60739   5.467   4.140   6.967  0.0532  0.8820  0.2648
18631SOL    HW160740   5.410   4.146   6.890  1.3112  0.9489 -0.6995
18631SOL    HW260741   5.445   4.216   7.020 -0.3876  1.1893 -0.3537
18632SOL     OW60742   5.855   1.740   7.237 -0.7688 -0.0318  0.4559
18632SOL    HW160743   5.851   1.655   7.194  2.2756 -0.0473 -0.0194
18632SOL    HW260744   5.941   1.741   7.280 -1.1629  2.3893  1.3563
18633SOL     OW60745   6.894   2.078   5.402  0.2787  0.4149 -0.4597
18633SOL    HW160746   6.921   2.113   5.317 -0.8244 -0.1135 -1.0473
18633SOL    HW260747   6.972   2.084   5.457  1.4593 -0.6656 -1.9629
18634SOL     OW60748   4.040   1.595   6.801  0.6753 -0.9708 -0.0846
18634SOL    HW160749   4.023   1.682   6.765 -2.9389 -1.3430  0.3069
18634SOL    HW260750   4.086   1.549   6.731  0.1739  0.4448 -1.4038
18635SOL     OW60751   7.944   2.824   6.534 -0.2903 -0.3641  0.0173
18635SOL    HW160752   7.960   2.757   6.600  0.3199  0.0925  0.3453
18635SOL    HW260753   7.873   2.877   6.571 -1.8782 -1.7227 -0.9364
18636SOL     OW60754   8.067   3.635   9.020 -0.2235 -0.0787 -0.0379
18636SOL    HW160755   8.064   3.550   9.064 -1.5612 -0.3138 -0.5327
18636SOL    HW260756   8.154   3.638   8.981  0.7587 -0.1402  2.0207
18637SOL     OW60757   4.819   2.825   7.135  0.7065 -0.1252  0.0361
18637SOL    HW160758   4.733   2.808   7.175  0.4048  1.5151  0.1440
18637SOL    HW260759   4.840   2.744   7.089 -0.2822 -1.0390  1.1058
18638SOL     OW60760   8.396   4.081   3.196  0.5433 -0.3887 -0.3962
18638SOL    HW160761   8.319   4.116   3.241  0.1620  0.5914 -1.7586
18638SOL    HW260762   8.360   4.023   3.129  1.1111 -1.8716  0.5259
18639SOL     OW60763   6.222   3.245   4.499 -0.3534  0.7058 -0.3041
18639SOL    HW160764   6.197   3.181   4.432 -0.3805  0.0617  0.3096
18639SOL    HW260765   6.255   3.192   4.571  0.9166  1.4475 -0.3064
18640SOL     OW60766   8.536   1.086   9.523 -0.2656  0.5461 -0.4094
18640SOL    HW160767   8.482   1.030   9.580 -2.2790 -0.4796 -3.1353
18640SOL    HW260768   8.472   1.137   9.472  1.4046  0.9098 -2.2439
18641SOL     OW60769   6.069   1.497   6.665  0.0610  0.0001  0.0717
18641SOL    HW160770   5.981   1.525   6.642  0.0945 -0.1804 -0.2980
18641SOL    HW260771   6.057   1.416   6.715  0.0267 -0.2408 -0.3174
18642SOL     OW60772   6.666   2.034   4.364  0.0992  0.1775  0.0623
18642SOL    HW160773   6.661   1.949   4.320  0.3115 -0.6371  1.5687
18642SOL    HW260774   6.741   2.078   4.323  1.0457 -1.0504  0.4088
18643SOL     OW60775   4.629   5.132   8.474  0.8020  0.4267  0.2311
18643SOL    HW160776   4.702   5.189   8.449  0.8815  0.2780  0.1302
18643SOL    HW260777   4.552   5.189   8.468  0.7531  0.2613 -0.8346
18644SOL     OW60778   6.301   2.636   5.747 -0.6335  0.4097 -0.2985
18644SOL    HW160779   6.220   2.616   5.700 -0.5872  0.1736 -0.2807
18644SOL    HW260780   6.359   2.671   5.679 -0.4306 -0.3028 -0.5101
18645SOL     OW60781   9.723   0.896   7.679  0.0123 -0.6561  0.5078
18645SOL    HW160782   9.814   0.924   7.687 -0.1424  0.4198 -0.9148
18645SOL    HW260783   9.716   0.866   7.588 -0.8625 -1.4903  0.8355
18646SOL     OW60784   4.208   2.611   6.000  0.6386 -0.2980  0.3069
18646SOL    HW160785   4.122   2.637   6.033  0.1799 -2.2365  0.7112
18646SOL    HW260786   4.249   2.564   6.072  1.2530 -1.1088 -0.5446
18647SOL     OW60787   5.357   3.286   4.738  0.1790 -0.0705 -0.1719
18647SOL    HW160788   5.300   3.344   4.688  0.9770  0.7075 -0.2125
18647SOL    HW260789   5.334   3.198   4.708 -1.8160  0.1139  0.6853
18648SOL     OW60790   5.223   2.646   5.739  0.3654  0.3943 -0.2156
18648SOL    HW160791   5.181   2.564   5.762 -2.2368  1.4106 -1.0524
18648SOL    HW260792   5.272   2.627   5.659  1.3362 -0.7280  0.6053
18649SOL     OW60793   6.873   3.240   5.681  0.3391 -0.0556  0.1202
18649SOL    HW160794   6.966   3.260   5.685  0.3841 -0.2053 -0.1579
18649SOL    HW260795   6.833   3.298   5.746  0.0621  3.1340 -2.6131
18650SOL     OW60796   6.587   3.823   6.766 -0.1382 -0.5555  0.2361
18650SOL    HW160797   6.538   3.805   6.846  2.6705 -0.5725  2.0806
18650SOL    HW260798   6.584   3.918   6.756 -0.1060 -0.5107  0.6559
18651SOL     OW60799   4.780   1.640   5.227 -0.2338  0.6884 -0.4387
18651SOL    HW160800   4.826   1.658   5.144  0.5557  0.3434 -0.0883
18651SOL    HW260801   4.790   1.721   5.277 -2.8730  1.8532 -1.6026
18652SOL     OW60802   6.887   4.576   7.096  0.1524 -0.9487  0.2713
18652SOL    HW160803   6.949   4.563   7.024  0.6133  0.2096  0.4438
18652SOL    HW260804   6.863   4.487   7.123  1.9487 -1.4319  0.3896
18653SOL     OW60805   5.525   3.887   4.944  0.3565 -0.7592 -0.8153
18653SOL    HW160806   5.522   3.841   5.028  0.1882  1.2875  0.3844
18653SOL    HW260807   5.461   3.842   4.889 -2.7382  0.3351  1.5882
18654SOL     OW60808   9.210   4.402   5.418 -0.5713 -0.1784  0.5246
18654SOL    HW160809   9.144   4.448   5.366  0.1071  1.7634  1.2822
18654SOL    HW260810   9.222   4.457   5.495  0.1393 -1.7821  1.6190
18655SOL     OW60811   7.316   1.782   7.028 -1.0057  0.3428  0.5122
18655SOL    HW160812   7.338   1.845   6.960 -0.9698 -0.9415 -0.7099
18655SOL    HW260813   7.369   1.809   7.104 -1.1379  1.8661  0.0894
18656SOL     OW60814   6.666   1.559   5.995 -0.1432 -0.2972 -0.0898
18656SOL    HW160815   6.711   1.480   5.966  1.5169 -0.3320  2.3171
18656SOL    HW260816   6.607   1.530   6.064 -0.1963  0.4416  0.1916
18657SOL     OW60817   7.511   4.901   9.391 -0.0942 -0.6946 -0.6637
18657SOL    HW160818   7.564   4.921   9.468 -1.4915  0.9390 -0.0787
18657SOL    HW260819   7.575   4.893   9.320  1.0338 -0.0272  0.2468
18658SOL     OW60820   4.812   3.065   5.934  0.5816 -0.4497 -0.2900
18658SOL    HW160821   4.717   3.058   5.943  0.3362 -0.0830 -2.1128
18658SOL    HW260822   4.840   2.975   5.918  0.7471 -0.7669  1.6107
18659SOL     OW60823   8.341   5.454   3.436  0.4671  0.5774 -0.2199
18659SOL    HW160824   8.393   5.374   3.441  2.3428  1.7331 -0.5210
18659SOL    HW260825   8.313   5.470   3.526 -1.7676 -1.5066 -0.4338
18660SOL     OW60826   7.192   0.826   5.394  0.2946  0.6828  0.5985
18660SOL    HW160827   7.162   0.781   5.315  2.0843  1.0504 -0.3608
18660SOL    HW260828   7.120   0.819   5.455 -0.5599 -0.9706 -0.5360
18661SOL     OW60829   6.165   1.700   7.149  0.1470  0.4863 -0.2538
18661SOL    HW160830   6.212   1.776   7.116  0.2839  0.0224 -1.1788
18661SOL    HW260831   6.206   1.625   7.105 -1.2301  0.0387 -0.8424
18662SOL     OW60832   5.697   3.070   4.057 -0.0488 -0.2720 -0.3225
18662SOL    HW160833   5.736   3.024   4.131 -1.1893  0.8826  1.0530
18662SOL    HW260834   5.696   3.005   3.986  1.3610 -1.3024  0.5585
18663SOL     OW60835   6.387   2.083   5.738 -0.3832 -0.2162 -0.3199
18663SOL    HW160836   6.375   1.998   5.697 -1.9095 -0.7614  1.1221
18663SOL    HW260837   6.302   2.127   5.729 -0.1350  0.4517  0.4159
18664SOL     OW60838   3.791   3.370   8.361 -0.4611  0.4146  0.5267
18664SOL    HW160839   3.698   3.363   8.380 -0.0037 -0.8379  2.5665
18664SOL    HW260840   3.795   3.390   8.267 -2.7460  0.1023  0.3189
18665SOL     OW60841   6.178   2.542   5.982 -0.3067  0.0153 -0.4054
18665SOL    HW160842   6.220   2.577   5.903 -1.4194 -2.3497 -2.1623
18665SOL    HW260843   6.237   2.472   6.011 -0.9945 -0.6042 -0.4867
18666SOL     OW60844   6.615   3.326   6.182  0.1799 -0.0539 -0.2081
18666SOL    HW160845   6.676   3.362   6.247 -0.5470 -0.0992  0.5204
18666SOL    HW260846   6.597   3.399   6.123 -0.0421  0.3314  0.3230
18667SOL     OW60847   9.424   9.801   7.679 -0.1829 -0.4306 -0.4472
18667SOL    HW160848   9.390   9.738   7.743 -0.4065  2.3513  2.3612
18667SOL    HW260849   9.369   9.878   7.690  0.8902  0.7740 -2.8752
18668SOL     OW60850   6.343   3.170   6.558 -0.2295  0.1683  0.1054
18668SOL    HW160851   6.250   3.176   6.534 -0.4416 -0.9878  0.5756
18668SOL    HW260852   6.352   3.228   6.633 -0.5511  0.3686 -0.0074
18669SOL     OW60853   6.888   5.628   8.661 -0.4931  0.4507  0.3403
18669SOL    HW160854   6.825   5.684   8.706  0.9484  0.8644  1.9257
18669SOL    HW260855   6.938   5.586   8.730  1.0201  0.1905 -0.8443
18670SOL     OW60856   5.029   0.834   4.205 -0.7763 -0.2713  0.9184
18670SOL    HW160857   5.037   0.754   4.257 -0.2261  0.0106  1.2722
18670SOL    HW260858   5.115   0.847   4.166 -1.1445 -0.4001  0.0449
18671SOL     OW60859   4.584   2.822   7.997  0.8924  0.1063 -0.0239
18671SOL    HW160860   4.531   2.776   7.932 -0.8594  0.4410  1.1111
18671SOL    HW260861   4.608   2.904   7.954  0.0465  0.1779 -0.3890
18672SOL     OW60862   8.816   1.533   6.212 -0.6965  0.7098  0.0395
18672SOL    HW160863   8.811   1.628   6.197 -0.3434  0.6887 -0.2245
18672SOL    HW260864   8.743   1.497   6.162  0.1477  0.6901 -1.2131
18673SOL     OW60865   7.220   2.961   6.107 -0.1542  0.6232 -0.9322
18673SOL    HW160866   7.142   2.985   6.157  0.4647  0.6066  0.0719
18673SOL    HW260867   7.292   2.974   6.168  0.3906 -2.1422 -0.8285
18674SOL     OW60868   6.207   1.654   4.988 -0.1460  0.6792 -0.5121
18674SOL    HW160869   6.272   1.654   4.917 -0.1749  3.1874 -0.6427
18674SOL    HW260870   6.132   1.608   4.952  0.2556  0.9412 -1.7374
18675SOL     OW60871   7.493   4.333   8.382  0.4166 -0.0554  0.4667
18675SOL    HW160872   7.439   4.385   8.442  0.2349  0.3084 -0.0050
18675SOL    HW260873   7.457   4.245   8.388  0.0384  0.0963  0.4758
18676SOL     OW60874   4.733   4.157   8.452  0.1920 -0.0818  0.0459
18676SOL    HW160875   4.694   4.169   8.366  1.2763  3.3097 -0.1247
18676SOL    HW260876   4.824   4.133   8.435  0.5207  1.0020  0.1741
18677SOL     OW60877   9.408   2.475   7.386 -0.1383  0.4234 -0.0576
18677SOL    HW160878   9.364   2.514   7.462  0.5446 -0.0170  0.5857
18677SOL    HW260879   9.491   2.523   7.380  0.4546 -0.5107  0.3904
18678SOL     OW60880   1.998   5.413   9.141 -0.2916  0.0419  0.0947
18678SOL    HW160881   1.949   5.448   9.066  1.5702  0.2239 -1.0981
18678SOL    HW260882   2.071   5.474   9.152  1.1989 -1.6595  0.0692
18679SOL     OW60883   4.416   3.079   6.570 -0.9412  0.0937 -1.0241
18679SOL    HW160884   4.470   3.153   6.599  0.2210 -1.3798  0.7998
18679SOL    HW260885   4.479   3.019   6.528 -1.0499 -1.6651  1.1463
18680SOL     OW60886   7.217   4.673   5.105  0.8460 -0.6706  0.3621
18680SOL    HW160887   7.304   4.705   5.082  0.7514  1.3734  2.5708
18680SOL    HW260888   7.233   4.605   5.170  0.8346 -2.3736 -1.3082
18681SOL     OW60889   5.137   3.798   6.863 -0.1548 -0.5087  0.3844
18681SOL    HW160890   5.087   3.836   6.791 -1.0012 -0.3092  1.0686
18681SOL    HW260891   5.144   3.868   6.927 -1.2658 -1.3074  1.4237
18682SOL     OW60892   7.018   3.518   4.431 -0.5960  0.5507 -0.3001
18682SOL    HW160893   7.109   3.524   4.402 -0.6924  0.9731 -0.5236
18682SOL    HW260894   7.016   3.439   4.486 -1.1746 -2.4878 -4.2479
18683SOL     OW60895   7.463   2.903   5.235  0.3682  0.4192 -0.0847
18683SOL    HW160896   7.391   2.928   5.177 -0.4693  1.9970  1.5177
18683SOL    HW260897   7.427   2.832   5.288  0.9745 -0.6966 -1.1178
18684SOL     OW60898   4.929   2.599   4.826 -0.5386  0.2602  0.3847
18684SOL    HW160899   4.847   2.632   4.862 -0.7089  0.4714 -0.1779
18684SOL    HW260900   4.986   2.675   4.822 -0.5523  0.2582  0.1271
18685SOL     OW60901   6.539   2.330   4.117  0.1511 -0.7259 -0.0212
18685SOL    HW160902   6.597   2.339   4.193  0.5812  1.5900 -0.5535
18685SOL    HW260903   6.451   2.336   4.154  0.3342 -0.4204  0.3684
18686SOL     OW60904   7.337   1.448   8.090 -0.5830  0.3708 -0.1071
18686SOL    HW160905   7.321   1.498   8.171 -0.0741 -0.3785  0.4709
18686SOL    HW260906   7.428   1.467   8.069 -0.4199 -0.2308  0.0563
18687SOL     OW60907   7.451   4.467   6.290  0.2865 -0.2464  0.0755
18687SOL    HW160908   7.496   4.449   6.208 -0.5451  0.9501 -0.6707
18687SOL    HW260909   7.420   4.557   6.282 -1.1941 -0.6262  1.0378
18688SOL     OW60910   6.389   3.551   7.143  0.1919  0.0759  0.2066
18688SOL    HW160911   6.478   3.559   7.176 -0.5880  1.6133  2.0623
18688SOL    HW260912   6.356   3.470   7.182  0.1197  0.5603  1.1669
18689SOL     OW60913   8.878   2.366   4.665  0.0212 -1.1398 -0.0530
18689SOL    HW160914   8.933   2.352   4.742  1.5570  1.5669 -0.5405
18689SOL    HW260915   8.813   2.296   4.670  1.2192 -2.2301  2.6147
18690SOL     OW60916   6.906   2.269   4.836 -0.3152  0.2269  0.3249
18690SOL    HW160917   6.933   2.179   4.858  1.1993  0.4553 -0.4667
18690SOL    HW260918   6.857   2.299   4.912  0.8961 -0.5729  1.4577
18691SOL     OW60919   7.053   2.133   6.884  0.0603 -0.3612 -0.1783
18691SOL    HW160920   7.069   2.042   6.861 -1.3224 -0.2942 -1.5850
18691SOL    HW260921   7.137   2.176   6.871  0.3862 -1.1777 -0.8659
18692SOL     OW60922   8.564   2.762   6.930  0.1971  0.3138  0.0733
18692SOL    HW160923   8.540   2.853   6.913 -0.7254  0.2540  0.9368
18692SOL    HW260924   8.659   2.760   6.920  0.2218  1.3629 -0.0132
18693SOL     OW60925   5.815   2.359   7.528  0.4069  0.4452  0.0265
18693SOL    HW160926   5.853   2.271   7.531  1.2557  0.7555 -1.1302
18693SOL    HW260927   5.840   2.393   7.443 -1.5429  1.1091 -0.3256
18694SOL     OW60928   6.762   2.008   5.690 -0.4221 -0.5874  0.1039
18694SOL    HW160929   6.742   1.972   5.776 -1.8845  0.5924  0.2980
18694SOL    HW260930   6.848   1.972   5.668  0.5309  0.0444  2.5662
18695SOL     OW60931   8.146   2.988   7.116  0.4352  0.1579  0.3324
18695SOL    HW160932   8.171   2.950   7.032 -1.0143  1.1680 -0.5945
18695SOL    HW260933   8.059   2.953   7.134  0.7687 -0.1277  1.4868
18696SOL     OW60934   6.577   5.537   8.759  0.3654  0.4870 -0.5835
18696SOL    HW160935   6.642   5.534   8.830 -0.3488 -0.4501  0.0610
18696SOL    HW260936   6.494   5.520   8.802 -0.4554  2.4709 -1.2790
18697SOL     OW60937   6.436   2.896   3.988 -0.3585 -0.4833  0.5035
18697SOL    HW160938   6.527   2.880   3.962 -0.1322  0.2230  0.8416
18697SOL    HW260939   6.438   2.981   4.031 -1.0784 -0.7463  1.0725
18698SOL     OW60940   7.308   2.232   5.235  0.4816 -0.6884 -0.1231
18698SOL    HW160941   7.335   2.323   5.248 -0.0041 -0.3518 -1.3927
18698SOL    HW260942   7.387   2.182   5.257 -0.0828 -0.2307  3.6155
18699SOL     OW60943   8.719   1.360   4.994  0.1541 -0.6084  0.0813
18699SOL    HW160944   8.803   1.353   5.040  0.4829  0.9323 -0.2102
18699SOL    HW260945   8.741   1.340   4.903  0.2521 -0.0332 -0.0252
18700SOL     OW60946   7.773   2.978   7.337  0.0038  0.9216  0.1035
18700SOL    HW160947   7.809   3.065   7.352 -2.0880  2.2661 -1.9657
18700SOL    HW260948   7.684   2.982   7.373 -0.3956 -0.0763 -0.7162
18701SOL     OW60949   5.159   1.988   5.224 -0.2663  0.1327 -0.1654
18701SOL    HW160950   5.162   1.906   5.274  0.5374 -0.5866 -1.3611
18701SOL    HW260951   5.066   2.013   5.226 -0.5169 -0.7635  0.2616
18702SOL     OW60952   8.023   3.101   4.474 -0.0944  0.3464  0.2938
18702SOL    HW160953   8.033   3.031   4.538  2.5363  0.0982 -0.2923
18702SOL    HW260954   7.975   3.060   4.401  0.4375 -0.5522  0.4265
18703SOL     OW60955   5.565   1.131   7.148 -0.2443 -0.1521  0.1145
18703SOL    HW160956   5.542   1.041   7.174 -0.2821 -0.6488 -1.5146
18703SOL    HW260957   5.654   1.142   7.180 -0.9618  0.0400  2.2201
18704SOL     OW60958   5.830   2.763   6.854  1.1455 -0.0476 -0.0693
18704SOL    HW160959   5.876   2.714   6.923 -4.1284 -3.5539  1.5260
18704SOL    HW260960   5.815   2.699   6.785 -1.3946  0.7741 -0.3638
18705SOL     OW60961   6.392   2.399   6.072  0.3842 -0.2599 -0.0410
18705SOL    HW160962   6.398   2.310   6.107  1.8938 -0.0794  0.2016
18705SOL    HW260963   6.443   2.453   6.133  1.5502  0.3644 -1.5063
18706SOL     OW60964   5.722   0.796   6.812  0.0445 -1.0714  0.2638
18706SOL    HW160965   5.711   0.716   6.761  2.1531 -0.7428 -0.8608
18706SOL    HW260966   5.788   0.846   6.764 -0.8609  1.1534  1.1746
18707SOL     OW60967   8.466   0.092   6.684 -0.3800 -0.3394  0.4505
18707SOL    HW160968   8.543   0.089   6.627  0.3066  0.3785  1.3030
18707SOL    HW260969   8.416   0.014   6.661  0.5843 -0.8085 -0.1494
18708SOL     OW60970   7.222   1.324   6.017  0.7912 -0.1622 -0.6287
18708SOL    HW160971   7.184   1.394   5.964 -0.2514 -1.0187 -1.0760
18708SOL    HW260972   7.306   1.306   5.976  1.2822  1.1123 -0.2281
18709SOL     OW60973   7.556   1.452   8.385  0.2557 -0.6440  0.1095
18709SOL    HW160974   7.534   1.359   8.382  1.1357 -0.9666  2.2717
18709SOL    HW260975   7.472   1.496   8.398  0.1718 -1.4655  2.9583
18710SOL     OW60976   5.323   2.805   7.431 -0.1426 -0.5015 -0.4014
18710SOL    HW160977   5.236   2.836   7.455 -0.1457 -0.6270 -0.2549
18710SOL    HW260978   5.381   2.844   7.496 -0.3734 -2.4678  1.0818
18711SOL     OW60979   6.994   7.074   6.193 -0.4793 -0.4304 -0.1388
18711SOL    HW160980   6.956   7.019   6.261 -0.3154  0.2327  0.5067
18711SOL    HW260981   6.925   7.137   6.172  0.9140  2.3981  2.8225
18712SOL     OW60982   8.138   4.587   8.499  0.2831  0.1135 -0.0875
18712SOL    HW160983   8.152   4.645   8.574 -2.3421 -0.3648  0.8702
18712SOL    HW260984   8.056   4.617   8.460 -1.6558 -3.2645  0.9089
18713SOL     OW60985   6.193   9.162   5.016  0.0949  0.2406 -0.1745
18713SOL    HW160986   6.140   9.194   5.090 -1.8049  0.7135 -1.6683
18713SOL    HW260987   6.197   9.067   5.029 -0.3963  0.2952  0.4224
18714SOL     OW60988   5.944   1.306   5.603  0.6300  0.1394  0.2470
18714SOL    HW160989   5.860   1.347   5.582  0.9498 -0.6494 -3.0657
18714SOL    HW260990   6.006   1.379   5.604  0.3279  0.4055 -0.0112
18715SOL     OW60991   7.389   4.049   8.109 -0.6688  0.2278  0.0909
18715SOL    HW160992   7.441   4.119   8.069 -1.3844  0.5211 -0.3451
18715SOL    HW260993   7.304   4.089   8.127 -0.5001 -0.0146  1.5654
18716SOL     OW60994   5.906   0.792   5.262  0.3934 -0.0157 -0.5018
18716SOL    HW160995   5.961   0.820   5.335  1.6262  0.2887 -1.5299
18716SOL    HW260996   5.914   0.696   5.262 -1.4047 -0.2529  1.1039
18717SOL     OW60997   8.110   2.212   9.332 -0.1815 -0.0122  0.4587
18717SOL    HW160998   8.048   2.210   9.405  1.1850  1.4993  1.7452
18717SOL    HW260999   8.175   2.278   9.357  1.8297 -1.3493 -0.9076
18718SOL     OW61000   5.909   2.158   5.591  0.4514  0.1745  0.3896
18718SOL    HW161001   5.840   2.125   5.649 -0.1930 -0.7072 -0.8422
18718SOL    HW261002   5.877   2.139   5.503  3.1023 -2.0384 -0.2337
18719SOL     OW61003   4.646   2.774   4.100  0.5050  0.1170 -0.0011
18719SOL    HW161004   4.572   2.778   4.160  1.0427  1.9476  0.6071
18719SOL    HW261005   4.715   2.824   4.143  2.1521 -1.5944 -0.5135
18720SOL     OW61006   7.215   3.442   8.748  0.4722 -0.4985  0.0408
18720SOL    HW161007   7.255   3.502   8.685  2.8718 -0.3184  1.6286
18720SOL    HW261008   7.247   3.356   8.723  0.1876 -0.6253  0.1075
18721SOL     OW61009   7.470   1.394   6.247 -0.2013 -0.4763  0.1017
18721SOL    HW161010   7.385   1.350   6.241  0.6118 -2.3369  1.3822
18721SOL    HW261011   7.471   1.433   6.334  0.1323 -0.1926 -0.0259
18722SOL     OW61012   4.417   2.409   3.298  0.0215 -0.4370  0.4139
18722SOL    HW161013   4.427   2.427   3.205 -0.1436 -0.0831  0.4646
18722SOL    HW261014   4.325   2.427   3.317  0.1257 -0.2080  0.7116
18723SOL     OW61015   6.498   3.153   4.053  0.1214 -0.7138 -0.1047
18723SOL    HW161016   6.479   3.175   4.144  2.6254 -2.1049  0.8605
18723SOL    HW261017   6.591   3.173   4.042 -0.1384 -0.4635 -2.4340
18724SOL     OW61018   6.992   2.871   9.316 -0.6297  0.0879  0.4479
18724SOL    HW161019   7.010   2.778   9.309  4.2998  0.9429 -2.0913
18724SOL    HW261020   7.021   2.894   9.405  1.7757 -0.3089 -0.1710
18725SOL     OW61021   6.611   2.546   8.390 -0.5036  0.5540 -0.1049
18725SOL    HW161022   6.588   2.477   8.328 -0.4700  0.4664 -0.0192
18725SOL    HW261023   6.563   2.524   8.470  1.4526 -0.7885  0.7722
18726SOL     OW61024   5.396   0.044   5.703 -0.2408  0.2053 -0.6135
18726SOL    HW161025   5.349   0.054   5.785  0.1688  0.4647 -0.4084
18726SOL    HW261026   5.359  -0.036   5.664  0.0680 -0.3284  0.1604
18727SOL     OW61027   8.003   2.904   8.000  0.0453  0.0778  0.3618
18727SOL    HW161028   8.077   2.843   8.006  0.1870  0.0876 -1.0996
18727SOL    HW261029   7.937   2.857   7.949 -0.0157  0.9818 -0.4115
18728SOL     OW61030   8.409   2.988   6.807  0.3113  0.1745 -0.6735
18728SOL    HW161031   8.449   2.994   6.720  0.6632 -0.2440 -0.5392
18728SOL    HW261032   8.321   2.955   6.790  1.1036 -2.0704 -0.6926
18729SOL     OW61033   7.336   4.136   9.337  0.1050  0.2398 -0.2933
18729SOL    HW161034   7.324   4.157   9.244 -0.5706  0.9505 -0.0535
18729SOL    HW261035   7.328   4.041   9.341  0.6173  0.1532 -1.0323
18730SOL     OW61036   6.376   3.169   5.491 -0.2094 -0.1626  0.2674
18730SOL    HW161037   6.443   3.149   5.557 -1.4546 -1.7433  1.1237
18730SOL    HW261038   6.389   3.102   5.424 -1.8527 -1.4888  1.1949
18731SOL     OW61039   6.753   3.845   3.871 -0.0554 -0.1441  0.3723
18731SOL    HW161040   6.671   3.857   3.822 -1.2789 -0.8529  2.1485
18731SOL    HW261041   6.801   3.778   3.822 -0.0617  0.9514 -1.2181
18732SOL     OW61042   8.120   1.836   9.219  0.8778  0.0307  0.5194
18732SOL    HW161043   8.072   1.772   9.271  1.4973 -1.0056 -0.1448
18732SOL    HW261044   8.124   1.914   9.274 -1.0891 -0.0162  0.7945
18733SOL     OW61045   5.435   3.931   7.146 -0.6501  0.4592 -0.3764
18733SOL    HW161046   5.459   3.983   7.070 -2.0243 -0.4673 -1.5064
18733SOL    HW261047   5.345   3.902   7.128 -1.1672  0.5194  1.7813
18734SOL     OW61048   5.074   1.556   5.223 -0.5020 -0.2643  0.9658
18734SOL    HW161049   5.066   1.461   5.232 -0.9847 -0.1844  1.4339
18734SOL    HW261050   5.053   1.591   5.309  1.7952  0.1777  1.4021
18735SOL     OW61051   6.085   1.480   8.742 -0.2134  0.2612 -0.6178
18735SOL    HW161052   6.102   1.426   8.665 -2.3796 -1.6504  0.1427
18735SOL    HW261053   6.164   1.472   8.795  0.7845  0.5553 -2.0155
18736SOL     OW61054   3.787   3.322   7.707  0.0272 -0.0045 -0.7937
18736SOL    HW161055   3.809   3.298   7.617 -0.8602  2.9310 -1.9124
18736SOL    HW261056   3.731   3.399   7.699 -0.0905  0.3885  2.2969
18737SOL     OW61057   6.505   0.688   4.645  0.2095  0.2372 -0.6052
18737SOL    HW161058   6.426   0.708   4.696 -0.6699 -0.7725 -1.5262
18737SOL    HW261059   6.503   0.593   4.633  1.5865  0.1932 -0.6388
18738SOL     OW61060   5.698   0.600   7.147  0.3635  0.0094 -0.0673
18738SOL    HW161061   5.621   0.649   7.178  1.3247  1.5938 -0.0481
18738SOL    HW261062   5.663   0.519   7.112 -1.2755  0.5050  0.3469
18739SOL     OW61063   5.457   4.191   3.825 -0.1028 -0.4536  0.6978
18739SOL    HW161064   5.418   4.120   3.773  0.0637  0.8122 -1.2498
18739SOL    HW261065   5.421   4.178   3.912 -1.2498 -2.0590  0.0474
18740SOL     OW61066   5.543   3.389   6.931 -0.6180  0.4055 -0.2198
18740SOL    HW161067   5.603   3.372   7.004 -0.0455  4.0415  0.3265
18740SOL    HW261068   5.456   3.386   6.970 -0.3326  1.9628  0.6039
18741SOL     OW61069   4.824   2.802   7.753 -0.4301 -0.0215 -0.2355
18741SOL    HW161070   4.760   2.853   7.703 -0.1157  0.9841  0.3653
18741SOL    HW261071   4.771   2.746   7.809 -0.7848  0.5842  0.0368
18742SOL     OW61072   6.483   1.283   6.825 -0.0571 -0.1495  0.4612
18742SOL    HW161073   6.437   1.202   6.804 -0.5515 -1.5472  5.4903
18742SOL    HW261074   6.574   1.257   6.836  0.2617  0.5715 -0.3861
18743SOL     OW61075   8.564   1.592   6.011 -0.5262 -0.2597 -0.3720
18743SOL    HW161076   8.552   1.684   6.035  0.5165 -0.4291  0.9193
18743SOL    HW261077   8.483   1.549   6.039 -0.9592  0.2434 -0.8554
18744SOL     OW61078   6.346   2.428   4.744  0.1084 -0.1822 -0.5698
18744SOL    HW161079   6.406   2.371   4.792  0.8503  1.5408  0.6142
18744SOL    HW261080   6.391   2.446   4.661 -0.1810 -1.3458 -1.0048
18745SOL     OW61081   7.901   2.432   7.795 -0.0177  0.4300 -0.5223
18745SOL    HW161082   7.877   2.491   7.867  1.1820  0.9250 -0.4891
18745SOL    HW261083   7.975   2.476   7.753 -0.0650 -0.3430 -1.4352
18746SOL     OW61084   6.763   4.453   6.744  0.0893  0.1500 -0.1810
18746SOL    HW161085   6.847   4.414   6.766 -0.8720 -1.0450  1.5973
18746SOL    HW261086   6.703   4.421   6.811 -1.7174  1.2654 -1.1776
18747SOL     OW61087   8.063   1.873   9.575 -0.3203  0.0522  0.3261
18747SOL    HW161088   7.988   1.914   9.530 -0.5766  1.6724  2.1065
18747SOL    HW261089   8.129   1.863   9.506 -1.2778  0.8899 -0.7689
18748SOL     OW61090   7.253   0.910   4.787  0.1199  1.1168 -0.0990
18748SOL    HW161091   7.312   0.836   4.783 -2.2694 -0.9594  0.2054
18748SOL    HW261092   7.231   0.929   4.696 -0.6749  0.1845 -0.1154
18749SOL     OW61093   6.243   1.145   4.985 -0.2471 -0.1099 -0.2242
18749SOL    HW161094   6.180   1.133   4.914 -1.2498 -1.1401  0.7950
18749SOL    HW261095   6.319   1.094   4.958 -0.5993 -0.4548 -0.5895
18750SOL     OW61096   7.931   1.998   6.369 -0.2548  0.5101  0.0120
18750SOL    HW161097   7.930   1.960   6.281 -0.8676 -0.1621  0.3011
18750SOL    HW261098   7.992   2.072   6.363  1.8445 -1.1522 -0.3030
18751SOL     OW61099   6.479   8.956   6.144  0.0634  0.3402 -0.0480
18751SOL    HW161100   6.496   8.862   6.137  0.9628  0.5475 -1.1848
18751SOL    HW261101   6.385   8.965   6.131  0.0424 -0.3741 -0.4647
18752SOL     OW61102   5.557   2.487   6.570  0.1642 -0.1096  0.5523
18752SOL    HW161103   5.622   2.417   6.569 -0.6675 -0.9182 -1.0976
18752SOL    HW261104   5.481   2.449   6.613 -0.0796 -0.0365  0.1928
18753SOL     OW61105   8.572   1.454   6.508 -0.2774  0.4892 -0.2597
18753SOL    HW161106   8.591   1.364   6.534 -1.2061  0.3224 -0.1180
18753SOL    HW261107   8.608   1.508   6.579 -0.5817  0.1734  0.1369
18754SOL     OW61108   6.085   1.719   7.410 -0.6618 -0.5900 -0.5335
18754SOL    HW161109   6.106   1.654   7.477  0.3772 -0.2366 -0.5076
18754SOL    HW261110   6.127   1.687   7.330  1.6526  1.0323 -0.0680
18755SOL     OW61111   5.528   1.719   6.976  0.1507  0.4035 -0.3765
18755SOL    HW161112   5.493   1.728   7.065 -0.7041  1.8376 -0.8168
18755SOL    HW261113   5.608   1.772   6.977  0.6078 -0.2765 -0.2444
18756SOL     OW61114   7.015   2.956   5.665  0.3044 -0.0047 -0.1256
18756SOL    HW161115   6.944   2.924   5.721 -2.1938  0.3293 -2.8881
18756SOL    HW261116   7.011   3.051   5.673 -0.8057  0.1079 -1.5937
18757SOL     OW61117   7.624   5.633   8.003 -0.5036 -0.4764 -0.3042
18757SOL    HW161118   7.542   5.585   7.997  0.1992 -1.6456 -0.7709
18757SOL    HW261119   7.614   5.705   7.940 -2.3458  1.2801  1.8105
18758SOL     OW61120   5.839   9.597   6.557  0.4691  0.5744 -0.0540
18758SOL    HW161121   5.859   9.661   6.626  0.8729  1.0273 -0.5762
18758SOL    HW261122   5.755   9.626   6.522  1.0300  1.3272 -0.8358
18759SOL     OW61123   4.198   6.177   7.296 -0.1523 -0.3222 -0.2251
18759SOL    HW161124   4.187   6.164   7.202 -2.5743 -1.3621  0.1159
18759SOL    HW261125   4.237   6.264   7.304  2.4750 -1.1922 -2.2172
18760SOL     OW61126   6.715   2.293   6.258  0.0481  0.2500 -0.2294
18760SOL    HW161127   6.760   2.373   6.283  1.3533 -0.4444 -0.2783
18760SOL    HW261128   6.712   2.241   6.339 -0.9334  0.3843 -0.1583
18761SOL     OW61129   7.282   1.778   8.106  0.5801  0.2607  0.4634
18761SOL    HW161130   7.227   1.729   8.045  0.9234  0.6266 -0.1399
18761SOL    HW261131   7.260   1.740   8.192  0.4604 -0.5989  0.0709
18762SOL     OW61132   4.908   3.444   6.109 -0.2732 -0.3261  0.2808
18762SOL    HW161133   4.905   3.529   6.064 -0.5350  0.5370  1.8421
18762SOL    HW261134   4.826   3.440   6.158  0.8677 -0.2259  2.3320
18763SOL     OW61135   7.721   1.662   6.455 -0.9301 -0.2512 -0.2085
18763SOL    HW161136   7.706   1.672   6.360 -0.7436 -0.4572 -0.2593
18763SOL    HW261137   7.815   1.651   6.463 -1.1205 -2.1785 -0.1714
18764SOL     OW61138   4.563   2.800   8.717  0.1133 -0.1686  0.0326
18764SOL    HW161139   4.532   2.739   8.650 -1.2587 -0.3972  0.8390
18764SOL    HW261140   4.643   2.760   8.751 -0.1587 -0.9555 -0.2333
18765SOL     OW61141   4.007   1.843   6.105 -0.1652 -0.1803  0.1633
18765SOL    HW161142   4.058   1.788   6.045 -0.8153 -1.4108  0.6981
18765SOL    HW261143   3.916   1.826   6.081 -0.3796  2.3118 -1.0589
18766SOL     OW61144   6.581   6.047   8.016  0.2140  0.3273  0.1897
18766SOL    HW161145   6.669   6.057   7.979  0.9133 -0.3308  1.5916
18766SOL    HW261146   6.526   6.023   7.942  0.8831  2.2073 -1.0045
18767SOL     OW61147   5.559   2.026   7.652 -0.0094  0.2173 -0.1161
18767SOL    HW161148   5.521   2.113   7.663  0.6434  0.5371 -0.3941
18767SOL    HW261149   5.508   1.971   7.712 -0.2213  0.8436  0.2922
18768SOL     OW61150   6.188   2.451   6.594 -0.0109 -0.2172  0.5785
18768SOL    HW161151   6.120   2.467   6.529  1.4666  0.7644 -0.7980
18768SOL    HW261152   6.256   2.515   6.574  1.1282 -0.8453  2.2048
18769SOL     OW61153   6.895   3.658   6.165  0.0930  0.0144 -0.2506
18769SOL    HW161154   6.811   3.660   6.119  0.2666  1.3063 -0.5300
18769SOL    HW261155   6.951   3.603   6.111 -0.9719 -2.1392  0.6931
18770SOL     OW61156   8.074   4.579   7.083  0.1965  0.3416  0.0740
18770SOL    HW161157   8.142   4.579   7.150  0.5179 -2.8175 -0.0870
18770SOL    HW261158   8.122   4.585   7.000  0.3629 -1.7230 -0.0324
18771SOL     OW61159   6.266   3.188   8.503  0.4244  0.4351  0.0751
18771SOL    HW161160   6.344   3.235   8.531 -0.7733  1.9588  1.0742
18771SOL    HW261161   6.263   3.200   8.408  1.7392 -0.2186 -0.0624
18772SOL     OW61162   4.391   2.937   8.859  0.6431 -0.3232  0.1943
18772SOL    HW161163   4.426   2.885   8.931  0.4469 -1.6886 -0.6503
18772SOL    HW261164   4.423   2.893   8.780 -0.9646 -0.2011 -0.5630
18773SOL     OW61165   7.747   2.316   6.665 -1.0989  0.2923  0.5166
18773SOL    HW161166   7.720   2.247   6.605  1.3710  0.6103 -1.0863
18773SOL    HW261167   7.785   2.270   6.740  1.0106 -0.1922 -0.7695
18774SOL     OW61168   6.902   2.722   4.490  0.1549 -0.9936  0.2702
18774SOL    HW161169   6.988   2.722   4.532  0.3514 -1.1778 -0.1279
18774SOL    HW261170   6.887   2.813   4.466 -0.7653 -0.5387  2.3462
18775SOL     OW61171   6.745   3.036   8.979  0.0118 -0.1193 -0.2726
18775SOL    HW161172   6.766   2.950   8.944  1.3493  0.2769 -0.5178
18775SOL    HW261173   6.749   3.095   8.903 -0.1924  0.2707  0.0129
18776SOL     OW61174   9.188   4.819   5.117 -0.5990 -0.0841 -0.2128
18776SOL    HW161175   9.275   4.854   5.138 -0.8691  0.4038  0.1053
18776SOL    HW261176   9.175   4.747   5.178  0.3948 -1.4518 -1.5467
18777SOL     OW61177   6.946   2.470   5.204  0.0651 -0.3269 -0.1104
18777SOL    HW161178   6.963   2.450   5.296  2.5258 -2.1487 -0.8719
18777SOL    HW261179   7.027   2.509   5.172 -0.4120 -0.6037 -1.7478
18778SOL     OW61180   5.181   1.602   4.858 -0.4054 -0.3730 -0.6825
18778SOL    HW161181   5.246   1.596   4.788  1.5050 -2.4039  1.0867
18778SOL    HW261182   5.215   1.668   4.918 -0.4302 -0.7735 -0.2122
18779SOL     OW61183   5.884   1.047   8.848  0.2163 -0.0982 -0.1617
18779SOL    HW161184   5.859   0.965   8.807 -0.3939  0.6973 -1.4341
18779SOL    HW261185   5.907   1.105   8.775 -0.9266  1.3670  0.5882
18780SOL     OW61186   7.203   3.445   5.265  0.0681  0.2316  0.2228
18780SOL    HW161187   7.130   3.415   5.319  0.0063 -1.7058 -0.8146
18780SOL    HW261188   7.250   3.364   5.242  0.4077  1.0085 -2.0968
18781SOL     OW61189   6.475   2.400   5.806 -0.0860 -0.2841  0.2459
18781SOL    HW161190   6.435   2.363   5.884 -0.0600 -0.6921  0.0718
18781SOL    HW261191   6.442   2.489   5.800  1.3869  0.4145  1.7876
18782SOL     OW61192   9.621   2.094   4.488 -0.2763  0.4621  0.2217
18782SOL    HW161193   9.626   2.038   4.411 -0.7723  0.3837  0.2441
18782SOL    HW261194   9.528   2.109   4.502 -0.1298  2.2650 -0.4796
18783SOL     OW61195   6.997   5.088   7.039 -0.2985  0.1123 -0.0551
18783SOL    HW161196   7.049   5.014   7.006  0.8102  0.7790  0.1579
18783SOL    HW261197   6.923   5.047   7.083  1.2183 -0.9641  1.6245
18784SOL     OW61198   7.290   2.553   2.491  0.1298 -0.2995  0.2291
18784SOL    HW161199   7.212   2.607   2.477  0.1230  0.1510  1.7830
18784SOL    HW261200   7.363   2.616   2.493  0.7486 -0.8171 -2.3449
18785SOL     OW61201   5.940   4.372   7.002 -0.3938 -0.5792  0.0143
18785SOL    HW161202   6.000   4.409   7.066  1.6181 -2.2049 -0.8342
18785SOL    HW261203   5.994   4.316   6.946 -2.3440 -0.5639 -2.0762
18786SOL     OW61204   7.652   2.484   6.201  0.1500  0.4159  0.0338
18786SOL    HW161205   7.698   2.435   6.269 -0.2892  1.6200  1.2578
18786SOL    HW261206   7.664   2.433   6.122  0.8809 -0.9235  0.9699
18787SOL     OW61207   5.484   1.922   5.126  0.0216  0.2918  0.0137
18787SOL    HW161208   5.580   1.921   5.117  0.0993  0.7409  0.7540
18787SOL    HW261209   5.468   1.923   5.220 -0.7190  0.1018 -0.1034
18788SOL     OW61210   7.493   4.114   7.589 -0.2053 -0.0005 -0.1941
18788SOL    HW161211   7.426   4.070   7.641  0.9612 -0.8157  0.6682
18788SOL    HW261212   7.536   4.174   7.650 -0.5412  0.9603 -0.8900
18789SOL     OW61213   5.047   4.241   7.757  0.3823  0.8735  0.2078
18789SOL    HW161214   5.082   4.330   7.763  0.1590  0.9667  0.1551
18789SOL    HW261215   5.008   4.236   7.669  0.6032  0.6456  0.1222
18790SOL     OW61216   0.694   4.215   6.414  0.2947  0.3254  0.7759
18790SOL    HW161217   0.604   4.188   6.402 -0.3768  1.2252  3.1609
18790SOL    HW261218   0.730   4.151   6.476  1.2347  0.1169  0.0366
18791SOL     OW61219   7.081   4.958   3.912 -0.2222  0.0651 -0.4699
18791SOL    HW161220   7.149   4.968   3.845  0.1656  1.8043  0.1265
18791SOL    HW261221   7.127   4.968   3.995 -1.1690  1.1810 -0.0572
18792SOL     OW61222   6.808   3.062   7.060  0.2335 -0.0980  0.1534
18792SOL    HW161223   6.878   3.106   7.108 -1.1339  0.1048  2.0554
18792SOL    HW261224   6.849   2.982   7.027  1.8943  0.9966 -0.5876
18793SOL     OW61225   6.285   2.882   5.070 -0.1285  0.7930  0.1818
18793SOL    HW161226   6.224   2.869   4.997  0.5616  3.2189 -0.9331
18793SOL    HW261227   6.308   2.793   5.098 -1.5120 -0.2072 -1.6263
18794SOL     OW61228   5.254   3.061   4.091  0.3262  0.1607 -1.1714
18794SOL    HW161229   5.329   3.116   4.112 -0.5935  0.6397  1.1629
18794SOL    HW261230   5.291   2.975   4.072  1.4267 -0.1112  1.7924
18795SOL     OW61231   6.964   2.738   8.026 -0.1415  0.1276  0.2789
18795SOL    HW161232   7.055   2.748   8.056 -0.3886 -0.4016  1.2412
18795SOL    HW261233   6.921   2.690   8.096 -1.3300  0.9289  0.1245
18796SOL     OW61234   4.096   1.241   5.259  0.8077  0.4759  0.0306
18796SOL    HW161235   4.016   1.200   5.292 -0.4594  2.2792 -0.6235
18796SOL    HW261236   4.164   1.217   5.322 -0.4163 -0.4159  1.0538
18797SOL     OW61237   2.022   2.639   4.098  0.5289  0.4339 -0.4177
18797SOL    HW161238   2.033   2.725   4.138 -0.9457 -0.1029  1.2689
18797SOL    HW261239   1.943   2.648   4.045 -0.2939 -0.1644  0.6769
18798SOL     OW61240   6.964   1.388   8.004 -0.6573 -0.2015  0.0095
18798SOL    HW161241   6.943   1.296   7.989  0.3679 -0.2736 -1.1867
18798SOL    HW261242   7.057   1.389   8.024 -0.4578  0.6422 -0.8694
18799SOL     OW61243   7.213   4.505   7.158 -0.3793 -0.2934 -0.3216
18799SOL    HW161244   7.144   4.517   7.093 -0.3805 -0.5971 -0.3807
18799SOL    HW261245   7.284   4.562   7.129 -0.3577 -0.4731 -0.6225
18800SOL     OW61246   6.166   2.197   7.598 -0.4259 -0.1878 -0.0564
18800SOL    HW161247   6.131   2.255   7.530 -1.1308 -0.3623  0.1459
18800SOL    HW261248   6.136   2.237   7.680  0.7985  0.2693  0.1843
18801SOL     OW61249   6.550   1.824   6.547 -0.2749  0.0814  0.2904
18801SOL    HW161250   6.643   1.845   6.557  0.0519 -0.9334 -0.4812
18801SOL    HW261251   6.522   1.797   6.635  0.1339  0.4897  0.5478
18802SOL     OW61252   5.881   4.102   7.288  0.1742  0.1080 -0.3887
18802SOL    HW161253   5.793   4.138   7.290 -0.3714 -0.9193 -2.5379
18802SOL    HW261254   5.878   4.035   7.219  2.4730 -0.3857 -0.1005
18803SOL     OW61255   5.795   1.548   4.438  0.3412  0.2356  0.1077
18803SOL    HW161256   5.723   1.601   4.472 -1.3177 -2.1708  0.6365
18803SOL    HW261257   5.768   1.526   4.348  0.5614 -0.4021  0.1914
18804SOL     OW61258   7.677   3.497   3.081 -0.3483 -0.0031 -0.7669
18804SOL    HW161259   7.770   3.503   3.103 -0.3371 -0.6295 -0.6306
18804SOL    HW261260   7.636   3.460   3.159 -0.7660  0.5582 -0.7091
18805SOL     OW61261   6.144   2.788   8.715  0.5594  0.7527 -0.7522
18805SOL    HW161262   6.058   2.751   8.699 -0.2925  2.1225  0.3518
18805SOL    HW261263   6.164   2.766   8.806  0.5677  1.8999 -0.4508
18806SOL     OW61264   7.979   3.466   8.187  0.5564 -0.1887  0.0998
18806SOL    HW161265   7.999   3.505   8.272  1.9791  0.4307 -0.4856
18806SOL    HW261266   7.950   3.540   8.134 -2.3719 -0.8757  0.5780
18807SOL     OW61267   6.210   3.741   7.307 -0.2183 -0.3226  0.3691
18807SOL    HW161268   6.270   3.695   7.249 -0.5444 -0.0560 -0.1900
18807SOL    HW261269   6.182   3.675   7.370 -0.7472 -0.9338 -0.4692
18808SOL     OW61270   5.560   1.801   6.368 -0.0929 -0.3592  0.0103
18808SOL    HW161271   5.484   1.769   6.417  0.2218 -3.6477 -1.3810
18808SOL    HW261272   5.626   1.732   6.380  1.7894  1.2103 -0.8797
18809SOL     OW61273   6.645   4.632   5.406  0.2767 -0.2167  0.3864
18809SOL    HW161274   6.682   4.717   5.382  1.6739 -0.9983 -0.3937
18809SOL    HW261275   6.611   4.597   5.323  1.4188 -1.1963  0.2984
18810SOL     OW61276   3.769   2.454   0.899  0.8561  0.4148  0.0315
18810SOL    HW161277   3.754   2.475   0.807 -3.6759 -0.8948  0.2730
18810SOL    HW261278   3.803   2.365   0.898  1.0603  0.4922 -0.3577
18811SOL     OW61279   6.361   3.135   5.980 -0.2925  0.3761 -0.1261
18811SOL    HW161280   6.440   3.099   6.020 -0.0795  1.5669  0.5931
18811SOL    HW261281   6.390   3.216   5.938 -1.5253  2.3364  2.5182
18812SOL     OW61282   7.330   4.648   7.565 -0.1239 -0.1311  0.0104
18812SOL    HW161283   7.258   4.711   7.576  0.8862  0.7938  1.8035
18812SOL    HW261284   7.343   4.611   7.652  1.9293  0.1514 -0.1325
18813SOL     OW61285   6.642   4.488   7.423  0.0838  0.0260 -0.0646
18813SOL    HW161286   6.684   4.403   7.426  0.5514  0.1321 -2.0498
18813SOL    HW261287   6.588   4.486   7.344 -2.6724  0.3798  1.6656
18814SOL     OW61288   3.325   3.042   9.783 -0.0424  0.4880  0.3105
18814SOL    HW161289   3.324   3.134   9.808 -0.5521  0.0860  1.8723
18814SOL    HW261290   3.240   3.009   9.811  0.9902 -0.9767  1.9037
18815SOL     OW61291   7.279   0.677   2.780 -0.1700  0.1129 -0.0171
18815SOL    HW161292   7.278   0.634   2.694 -1.3243 -2.2558  1.1009
18815SOL    HW261293   7.367   0.716   2.785  0.3462 -0.6917 -1.7833
18816SOL     OW61294   5.808   3.671   6.421 -0.1623 -1.0598  0.2543
18816SOL    HW161295   5.755   3.604   6.377 -0.0764 -1.2558  0.4508
18816SOL    HW261296   5.874   3.622   6.469  0.8127 -0.7804 -0.7693
18817SOL     OW61297   7.166   3.472   7.100 -0.4097 -0.3797 -0.6269
18817SOL    HW161298   7.136   3.546   7.047  0.9100 -0.0016 -0.8793
18817SOL    HW261299   7.258   3.461   7.076 -0.3671 -1.5813  0.0209
18818SOL     OW61300   5.264   1.817   6.239  0.3353  0.1100  0.1843
18818SOL    HW161301   5.172   1.837   6.256  0.2692  1.3504 -1.3765
18818SOL    HW261302   5.312   1.880   6.294  0.1951  1.1553 -0.8648
18819SOL     OW61303   9.504   3.036   5.646  0.4011 -0.0185 -0.7956
18819SOL    HW161304   9.467   3.091   5.577  0.5486  0.1593 -0.7362
18819SOL    HW261305   9.480   2.947   5.621  1.3098 -0.0529 -1.6301
18820SOL     OW61306   7.439   0.199   5.546  0.1401 -0.5038 -0.1696
18820SOL    HW161307   7.425   0.290   5.570 -1.2640 -0.5852 -0.5716
18820SOL    HW261308   7.356   0.171   5.508  0.1652 -2.2432  0.9006
18821SOL     OW61309   4.508   4.054   7.606 -0.3348  0.3709  0.2097
18821SOL    HW161310   4.527   4.091   7.692  0.0547  3.1451 -0.9620
18821SOL    HW261311   4.566   4.102   7.546 -0.0732 -1.9703 -1.5361
18822SOL     OW61312   6.730   1.481   3.523  0.3648 -0.2000  0.4506
18822SOL    HW161313   6.678   1.429   3.463  1.3014 -0.3524 -0.2444
18822SOL    HW261314   6.819   1.477   3.489  0.7378  0.5550  1.2703
18823SOL     OW61315   7.055   1.554   5.305 -0.0770  0.3477 -0.1131
18823SOL    HW161316   7.106   1.473   5.306  0.3629  0.4801 -2.8424
18823SOL    HW261317   7.068   1.592   5.391  3.3498 -0.3146 -0.1823
18824SOL     OW61318   4.602   3.147   8.340 -0.1055 -0.3968  0.0384
18824SOL    HW161319   4.586   3.132   8.433 -0.3145 -1.4761 -0.1591
18824SOL    HW261320   4.547   3.223   8.318  1.9799  1.6556  1.3580
18825SOL     OW61321   4.256   4.083   4.366  0.3158  0.9036  0.4313
18825SOL    HW161322   4.348   4.079   4.393  0.6627  0.9756 -0.6647
18825SOL    HW261323   4.223   4.164   4.404  0.0146 -0.2576  2.7967
18826SOL     OW61324   7.842   2.346   5.046  0.0382 -0.4339  0.0058
18826SOL    HW161325   7.875   2.331   5.135  0.2322 -0.7153 -0.1115
18826SOL    HW261326   7.859   2.439   5.029  2.0738 -0.8459 -0.5676
18827SOL     OW61327   7.974   2.759   8.341 -0.0002  0.3865  0.2109
18827SOL    HW161328   7.996   2.730   8.429  0.3792 -0.5033 -0.1617
18827SOL    HW261329   8.037   2.713   8.285  0.1940  1.4417 -0.4689
18828SOL     OW61330   3.943   4.234   8.316  0.2533 -0.7307  0.1842
18828SOL    HW161331   3.898   4.193   8.241 -0.2595  1.7163 -0.9481
18828SOL    HW261332   3.941   4.328   8.297  2.2889 -0.2061  2.1242
18829SOL     OW61333   7.037   4.073   9.301  0.0593  0.4161  0.2589
18829SOL    HW161334   7.114   4.017   9.296 -0.4033 -0.7793  3.8269
18829SOL    HW261335   7.070   4.158   9.329  0.1917  0.1830  0.8193
18830SOL     OW61336   3.479   4.360   9.419  0.2069 -0.0056  0.7062
18830SOL    HW161337   3.478   4.287   9.481  1.7132  2.2585  3.6562
18830SOL    HW261338   3.406   4.415   9.445  0.4159  0.6388 -0.0345
18831SOL     OW61339   5.170   3.744   7.679  0.6781 -0.4390  0.1732
18831SOL    HW161340   5.190   3.801   7.753  0.6607 -1.2717  0.8437
18831SOL    HW261341   5.246   3.751   7.622 -0.2438  1.9425 -0.8906
18832SOL     OW61342   2.577   0.650   7.668 -0.5646 -0.2862 -0.1816
18832SOL    HW161343   2.661   0.668   7.711  0.2746 -2.3967 -0.8497
18832SOL    HW261344   2.591   0.673   7.576  0.0225 -2.6533 -0.7305
18833SOL     OW61345   7.429   3.444   6.987  0.2723  0.0020 -0.2898
18833SOL    HW161346   7.430   3.434   6.891 -0.4596 -2.5605 -0.1199
18833SOL    HW261347   7.521   3.435   7.012  0.1576 -3.3374 -0.5701
18834SOL     OW61348   5.016   2.493   9.085 -0.1288 -0.5411 -0.7683
18834SOL    HW161349   4.992   2.463   9.172 -1.5615  0.2504 -0.8684
18834SOL    HW261350   5.010   2.589   9.090  0.2710 -0.4586 -1.6013
18835SOL     OW61351   6.019   2.672   7.039  0.4698  0.3618 -0.1251
18835SOL    HW161352   6.044   2.748   7.091  0.4904  0.2289  0.0598
18835SOL    HW261353   6.096   2.616   7.038 -0.5487 -1.2721  2.6106
18836SOL     OW61354   5.370   1.513   8.598  0.0228 -0.1606  0.3875
18836SOL    HW161355   5.449   1.489   8.647  0.4499  1.0623  0.3424
18836SOL    HW261356   5.401   1.576   8.533 -0.7931 -0.6201 -0.4564
18837SOL     OW61357   8.005   4.291   7.608  0.2068 -0.1590 -0.0827
18837SOL    HW161358   8.083   4.345   7.624  0.0765  0.3512 -1.0791
18837SOL    HW261359   8.040   4.209   7.573  0.3429 -0.3007  0.3771
18838SOL     OW61360   6.362   4.652   9.563 -0.4088  0.1011 -0.0804
18838SOL    HW161361   6.412   4.720   9.609 -1.7028  1.0942 -0.0636
18838SOL    HW261362   6.340   4.589   9.632  0.7219 -0.2972 -0.0735
18839SOL     OW61363   7.743   1.997   7.054  0.0621 -0.0397  0.1382
18839SOL    HW161364   7.750   2.045   7.137  1.8488 -1.4674  0.8776
18839SOL    HW261365   7.665   1.942   7.066 -0.0288  0.1869  0.6377
18840SOL     OW61366   6.409   1.950   8.256  0.6623  0.4977  0.3179
18840SOL    HW161367   6.354   1.893   8.309 -0.4214  1.4122  0.2360
18840SOL    HW261368   6.498   1.935   8.288  0.3167 -0.6781  0.7769
18841SOL     OW61369   3.922   4.244   0.164 -0.2446  0.1398  0.0471
18841SOL    HW161370   3.964   4.330   0.155  0.7937 -0.2466  0.8525
18841SOL    HW261371   3.979   4.197   0.226 -2.1596 -0.2384  1.6311
18842SOL     OW61372   5.502   5.214   8.196 -0.1481  0.4040  0.3403
18842SOL    HW161373   5.508   5.294   8.249  0.2194  0.3152  0.4350
18842SOL    HW261374   5.437   5.161   8.241 -2.0222  1.5375 -0.8999
18843SOL     OW61375   7.560   3.583   6.378  0.2317 -0.2429 -0.4295
18843SOL    HW161376   7.488   3.627   6.332  0.8753 -1.5197 -2.7866
18843SOL    HW261377   7.619   3.654   6.403 -2.1822  0.9926  2.5049
18844SOL     OW61378   3.703   4.557   0.363 -0.4614  0.1478 -0.4059
18844SOL    HW161379   3.796   4.565   0.384 -0.5660  1.6403 -0.4004
18844SOL    HW261380   3.675   4.479   0.409  0.7113 -0.1324 -0.1283
18845SOL     OW61381   7.178   2.681   7.623  0.0748  0.4088 -0.0628
18845SOL    HW161382   7.207   2.594   7.650 -2.5856 -0.4476  0.3247
18845SOL    HW261383   7.249   2.714   7.568  1.6462 -1.5260  0.6852
18846SOL     OW61384   6.282   3.294   9.090  0.3086 -0.2474  0.0852
18846SOL    HW161385   6.338   3.293   9.012 -0.7661 -0.1724 -0.7013
18846SOL    HW261386   6.331   3.244   9.155  2.0262  1.1432 -0.0525
18847SOL     OW61387   5.640   2.061   7.991  0.3298  0.4105  0.3818
18847SOL    HW161388   5.584   2.007   7.936  0.7216  0.9438 -0.5577
18847SOL    HW261389   5.628   2.026   8.079  0.3834 -1.0396 -0.1639
18848SOL     OW61390   4.939   3.043   7.939  0.5706 -0.3305  0.3222
18848SOL    HW161391   4.882   3.113   7.969  1.4912 -0.4133  2.4473
18848SOL    HW261392   4.880   2.977   7.904 -0.5945 -0.0879  1.7534
18849SOL     OW61393   9.766   3.069   8.963 -0.6515  0.1596  0.0751
18849SOL    HW161394   9.791   3.152   8.922 -0.1069 -0.2380 -0.4199
18849SOL    HW261395   9.688   3.090   9.014 -1.5182  0.6155 -1.3687
18850SOL     OW61396   6.801   3.707   6.634 -0.3694  0.4785 -0.5270
18850SOL    HW161397   6.768   3.745   6.553 -1.2833  2.1797  0.5854
18850SOL    HW261398   6.737   3.732   6.700  1.7648  1.6444  1.2375
18851SOL     OW61399   8.248   3.347   9.013 -0.3969 -0.6411 -0.1033
18851SOL    HW161400   8.335   3.307   9.019 -0.2216 -0.6708 -2.1320
18851SOL    HW261401   8.196   3.285   8.962 -0.3438  1.2188 -2.6484
18852SOL     OW61402   5.574   9.181   0.316  0.2318 -0.0254 -0.0101
18852SOL    HW161403   5.612   9.162   0.231  1.3281  0.4532  0.3531
18852SOL    HW261404   5.516   9.107   0.334  0.8477 -0.6836 -0.6762
18853SOL     OW61405   5.848   2.078   7.641 -0.1438 -0.0190  0.1409
18853SOL    HW161406   5.904   2.076   7.719 -0.6112  0.1248  0.4849
18853SOL    HW261407   5.760   2.060   7.675 -0.0655 -2.0721 -0.6104
18854SOL     OW61408   6.461   1.623   9.494  0.2976 -0.1029 -0.3588
18854SOL    HW161409   6.533   1.629   9.557  0.3110 -0.3557 -0.3507
18854SOL    HW261410   6.503   1.624   9.409  0.2263  1.2784 -0.4060
18855SOL     OW61411   7.842   2.897   6.796 -0.2239  0.0941  0.2070
18855SOL    HW161412   7.799   2.965   6.848  0.5306 -0.7658  2.0310
18855SOL    HW261413   7.833   2.817   6.848  0.9200 -0.7349 -0.8054
18856SOL     OW61414   6.632   2.680   9.537 -0.2359  0.0756 -0.6620
18856SOL    HW161415   6.591   2.594   9.543  0.1686 -0.1381 -0.9547
18856SOL    HW261416   6.562   2.742   9.558 -0.8203 -0.2612 -1.5563
18857SOL     OW61417   8.058   4.235   8.897  0.6188 -0.0211 -0.3545
18857SOL    HW161418   8.110   4.156   8.882  0.4039 -0.2440  0.0739
18857SOL    HW261419   8.016   4.221   8.982 -1.5776 -0.6603 -1.4598
18858SOL     OW61420   6.326   0.720   8.614  0.4984 -0.1268 -0.2759
18858SOL    HW161421   6.297   0.768   8.691 -0.4333 -1.5504  0.2901
18858SOL    HW261422   6.276   0.758   8.542  0.4078  0.3158  0.0133
18859SOL     OW61423   5.233   2.114   8.377 -0.5240  0.3394  0.0609
18859SOL    HW161424   5.173   2.125   8.450 -2.1828 -1.5399 -0.9204
18859SOL    HW261425   5.250   2.020   8.373  0.2294  0.4963 -1.4335
18860SOL     OW61426   7.740   3.981   8.446  0.0780 -0.3081 -0.5439
18860SOL    HW161427   7.773   4.036   8.518  1.4924 -0.9002 -0.7145
18860SOL    HW261428   7.728   4.042   8.373 -0.0596  0.0702 -0.2088
18861SOL     OW61429   5.196   4.573   9.165 -0.7172 -0.5322 -0.4172
18861SOL    HW161430   5.237   4.620   9.093 -1.1495  0.7783  0.1671
18861SOL    HW261431   5.237   4.486   9.163  2.2586  0.7047  0.2242
18862SOL     OW61432   6.748   3.535   2.019 -0.0811  0.1773  0.5794
18862SOL    HW161433   6.675   3.593   2.042 -2.0953 -1.7515 -0.5984
18862SOL    HW261434   6.731   3.509   1.929  0.6904 -2.2501  1.0531
18863SOL     OW61435   8.338   2.258   8.133  0.1721  0.0022  0.3227
18863SOL    HW161436   8.260   2.203   8.125 -0.4649  0.3543  3.0346
18863SOL    HW261437   8.403   2.201   8.173  0.4771  0.4146  0.4173
18864SOL     OW61438   5.858   2.114   0.708  0.4789 -0.0396  0.1405
18864SOL    HW161439   5.888   2.168   0.781 -0.3494  1.5054 -0.6158
18864SOL    HW261440   5.879   2.025   0.734  0.5372  0.5023  2.0975
18865SOL     OW61441   6.515   2.663   8.972 -0.7948  0.1499 -0.5848
18865SOL    HW161442   6.453   2.654   9.045 -1.1737 -2.0968 -1.1208
18865SOL    HW261443   6.556   2.577   8.965  0.4386  0.8199 -1.9733
18866SOL     OW61444   5.259   2.819   8.277  0.0824  0.1915  0.3540
18866SOL    HW161445   5.251   2.908   8.244 -1.3339  0.3278  0.9624
18866SOL    HW261446   5.173   2.800   8.317  0.9491 -0.7554  1.9108
18867SOL     OW61447   6.005   2.985   9.393  0.0492 -0.0669 -0.4804
18867SOL    HW161448   6.101   2.982   9.394  0.0475 -0.1628  0.1547
18867SOL    HW261449   5.978   2.901   9.429 -0.3390 -1.1241 -3.0641
18868SOL     OW61450   6.029   1.322   6.870 -0.3462  0.3858 -0.3603
18868SOL    HW161451   5.989   1.247   6.914 -0.3803  0.5476 -0.1132
18868SOL    HW261452   6.099   1.283   6.817 -1.7631 -0.0758 -1.9751
18869SOL     OW61453   2.934   3.822   7.342  0.0007 -0.0071  0.2022
18869SOL    HW161454   2.910   3.730   7.349 -0.9049  0.3347  2.5851
18869SOL    HW261455   2.850   3.867   7.331  0.4029  0.5877 -0.5358
18870SOL     OW61456   5.092   4.206   1.293  0.1056  0.0200  0.4128
18870SOL    HW161457   5.052   4.190   1.379 -1.8255  0.1218 -0.4131
18870SOL    HW261458   5.180   4.237   1.313  0.4849 -2.0153  2.2994
18871SOL     OW61459   6.098   2.241   5.922 -0.4359 -0.2679 -0.3891
18871SOL    HW161460   6.145   2.242   5.839  0.3361 -0.4027  0.0343
18871SOL    HW261461   6.075   2.332   5.939  1.3988  0.1074  0.3332
18872SOL     OW61462   6.921   2.720   0.097  0.0003  0.2370 -0.1816
18872SOL    HW161463   6.973   2.799   0.082  1.9004 -0.5737  1.7689
18872SOL    HW261464   6.861   2.716   0.022  1.9636  1.8337 -1.9223
18873SOL     OW61465   8.592   3.354   8.057  0.6436 -0.0196 -0.4328
18873SOL    HW161466   8.564   3.343   7.967  2.1107 -1.6479 -0.7621
18873SOL    HW261467   8.675   3.402   8.051  0.1676  0.9136  0.1628
18874SOL     OW61468   5.334   1.594   8.168 -0.3770  0.3375  0.0424
18874SOL    HW161469   5.299   1.623   8.084  0.9883  2.3603  0.0844
18874SOL    HW261470   5.288   1.513   8.187 -0.4728 -0.3972 -2.8298
18875SOL     OW61471   6.149   3.805   6.402  0.0959 -0.3460 -0.5992
18875SOL    HW161472   6.172   3.749   6.327 -0.5117  0.6075 -1.5262
18875SOL    HW261473   6.210   3.778   6.471  0.8601 -1.0644 -1.5174
18876SOL     OW61474   6.595   1.372   7.520  0.5513  0.4896 -0.2572
18876SOL    HW161475   6.555   1.453   7.550  1.1170  0.3915  0.7752
18876SOL    HW261476   6.660   1.400   7.455  0.1858  0.7939 -0.4954
18877SOL     OW61477   7.424   1.076   6.983  0.4381 -0.2382  0.8119
18877SOL    HW161478   7.510   1.040   6.962  0.7589  1.0118 -0.0617
18877SOL    HW261479   7.363   1.028   6.927  0.5427 -1.1008  1.4083
18878SOL     OW61480   4.867   4.886   8.741 -0.0648 -0.4338  0.6309
18878SOL    HW161481   4.905   4.803   8.771 -0.4277 -0.1820  1.8249
18878SOL    HW261482   4.938   4.928   8.693 -0.7348 -2.7646 -2.7700
18879SOL     OW61483   6.677   1.998   7.943  0.3621 -0.8275 -0.1788
18879SOL    HW161484   6.766   1.969   7.960  0.9340  0.5261 -0.7695
18879SOL    HW261485   6.669   2.082   7.988 -0.8880 -1.3232  0.5626
18880SOL     OW61486   9.377   1.144   8.928  0.1797  0.2778  0.2676
18880SOL    HW161487   9.407   1.217   8.875 -1.1981  1.9500  1.6635
18880SOL    HW261488   9.452   1.122   8.984  0.3310  1.2511  0.4577
18881SOL     OW61489   7.410   3.550   8.334  0.4188 -0.3298 -0.1899
18881SOL    HW161490   7.417   3.592   8.248 -0.6966 -1.6905 -0.9881
18881SOL    HW261491   7.318   3.558   8.357  0.7387  0.1539  0.9665
18882SOL     OW61492   7.600   5.093   9.593  0.0242 -0.3997 -0.1916
18882SOL    HW161493   7.517   5.135   9.570  0.0529 -0.1792  0.1085
18882SOL    HW261494   7.625   5.133   9.676  0.7504 -0.0096 -0.5889
18883SOL     OW61495   6.191   1.550   8.422  0.3395 -0.0580  0.5136
18883SOL    HW161496   6.224   1.480   8.478  0.8261 -0.7986 -0.6697
18883SOL    HW261497   6.097   1.533   8.415  0.0927  0.5913  1.8317
18884SOL     OW61498   9.357   2.050   7.414 -0.3180 -0.5784 -0.2260
18884SOL    HW161499   9.394   1.974   7.460 -1.0460 -1.4802 -1.0758
18884SOL    HW261500   9.418   2.121   7.433  0.6274 -1.4752  0.2391
18885SOL     OW61501   7.717   3.089   6.961 -0.1053 -0.5689 -0.6194
18885SOL    HW161502   7.738   3.168   6.910 -0.2685  0.1201  0.3452
18885SOL    HW261503   7.736   3.114   7.052 -0.4937 -1.5336 -0.2669
18886SOL     OW61504   7.823   2.462   6.416 -0.1933 -0.4990  0.1355
18886SOL    HW161505   7.892   2.507   6.464  1.6038 -0.3242 -2.3877
18886SOL    HW261506   7.778   2.409   6.482  1.5242  0.3699  2.1175
18887SOL     OW61507   4.679   4.177   9.419 -0.7300 -0.0862 -0.4122
18887SOL    HW161508   4.702   4.239   9.488  0.2187 -0.4179 -0.4156
18887SOL    HW261509   4.603   4.130   9.453  0.5814 -1.2622  1.0931
18888SOL     OW61510   6.558   2.066   0.477 -0.1131 -0.2648  0.3238
18888SOL    HW161511   6.639   2.018   0.494 -0.0147 -0.1099  0.2981
18888SOL    HW261512   6.586   2.144   0.428 -0.3663 -0.6100 -0.3831
18889SOL     OW61513   6.521   2.386   6.572 -0.2872  0.7337 -0.5060
18889SOL    HW161514   6.547   2.382   6.664  0.7434  4.1391 -0.5275
18889SOL    HW261515   6.584   2.330   6.527 -1.0675 -1.3278  0.8155
18890SOL     OW61516   5.649   0.414   0.247  0.5977 -0.2444 -0.5484
18890SOL    HW161517   5.573   0.356   0.241 -0.2163  0.7931 -0.6872
18890SOL    HW261518   5.642   0.471   0.170  1.1050  0.3358 -0.1786
18891SOL     OW61519   3.892   1.299   7.309 -0.1564 -0.3094 -0.2072
18891SOL    HW161520   3.892   1.228   7.374 -0.5020 -1.4504 -1.4050
18891SOL    HW261521   3.976   1.343   7.323 -0.1993 -0.5511  0.9682
18892SOL     OW61522   6.904   3.378   7.452 -0.2179  0.8261 -0.6791
18892SOL    HW161523   6.855   3.300   7.479 -1.7551  1.7071 -0.8054
18892SOL    HW261524   6.956   3.401   7.529 -1.5142  0.9932  0.1766
18893SOL     OW61525   6.295   4.235   7.075  0.3820  0.3607 -0.2654
18893SOL    HW161526   6.235   4.161   7.084  1.2895 -0.6072 -1.7220
18893SOL    HW261527   6.241   4.312   7.093 -1.2033 -0.5076 -1.0544
18894SOL     OW61528   6.463   2.387   8.235 -0.2183 -0.1034 -0.2993
18894SOL    HW161529   6.442   2.322   8.167  1.9357 -0.9727 -0.2323
18894SOL    HW261530   6.380   2.431   8.253 -1.0397 -0.3955 -2.9067
18895SOL     OW61531   5.267   4.830   8.065  0.1280  0.5999  0.6696
18895SOL    HW161532   5.267   4.925   8.077  1.6465  0.8088 -0.6290
18895SOL    HW261533   5.182   4.802   8.098 -0.3907  2.4103  1.0035
18896SOL     OW61534   6.482   1.624   8.338  0.4145 -1.2151  0.1920
18896SOL    HW161535   6.401   1.595   8.380 -0.2366 -0.7000 -0.6855
18896SOL    HW261536   6.505   1.705   8.383  0.1422 -1.0782  0.0877
18897SOL     OW61537   5.811   1.432   8.747  0.3657 -0.0587 -0.4916
18897SOL    HW161538   5.903   1.430   8.776  0.6675 -0.2849 -1.4220
18897SOL    HW261539   5.816   1.451   8.653 -0.5493  0.0337 -0.5276
18898SOL     OW61540   7.767   3.202   8.467  0.5327 -0.1832 -0.1921
18898SOL    HW161541   7.806   3.219   8.381 -2.0651 -0.5105 -1.5238
18898SOL    HW261542   7.675   3.225   8.457  0.1371 -0.2488  2.5294
18899SOL     OW61543   7.635   9.083   5.347  0.1282  0.1672  0.0029
18899SOL    HW161544   7.657   9.091   5.254 -0.6282 -0.0341 -0.2043
18899SOL    HW261545   7.674   9.160   5.388  2.3913 -0.8434 -0.0857
18900SOL     OW61546   4.598   3.514   8.095  0.3245  0.5954 -0.1826
18900SOL    HW161547   4.568   3.540   8.008 -0.1374  1.2434  0.1600
18900SOL    HW261548   4.639   3.593   8.131  0.2695  0.4140  0.2917
18901SOL     OW61549   7.413   1.450   9.836  0.5430  0.1215 -0.4885
18901SOL    HW161550   7.368   1.533   9.819  0.1932  1.1339  4.2541
18901SOL    HW261551   7.343   1.385   9.842  0.5186  0.1148 -0.7881
18902SOL     OW61552   5.492   1.516   9.457 -0.4700 -0.3223  0.4272
18902SOL    HW161553   5.585   1.508   9.437 -0.6739 -2.3676  0.0473
18902SOL    HW261554   5.489   1.523   9.553  0.0892 -0.1540  0.4351
18903SOL     OW61555   6.618   4.394   0.982  0.4289 -0.0646 -0.3763
18903SOL    HW161556   6.568   4.322   0.943  0.7322 -0.5533  0.1230
18903SOL    HW261557   6.553   4.462   0.998 -0.1995 -0.9323  0.8354
18904SOL     OW61558   7.707   2.130   6.469  0.1961  0.2135  0.2906
18904SOL    HW161559   7.775   2.079   6.425  1.2589  1.3407  0.5682
18904SOL    HW261560   7.654   2.166   6.397  0.5574  0.2102  0.0195
18905SOL     OW61561   7.251   2.550   7.917  0.0418  0.1396 -0.3504
18905SOL    HW161562   7.240   2.538   8.011 -2.1967  0.0476 -0.5689
18905SOL    HW261563   7.343   2.574   7.906 -0.0754  1.9979  2.0487
18906SOL     OW61564   5.980   3.280   6.991 -0.3319 -0.2292 -0.6064
18906SOL    HW161565   5.985   3.257   7.083  0.0609  1.4266 -0.1670
18906SOL    HW261566   5.902   3.236   6.959  0.7961 -2.7408 -0.1103
18907SOL     OW61567   7.970   3.183   7.841 -0.0467 -0.2055  0.1786
18907SOL    HW161568   7.885   3.186   7.886  0.7129  0.7380  1.6298
18907SOL    HW261569   8.020   3.117   7.889  0.1138 -0.6536 -0.5821
18908SOL     OW61570   6.971   1.500   9.013  0.0910 -0.1331  1.0246
18908SOL    HW161571   6.911   1.451   8.957  1.9027 -1.6643  0.3290
18908SOL    HW261572   6.935   1.490   9.101 -2.2159  1.4318  0.3447
18909SOL     OW61573   9.090   1.050   8.580  0.0352 -0.3103  0.3454
18909SOL    HW161574   9.099   1.125   8.639 -1.5474 -1.0063  1.5715
18909SOL    HW261575   9.048   0.982   8.634  1.3580 -2.0679 -0.7403
18910SOL     OW61576   6.410   5.181   6.712 -0.3358 -0.3798  0.3345
18910SOL    HW161577   6.381   5.143   6.795 -1.3468  0.4332  0.3648
18910SOL    HW261578   6.336   5.234   6.683 -0.3646 -1.3958 -1.5726
18911SOL     OW61579   6.236   1.808   8.425 -0.3331 -0.1617 -0.0934
18911SOL    HW161580   6.213   1.716   8.439  0.2853 -0.6333 -1.9115
18911SOL    HW261581   6.283   1.833   8.504  0.0112 -1.5972  0.1907
18912SOL     OW61582   7.229   2.809   8.873 -0.2562  0.3342 -0.3909
18912SOL    HW161583   7.167   2.858   8.928 -0.4378 -0.8406  0.4908
18912SOL    HW261584   7.175   2.745   8.828  0.2418 -0.3815  0.0170
18913SOL     OW61585   6.656   2.326   8.763 -0.1059  0.0063  0.1472
18913SOL    HW161586   6.634   2.398   8.704 -1.5641 -3.2241 -3.7599
18913SOL    HW261587   6.750   2.313   8.750 -0.2002  0.0476 -0.6516
18914SOL     OW61588   0.213   2.791   7.253 -0.4068  0.5198 -0.5335
18914SOL    HW161589   0.230   2.756   7.165  0.5519 -1.8553  0.4902
18914SOL    HW261590   0.258   2.875   7.254  0.7390 -0.0254 -1.9037
18915SOL     OW61591   8.758   1.330   7.518  0.0585  0.2990  0.5386
18915SOL    HW161592   8.825   1.319   7.451  0.7023 -3.1141  1.5736
18915SOL    HW261593   8.676   1.337   7.469  0.6951 -0.2881 -0.6497
18916SOL     OW61594   6.454   2.907   8.890  0.4380 -0.1419 -0.0070
18916SOL    HW161595   6.495   2.825   8.919  1.4683  0.6498  0.8878
18916SOL    HW261596   6.388   2.925   8.957  0.5610  0.0194  0.0704
18917SOL     OW61597   7.091   3.147   8.065 -0.1977 -0.0924 -0.9801
18917SOL    HW161598   7.047   3.090   8.128 -0.4508 -0.1890 -1.2437
18917SOL    HW261599   7.124   3.087   7.998  0.8398 -0.0868 -0.4945
18918SOL     OW61600   4.612   5.695   7.439 -0.2557  0.0204 -0.1102
18918SOL    HW161601   4.653   5.763   7.386 -1.4196 -0.0242 -1.1284
18918SOL    HW261602   4.603   5.620   7.379 -2.7722  0.3918 -0.3118
18919SOL     OW61603   6.659   3.341   9.457  0.0824 -0.5115 -0.5392
18919SOL    HW161604   6.745   3.360   9.493 -0.5294 -1.4636  1.6113
18919SOL    HW261605   6.610   3.423   9.466  0.0984 -0.5951  0.4005
18920SOL     OW61606   6.310   2.702   7.764 -0.6636 -0.4306  0.3003
18920SOL    HW161607   6.359   2.707   7.846 -0.1460 -0.3535 -0.0062
18920SOL    HW261608   6.257   2.781   7.762  0.5848  0.4280 -0.2197
18921SOL     OW61609   9.211   4.623   9.452 -0.4209 -0.1069 -0.4236
18921SOL    HW161610   9.167   4.569   9.386  2.5157 -1.0267 -1.7685
18921SOL    HW261611   9.219   4.566   9.529 -1.5343  0.0877 -0.1441
18922SOL     OW61612   6.271   0.658   9.372  0.1651  0.4095  0.0662
18922SOL    HW161613   6.352   0.613   9.395  0.2491  0.3570 -0.3238
18922SOL    HW261614   6.202   0.597   9.395  0.3156 -0.3447 -1.3800
18923SOL     OW61615   4.727   4.573   7.644  0.6394  0.3161 -0.2459
18923SOL    HW161616   4.780   4.621   7.707  2.0783  0.3126 -1.3955
18923SOL    HW261617   4.790   4.537   7.582 -0.7610  2.1299 -2.9705
18924SOL     OW61618   5.900   3.803   5.818 -0.1320 -0.3120  0.5253
18924SOL    HW161619   5.941   3.816   5.732  2.5075 -1.6433  1.4866
18924SOL    HW261620   5.890   3.892   5.853 -0.3593  0.1861 -0.7359
18925SOL     OW61621   5.284   3.078   8.446 -0.1077 -0.3460  0.0984
18925SOL    HW161622   5.380   3.081   8.446 -0.0543 -1.5250 -0.6003
18925SOL    HW261623   5.259   3.109   8.359 -0.7248  6.0638  2.0002
18926SOL     OW61624   5.011   0.220   0.232 -0.4756  0.1879 -0.1823
18926SOL    HW161625   5.025   0.314   0.236  0.6462  0.0947 -1.3327
18926SOL    HW261626   5.023   0.190   0.322 -2.8313  1.3510  0.6270
18927SOL     OW61627   5.206   3.893   6.372 -0.2417 -0.0342  0.3131
18927SOL    HW161628   5.264   3.927   6.440  1.9780 -2.1190 -0.4152
18927SOL    HW261629   5.233   3.939   6.292 -0.4269 -0.1381  0.1890
18928SOL     OW61630   6.271   1.136   8.821  0.2298 -0.2244  0.1020
18928SOL    HW161631   6.358   1.159   8.851 -0.4897  0.9797  1.3866
18928SOL    HW261632   6.219   1.128   8.901 -0.4586 -2.7243 -0.5190
18929SOL     OW61633   4.805   3.292   8.619 -0.3510 -0.2742 -0.1067
18929SOL    HW161634   4.884   3.279   8.567 -1.7362 -3.4022 -1.6758
18929SOL    HW261635   4.761   3.367   8.577  0.0230 -0.8580 -1.6186
18930SOL     OW61636   8.771   3.267   6.444 -0.3368 -0.7116  0.2034
18930SOL    HW161637   8.768   3.210   6.367  1.0708  0.3693 -0.7253
18930SOL    HW261638   8.854   3.245   6.487  0.0359  0.3197  0.0512
18931SOL     OW61639   8.587   1.996   9.784 -0.4445 -0.4617  0.5055
18931SOL    HW161640   8.584   2.035   9.697  0.2596 -0.3306  0.5331
18931SOL    HW261641   8.680   1.984   9.802 -0.4355  1.5193  2.1319
18932SOL     OW61642   6.528   4.780   7.990  0.2530 -0.3340 -0.3441
18932SOL    HW161643   6.567   4.865   7.967 -0.1429 -0.0482  0.0293
18932SOL    HW261644   6.583   4.716   7.945 -0.8362  0.2299 -2.6551
18933SOL     OW61645   4.602   6.759   7.294  0.5106 -0.3968  0.0612
18933SOL    HW161646   4.610   6.757   7.198  1.8479  2.4522 -0.0007
18933SOL    HW261647   4.508   6.748   7.310  0.2066 -0.5265 -1.6129
18934SOL     OW61648   4.263   5.681   9.581  0.4629 -0.0299  0.0702
18934SOL    HW161649   4.263   5.667   9.676 -1.8077  0.2630  0.1661
18934SOL    HW261650   4.181   5.726   9.564  0.1051 -1.4362 -2.2440
18935SOL     OW61651   7.555   1.714   8.931 -0.5091  0.0553  0.1624
18935SOL    HW161652   7.649   1.725   8.917  0.0834 -2.0402  1.9656
18935SOL    HW261653   7.546   1.700   9.025 -2.8992  2.0758  0.3514
18936SOL     OW61654   6.909   2.448   0.506 -0.1676  0.1080 -0.1535
18936SOL    HW161655   6.890   2.494   0.424  1.5276 -0.0397 -0.6481
18936SOL    HW261656   6.964   2.509   0.556  0.0308 -0.3925  0.2489
18937SOL     OW61657   8.701   1.210   0.449  0.0626  0.3807 -0.4241
18937SOL    HW161658   8.657   1.295   0.459 -2.3399 -0.8508  0.2722
18937SOL    HW261659   8.716   1.180   0.539 -0.4928 -0.5934 -0.6498
18938SOL     OW61660   8.439   2.934   7.182 -0.2061 -0.2778 -0.0151
18938SOL    HW161661   8.469   2.847   7.208  1.7332  0.3123 -0.0746
18938SOL    HW261662   8.348   2.922   7.155 -0.7437 -1.8259  2.2665
18939SOL     OW61663   3.430   3.498   9.753  0.1357  0.2056 -0.1518
18939SOL    HW161664   3.364   3.559   9.787 -0.4204  0.5432 -1.7205
18939SOL    HW261665   3.417   3.418   9.802 -0.2527  0.8255  0.7844
18940SOL     OW61666   8.055   0.475   2.104  0.2351 -0.0393 -0.0802
18940SOL    HW161667   8.000   0.396   2.102 -1.3650  0.8457  2.8842
18940SOL    HW261668   7.993   0.547   2.117  1.8600  1.4375 -0.1530
18941SOL     OW61669   6.838   1.128   8.374  0.0580  0.5241  0.0088
18941SOL    HW161670   6.835   1.117   8.279  1.1086  1.8556 -0.2084
18941SOL    HW261671   6.768   1.190   8.393 -1.8047 -1.5779  0.4679
18942SOL     OW61672   7.527   9.794   7.457  0.0453  0.0249 -0.1072
18942SOL    HW161673   7.601   9.770   7.512  1.1974 -0.4616 -1.8070
18942SOL    HW261674   7.523   9.890   7.462 -0.3936 -0.0435  1.4254
18943SOL     OW61675   3.426   2.781   7.958 -0.4811 -0.2167  0.4914
18943SOL    HW161676   3.497   2.725   7.928 -1.0402 -0.6673 -0.0029
18943SOL    HW261677   3.350   2.754   7.907 -0.9399  0.4711  0.7926
18944SOL     OW61678   6.803   2.213   0.305  0.3025  0.3684  0.4139
18944SOL    HW161679   6.782   2.290   0.251 -0.0494 -0.0918 -0.1074
18944SOL    HW261680   6.766   2.139   0.257  0.4956 -0.1123  1.0004
18945SOL     OW61681   4.925   3.822   7.115  0.2164 -0.5722  0.2547
18945SOL    HW161682   4.889   3.846   7.201 -0.4424  2.6649 -0.7869
18945SOL    HW261683   4.916   3.901   7.063  0.8540 -2.3430 -2.7673
18946SOL     OW61684   7.828   1.598   7.944  0.2136 -0.8214 -0.3974
18946SOL    HW161685   7.866   1.663   8.002 -1.5366 -0.4030  0.3368
18946SOL    HW261686   7.903   1.549   7.911  1.3441 -0.3498  1.3395
18947SOL     OW61687   7.342   3.188   9.143 -0.0727  0.1843  0.2584
18947SOL    HW161688   7.399   3.185   9.066 -0.8536  0.8379 -0.3722
18947SOL    HW261689   7.360   3.107   9.190 -2.0294 -1.9950 -2.3984
18948SOL     OW61690   7.372   3.846   8.336  0.0730  0.0116 -0.4640
18948SOL    HW161691   7.448   3.804   8.295  2.0434  2.2179  0.7543
18948SOL    HW261692   7.342   3.910   8.271  1.2359  1.3193  0.2675
18949SOL     OW61693   7.982   3.580   8.437 -0.6268  0.1317 -0.5325
18949SOL    HW161694   7.899   3.628   8.440 -1.5317 -1.3996  0.1643
18949SOL    HW261695   8.022   3.598   8.522 -0.0202  1.2161 -1.0334
18950SOL     OW61696   3.753   2.183   9.100  0.0035 -0.4405 -0.1152
18950SOL    HW161697   3.782   2.205   9.189  0.2684  0.3361 -0.3838
18950SOL    HW261698   3.665   2.149   9.111  0.3227 -1.0786  0.5283
18951SOL     OW61699   4.106   3.050   5.534 -0.2829  0.4100  0.2514
18951SOL    HW161700   4.193   3.010   5.528 -1.1418 -1.4428 -0.3738
18951SOL    HW261701   4.079   3.035   5.624 -0.0629  0.8015  0.3875
18952SOL     OW61702   6.750   5.010   7.152  0.0639 -0.0239 -0.4275
18952SOL    HW161703   6.682   4.974   7.210 -1.3510  1.0800 -1.3233
18952SOL    HW261704   6.756   5.102   7.178  0.7874  0.0367 -0.7861
18953SOL     OW61705   8.172   1.658   7.413 -0.5555 -0.5935  0.0643
18953SOL    HW161706   8.210   1.572   7.430  0.1469 -0.3294 -0.1598
18953SOL    HW261707   8.222   1.693   7.339 -1.8351 -0.6211 -0.8586
18954SOL     OW61708   4.754   2.636   9.231  0.8051  0.1150 -0.1360
18954SOL    HW161709   4.829   2.628   9.290  0.8490 -1.3515 -0.3417
18954SOL    HW261710   4.756   2.727   9.200  0.7248  0.9431  2.1534
18955SOL     OW61711   5.365   4.371   7.443  0.2170 -0.4587 -0.3564
18955SOL    HW161712   5.357   4.343   7.534  0.3569 -2.8327 -0.9977
18955SOL    HW261713   5.453   4.409   7.438  0.9204 -1.9397  0.1503
18956SOL     OW61714   6.122   2.184   7.877 -0.7532  0.7474 -0.1847
18956SOL    HW161715   6.051   2.124   7.901 -1.3096  0.4396 -2.3522
18956SOL    HW261716   6.199   2.149   7.922 -1.8390  0.8358  1.8832
18957SOL     OW61717   6.771   2.313   6.546 -0.0982  0.0588  0.1683
18957SOL    HW161718   6.838   2.296   6.479  0.1979 -1.8002  0.8726
18957SOL    HW261719   6.821   2.318   6.628 -0.7650 -1.2282  0.6859
18958SOL     OW61720   7.047   4.503   6.107 -0.0588  0.4457  0.5197
18958SOL    HW161721   6.997   4.548   6.038  0.1151 -1.2695 -0.7829
18958SOL    HW261722   7.007   4.416   6.113  2.4728 -0.8863 -0.3294
18959SOL     OW61723   4.055   3.068   8.344  0.2784 -0.6376 -0.3454
18959SOL    HW161724   3.995   3.077   8.270  0.7093  1.0511 -0.5345
18959SOL    HW261725   4.019   2.996   8.395 -1.4718 -0.2035 -0.8874
18960SOL     OW61726   7.949   4.617   0.158  0.4701  0.1670 -0.3566
18960SOL    HW161727   7.960   4.537   0.107 -3.3582  0.2830 -1.6679
18960SOL    HW261728   7.987   4.686   0.104  0.6112 -0.3263 -0.8927
18961SOL     OW61729   6.913   1.495   9.311  0.3052 -0.2499 -0.2332
18961SOL    HW161730   6.937   1.403   9.321  0.2543 -0.4857 -1.8759
18961SOL    HW261731   6.925   1.534   9.397  0.6280 -1.7282  0.4063
18962SOL     OW61732   4.414   1.516   9.504  0.0964  0.2843 -0.4053
18962SOL    HW161733   4.508   1.511   9.520  0.1849 -1.4766 -1.2326
18962SOL    HW261734   4.380   1.431   9.533 -1.2300  0.8511 -0.2157
18963SOL     OW61735   8.745   2.777   9.013  0.0091  0.3146  0.0073
18963SOL    HW161736   8.739   2.867   9.044 -1.1111 -0.0744  1.0133
18963SOL    HW261737   8.719   2.724   9.089 -1.2067 -0.7532 -1.0937
18964SOL     OW61738   6.462   3.087   9.682  0.5831 -0.3226 -0.4320
18964SOL    HW161739   6.533   3.056   9.737 -0.7173 -0.8553  1.0160
18964SOL    HW261740   6.455   3.022   9.612  2.0887  0.2289 -1.1384
18965SOL     OW61741   5.775   4.830   7.898 -0.0791  0.3657 -0.0165
18965SOL    HW161742   5.836   4.863   7.964  0.2688 -0.7809  0.2609
18965SOL    HW261743   5.690   4.832   7.941  0.4274 -2.3964  1.3031
18966SOL     OW61744   9.300   2.664   9.328 -0.2226 -0.6421 -0.1507
18966SOL    HW161745   9.247   2.693   9.253 -0.5329  1.1280  0.7054
18966SOL    HW261746   9.370   2.728   9.334  2.2686 -3.0678 -1.3802
18967SOL     OW61747   4.361   1.936   8.673 -0.2218  0.2404 -0.3379
18967SOL    HW161748   4.319   1.853   8.651  0.3702 -0.5903  1.4733
18967SOL    HW261749   4.439   1.911   8.724  1.3727  1.8132 -1.8437
18968SOL     OW61750   5.417   1.830   5.797 -0.3350  0.3929 -0.0665
18968SOL    HW161751   5.382   1.890   5.731  0.6141 -1.0233 -1.9403
18968SOL    HW261752   5.340   1.785   5.832 -0.8190  0.8686 -0.4931
18969SOL     OW61753   2.504   1.878   9.443  0.3123 -0.0175 -0.3079
18969SOL    HW161754   2.467   1.813   9.502  0.7569 -0.3055 -0.3407
18969SOL    HW261755   2.503   1.836   9.357 -0.7305  0.5595 -0.5886
18970SOL     OW61756   7.111   2.953   9.102  0.2992 -0.1774  0.4697
18970SOL    HW161757   7.068   2.925   9.183  0.2375  1.3568  1.0070
18970SOL    HW261758   7.204   2.959   9.125  0.2570  0.4528  0.4983
18971SOL     OW61759   8.444   0.938   8.952  0.4506 -0.7659 -0.3792
18971SOL    HW161760   8.376   0.907   9.012 -0.0020 -1.3653 -1.1904
18971SOL    HW261761   8.460   1.029   8.979 -0.2132 -0.8173  0.2212
18972SOL     OW61762   6.554   5.094   1.811  0.3865  0.0564 -0.7155
18972SOL    HW161763   6.519   5.183   1.816 -2.5014 -0.9655 -0.9094
18972SOL    HW261764   6.519   5.059   1.729 -0.7694 -2.0672  0.5848
18973SOL     OW61765   7.866   4.303   9.383 -0.2710 -0.1621  0.0895
18973SOL    HW161766   7.819   4.348   9.313  0.1026  0.1950  0.0656
18973SOL    HW261767   7.797   4.269   9.440 -0.6861 -2.4622 -1.6446
18974SOL     OW61768   5.735   3.156   6.931 -0.2038 -0.1133 -0.7011
18974SOL    HW161769   5.725   3.061   6.935  0.7203 -0.2939 -1.9157
18974SOL    HW261770   5.675   3.184   6.861 -1.5265  0.4035  0.5863
18975SOL     OW61771   5.837   3.248   8.922 -0.6533  0.2211 -0.3777
18975SOL    HW161772   5.886   3.321   8.960  2.4109 -1.3382 -1.0207
18975SOL    HW261773   5.768   3.229   8.985  0.2039  1.8674  1.1407
18976SOL     OW61774   6.139   1.020   6.370  0.1547  0.0184 -0.6648
18976SOL    HW161775   6.164   1.106   6.402  0.6946 -0.5339  0.4500
18976SOL    HW261776   6.187   1.010   6.288  0.2128  0.6988 -0.7224
18977SOL     OW61777   6.041   4.396   6.601 -0.2542  1.1033  0.7790
18977SOL    HW161778   6.076   4.339   6.668  2.5477  1.8735  0.1091
18977SOL    HW261779   6.100   4.472   6.601  0.7307  0.5812 -3.3165
18978SOL     OW61780   6.099   3.633   9.016  0.1081  0.1501 -0.0401
18978SOL    HW161781   6.067   3.663   8.931 -2.6017 -0.1458  0.7555
18978SOL    HW261782   6.056   3.548   9.029  1.1331 -0.2008  1.2615
18979SOL     OW61783   6.541   2.867   5.946  0.4516 -0.6387  1.3578
18979SOL    HW161784   6.480   2.793   5.944  1.4492 -1.4797  0.4140
18979SOL    HW261785   6.608   2.841   6.009  1.0462 -0.7576  0.6913
18980SOL     OW61786   7.907   2.651   8.857  0.3689 -0.6189 -0.1963
18980SOL    HW161787   7.938   2.563   8.832 -0.3422 -0.7409 -0.6731
18980SOL    HW261788   7.891   2.645   8.951 -0.9073 -1.3940 -0.4381
18981SOL     OW61789   3.733   1.924   5.163 -0.2373  0.2360  0.6361
18981SOL    HW161790   3.775   1.843   5.134  0.6503  0.5880  0.9174
18981SOL    HW261791   3.693   1.902   5.247  0.2993  0.1716  0.8809
18982SOL     OW61792   4.355   4.284   6.942  0.3198  0.5841 -0.3605
18982SOL    HW161793   4.368   4.225   7.015 -0.6791 -0.5273 -1.0398
18982SOL    HW261794   4.278   4.336   6.966 -0.2317 -0.0324 -0.7504
18983SOL     OW61795   8.290   1.917   6.967  0.0973 -0.3108  0.2621
18983SOL    HW161796   8.260   1.884   7.051  1.1715  0.8413  1.1328
18983SOL    HW261797   8.385   1.906   6.969  0.1556 -0.1551 -0.7556
18984SOL     OW61798   6.704   2.543   5.623 -0.1847  0.4843 -0.3161
18984SOL    HW161799   6.664   2.556   5.709 -1.0694 -0.8719 -0.4959
18984SOL    HW261800   6.727   2.631   5.594 -1.4230  1.1273  0.5743
18985SOL     OW61801   6.881   5.160   9.166  0.0706 -0.2807  0.2254
18985SOL    HW161802   6.853   5.236   9.217  0.7798 -0.6573  1.2104
18985SOL    HW261803   6.964   5.133   9.206 -1.1997 -2.9080  1.4100
18986SOL     OW61804   6.154   1.804   8.919  0.1860  0.0189  0.0924
18986SOL    HW161805   6.173   1.737   8.984 -0.6554 -1.3786 -1.0531
18986SOL    HW261806   6.150   1.886   8.969 -0.5058 -1.0196  1.8041
18987SOL     OW61807   7.203   1.660   9.464 -0.4943  0.3389  0.3045
18987SOL    HW161808   7.199   1.565   9.450  1.0446  0.1283  1.0293
18987SOL    HW261809   7.224   1.696   9.378  1.4201 -0.2408  0.4833
18988SOL     OW61810   5.728   0.588   4.088 -0.7660 -0.8082  0.2723
18988SOL    HW161811   5.673   0.540   4.025  0.0089  0.6685 -1.6437
18988SOL    HW261812   5.781   0.646   4.033 -0.6590  1.2088  2.3827
18989SOL     OW61813   6.012   2.623   8.433  0.3592  0.1918 -0.0002
18989SOL    HW161814   5.946   2.635   8.364 -2.3999  0.7357  2.5178
18989SOL    HW261815   6.053   2.709   8.442  1.1935 -0.0333 -1.2719
18990SOL     OW61816   4.637   3.264   9.087 -0.5338 -0.1630  0.1769
18990SOL    HW161817   4.588   3.239   9.008 -1.5220  1.0838  0.3558
18990SOL    HW261818   4.587   3.337   9.124  1.1054  0.7284  0.7539
18991SOL     OW61819   7.993   2.425   8.696 -0.0719  0.0836 -0.4530
18991SOL    HW161820   7.913   2.378   8.672  0.7938 -0.9222 -1.4190
18991SOL    HW261821   8.054   2.358   8.725  0.2308  0.9071  0.8961
18992SOL     OW61822   6.697   1.658   9.660 -0.3131 -0.1453 -0.7016
18992SOL    HW161823   6.783   1.682   9.624 -0.1294  0.5885  0.1925
18992SOL    HW261824   6.712   1.573   9.701  0.7744  1.2027  1.9458
18993SOL     OW61825   5.431   1.188   6.921 -0.1452  0.0144  0.7953
18993SOL    HW161826   5.513   1.187   6.872 -0.0816  0.4605  0.8900
18993SOL    HW261827   5.456   1.212   7.010 -0.5137  1.3556  0.5565
18994SOL     OW61828   4.761   4.017   6.657 -0.0620  0.1053  0.0707
18994SOL    HW161829   4.738   4.028   6.565 -2.1257 -1.5892  0.3239
18994SOL    HW261830   4.687   4.056   6.705  0.5733  0.1843  1.0168
18995SOL     OW61831   3.729   4.131   8.923  0.0940 -0.0998  0.8116
18995SOL    HW161832   3.676   4.103   8.998 -2.7951 -1.0081 -1.3583
18995SOL    HW261833   3.817   4.140   8.958 -0.7526 -2.1267  3.9340
18996SOL     OW61834   5.222   0.860   0.267 -0.3691 -0.4594 -0.4585
18996SOL    HW161835   5.136   0.891   0.297 -0.6970 -1.6825 -0.1070
18996SOL    HW261836   5.203   0.801   0.195  0.2820  0.3488 -1.3276
18997SOL     OW61837   5.536   2.850   7.665 -0.3379  0.1569  0.1990
18997SOL    HW161838   5.550   2.845   7.759 -0.3491 -0.4702  0.1738
18997SOL    HW261839   5.617   2.814   7.627  0.6637  2.5292 -0.0995
18998SOL     OW61840   9.261   2.355   9.056 -0.2681 -0.1506  0.1310
18998SOL    HW161841   9.238   2.266   9.083  0.0817  0.1731  1.5621
18998SOL    HW261842   9.258   2.352   8.960  0.4753 -1.9002  0.1171
18999SOL     OW61843   4.427   4.043   7.906  0.2905 -0.4277 -0.4619
18999SOL    HW161844   4.370   4.119   7.920  2.1416  0.7909  0.8658
18999SOL    HW261845   4.385   3.973   7.955  0.5294  0.7897  1.6005
19000SOL     OW61846   6.732   3.163   7.797  0.1765 -0.0584 -0.0194
19000SOL    HW161847   6.775   3.115   7.725 -0.9174 -2.5087  0.8429
19000SOL    HW261848   6.692   3.094   7.851 -2.9652  1.9078  0.4249
19001SOL     OW61849   6.983   3.391   5.404  0.8629 -0.3950 -0.6523
19001SOL    HW161850   6.962   3.321   5.465  1.0988  0.0331 -0.0665
19001SOL    HW261851   6.899   3.415   5.366  0.0219  1.7450  2.1565
19002SOL     OW61852   6.401   4.091   9.430  0.3569 -0.2568  0.1152
19002SOL    HW161853   6.446   4.131   9.355  0.9091 -1.3895 -0.1793
19002SOL    HW261854   6.434   4.001   9.432 -1.7879 -1.0945  0.0015
19003SOL     OW61855   5.130   1.608   8.747  0.0813  0.2097 -0.4693
19003SOL    HW161856   5.077   1.680   8.713  0.5142  1.5572  1.5467
19003SOL    HW261857   5.220   1.631   8.724  0.2713  0.6152  0.5910
19004SOL     OW61858   8.320   2.431   8.361  0.4601 -0.2073  0.1006
19004SOL    HW161859   8.279   2.512   8.334 -0.0608 -0.3775  0.3712
19004SOL    HW261860   8.316   2.374   8.284  1.1377  0.1363 -0.1989
19005SOL     OW61861   6.283   2.187   1.091  0.2414 -0.4097 -0.5280
19005SOL    HW161862   6.263   2.205   0.999 -0.3994 -0.1234 -0.3390
19005SOL    HW261863   6.370   2.147   1.089  0.7333  0.6443 -1.1556
19006SOL     OW61864   7.300   2.840   9.483 -0.1984 -0.3047  0.3049
19006SOL    HW161865   7.251   2.760   9.463 -0.2800 -0.1386 -0.1725
19006SOL    HW261866   7.235   2.899   9.522 -0.0286 -0.6470  1.1325
19007SOL     OW61867   5.931   2.347   8.483  0.0443  0.1179 -0.4776
19007SOL    HW161868   5.938   2.303   8.568  0.1479 -1.2499 -1.1752
19007SOL    HW261869   5.946   2.440   8.503 -1.4040  0.0429  1.2053
19008SOL     OW61870   4.984   1.971   6.128 -0.1833  0.1555  0.3386
19008SOL    HW161871   4.977   1.912   6.052 -0.4331  0.5843  0.0249
19008SOL    HW261872   4.947   1.921   6.201 -1.7164  0.4252 -0.2121
19009SOL     OW61873   7.648   2.572   8.781 -0.1101 -0.2048  0.3797
19009SOL    HW161874   7.607   2.655   8.755  1.2468  1.1649  2.2924
19009SOL    HW261875   7.736   2.597   8.808  0.2231 -2.2395  1.3478
19010SOL     OW61876   8.779   1.683   7.439 -0.7112  0.4762 -0.8935
19010SOL    HW161877   8.802   1.650   7.525 -2.9443 -1.2875 -0.8671
19010SOL    HW261878   8.848   1.650   7.381 -0.4406 -0.3060 -0.1333
19011SOL     OW61879   4.366   1.795   8.410 -0.2037 -0.1911 -0.3597
19011SOL    HW161880   4.316   1.762   8.484  1.0916 -0.2997  0.4900
19011SOL    HW261881   4.318   1.873   8.381  0.6629  1.4513  2.3094
19012SOL     OW61882   7.128   4.453   8.821  0.0201 -0.3663 -0.7380
19012SOL    HW161883   7.122   4.420   8.910  0.7526 -1.3295 -1.0251
19012SOL    HW261884   7.196   4.520   8.824  1.4841 -1.7650 -0.9146
19013SOL     OW61885   6.935   1.818   8.567  0.6422 -0.0835  0.0567
19013SOL    HW161886   6.905   1.746   8.624  0.2857 -0.8382 -1.0441
19013SOL    HW261887   7.011   1.782   8.521  1.6985  0.9516  0.9541
19014SOL     OW61888   8.217   1.384   8.943  0.1238 -0.4390  0.8069
19014SOL    HW161889   8.278   1.384   9.017 -0.1343 -0.4651  1.0214
19014SOL    HW261890   8.185   1.474   8.939  4.0512  1.1867 -2.5524
19015SOL     OW61891   9.021   3.636   8.085  0.9720  0.3740  0.5618
19015SOL    HW161892   8.977   3.697   8.144  0.9479  0.7129  0.1958
19015SOL    HW261893   9.104   3.616   8.129 -0.1596 -1.4854  2.0212
19016SOL     OW61894   4.072   3.304   9.721 -0.0915 -0.0324 -0.2714
19016SOL    HW161895   4.021   3.374   9.763 -2.1496 -1.7835  0.3512
19016SOL    HW261896   4.007   3.257   9.668  0.8525 -2.3772  0.5372
19017SOL     OW61897   6.763   2.947   6.613  0.1160  0.1772  0.2825
19017SOL    HW161898   6.717   3.018   6.567  2.6655  0.7975 -1.5304
19017SOL    HW261899   6.830   2.992   6.666  1.7911 -0.7919 -0.9220
19018SOL     OW61900   6.507   4.844   9.689 -0.1881  0.0291 -0.2254
19018SOL    HW161901   6.545   4.891   9.614  0.2345  0.4827  0.2617
19018SOL    HW261902   6.429   4.895   9.712  0.3687  0.6175  0.4154
19019SOL     OW61903   7.550   1.715   9.244 -0.6418  0.2993  0.0099
19019SOL    HW161904   7.528   1.622   9.252 -0.6567 -0.0907 -3.1761
19019SOL    HW261905   7.640   1.715   9.211 -1.5264  1.2501 -2.5960
19020SOL     OW61906   3.560   1.387   6.178 -0.2366  0.0819  0.4663
19020SOL    HW161907   3.584   1.325   6.109 -4.0153 -1.0819 -0.0513
19020SOL    HW261908   3.643   1.423   6.209  1.7659  0.8033 -4.7271
19021SOL     OW61909   6.675   3.386   8.390 -0.2047  0.2461  1.0997
19021SOL    HW161910   6.727   3.391   8.310 -2.1865  1.7787 -0.1968
19021SOL    HW261911   6.733   3.419   8.458  1.3294 -0.5156  0.2078
19022SOL     OW61912   4.913   1.649   9.320 -0.9011 -0.3478 -0.3697
19022SOL    HW161913   4.902   1.643   9.225 -0.8910  3.4944 -0.7923
19022SOL    HW261914   4.824   1.663   9.353 -0.7576 -0.2811 -0.0073
19023SOL     OW61915   7.623   1.887   9.505  0.0157  0.1503 -0.1951
19023SOL    HW161916   7.555   1.919   9.446  0.7147 -0.2034 -1.2150
19023SOL    HW261917   7.598   1.797   9.524  0.3527 -0.0673 -0.7929
19024SOL     OW61918   6.781   2.746   9.739 -0.3236  0.2012  0.1224
19024SOL    HW161919   6.776   2.839   9.762 -1.3452 -0.5338  3.4606
19024SOL    HW261920   6.731   2.739   9.658 -1.1091  2.4300  0.3302
19025SOL     OW61921   5.449   9.826   8.999 -0.4706  0.0023  0.1404
19025SOL    HW161922   5.520   9.880   8.963  0.1287 -0.7632  0.1335
19025SOL    HW261923   5.452   9.746   8.947 -0.5114 -0.5491  0.9602
19026SOL     OW61924   8.023   2.232   0.449 -0.4018 -0.6392  0.1246
19026SOL    HW161925   7.944   2.182   0.428  0.3540 -2.2559  0.8947
19026SOL    HW261926   7.992   2.306   0.500 -1.3629 -1.8019  1.3099
19027SOL     OW61927   6.914   0.773   8.261  0.6024  0.0438  0.0575
19027SOL    HW161928   6.890   0.681   8.270  0.8406 -0.0556 -0.3288
19027SOL    HW261929   6.889   0.812   8.345 -0.4119 -0.1596 -0.1319
19028SOL     OW61930   6.486   2.075   8.681  0.5197  0.3582 -0.2164
19028SOL    HW161931   6.517   2.165   8.692  0.0632  0.3003  2.1406
19028SOL    HW261932   6.395   2.084   8.653  0.7882  0.5920 -1.0463
19029SOL     OW61933   6.470   1.828   8.004  0.4943 -0.0755 -0.1571
19029SOL    HW161934   6.461   1.860   8.094 -1.4902  1.7698 -0.9388
19029SOL    HW261935   6.537   1.885   7.966 -0.2577  0.6312 -0.4488
19030SOL     OW61936   7.358   2.843   0.852 -0.1590 -0.4818 -0.1728
19030SOL    HW161937   7.377   2.760   0.807 -1.7989 -1.6767  1.1647
19030SOL    HW261938   7.356   2.819   0.945  0.1496  1.2681  0.3149
19031SOL     OW61939   7.244   0.983   0.404  0.0407  0.7737 -0.1542
19031SOL    HW161940   7.299   1.060   0.391  1.5828  0.0219  1.4190
19031SOL    HW261941   7.166   0.999   0.351  0.3129  3.3945  0.1189
19032SOL     OW61942   5.714   2.196   9.001 -0.5726 -0.1171 -0.1015
19032SOL    HW161943   5.658   2.127   8.966 -0.0933  0.0175 -1.1683
19032SOL    HW261944   5.659   2.275   8.998 -1.3038 -0.5192  1.6244
19033SOL     OW61945   8.867   2.963   8.192 -0.4284  0.3982  0.2379
19033SOL    HW161946   8.953   2.921   8.190  0.0036  1.2504 -2.5212
19033SOL    HW261947   8.863   3.006   8.278  1.3329 -0.6994  0.9136
19034SOL     OW61948   2.786   1.742   9.693 -0.6868  0.5624 -0.3404
19034SOL    HW161949   2.704   1.745   9.742  0.4929 -3.0146  2.2452
19034SOL    HW261950   2.767   1.687   9.617 -1.5630  3.0878 -2.0848
19035SOL     OW61951   4.507   2.145   9.041 -0.0514 -0.1192  0.3147
19035SOL    HW161952   4.439   2.086   9.076 -1.1618 -0.8288 -2.7141
19035SOL    HW261953   4.468   2.232   9.047  0.3224 -0.0308  1.9337
19036SOL     OW61954   6.707   0.231   0.770  0.2268  0.1494 -0.5108
19036SOL    HW161955   6.707   0.139   0.741 -0.4565 -0.2639  0.7232
19036SOL    HW261956   6.615   0.258   0.763  0.3037  0.5020 -0.1529
19037SOL     OW61957   7.928   2.617   2.026  0.5237 -0.1448  0.3381
19037SOL    HW161958   7.939   2.661   2.110  1.8563  1.1356 -0.4692
19037SOL    HW261959   8.010   2.632   1.979 -0.9774  1.1662 -2.1040
19038SOL     OW61960   4.755   2.486   8.510  0.4582  0.0381 -0.1593
19038SOL    HW161961   4.789   2.484   8.599  0.7884  0.9238 -0.2600
19038SOL    HW261962   4.671   2.440   8.516  0.9577 -0.8418  0.3879
19039SOL     OW61963   8.158   2.328   1.238 -0.3870 -0.2387 -0.3752
19039SOL    HW161964   8.144   2.263   1.307  1.2562 -0.5146 -0.2463
19039SOL    HW261965   8.175   2.276   1.159  0.3547  0.0190 -0.3971
19040SOL     OW61966   5.412   3.548   2.187  0.0258  0.2135 -0.2844
19040SOL    HW161967   5.429   3.480   2.122  0.7553  0.5473 -0.4496
19040SOL    HW261968   5.473   3.527   2.259 -0.0550  0.4387 -0.1515
19041SOL     OW61969   5.162   4.036   2.626 -0.2365  0.4202  0.4821
19041SOL    HW161970   5.167   3.967   2.560 -0.8548 -0.2586  1.1334
19041SOL    HW261971   5.241   4.088   2.612  1.2194 -1.5122  1.2001
19042SOL     OW61972   6.373   0.731   9.079 -0.0557  0.1422  0.3012
19042SOL    HW161973   6.396   0.807   9.133 -1.3929 -0.0004  1.1240
19042SOL    HW261974   6.278   0.725   9.086  0.0121 -1.5284  0.1291
19043SOL     OW61975   7.323   4.495   0.479  0.6078  0.1516  0.8530
19043SOL    HW161976   7.292   4.442   0.405  1.3949  0.1357  0.5238
19043SOL    HW261977   7.398   4.543   0.444  0.5368  0.7007  1.4427
19044SOL     OW61978   0.006   4.260   8.474  0.3034  0.2211 -0.1445
19044SOL    HW161979   0.052   4.216   8.546 -0.4017  1.5428  1.1802
19044SOL    HW261980  -0.036   4.336   8.516 -2.1424 -0.2848 -1.4761
19045SOL     OW61981   7.130   2.216   0.620  0.0413  0.3737 -0.1582
19045SOL    HW161982   7.200   2.151   0.631  0.7510  0.9426 -1.1156
19045SOL    HW261983   7.131   2.267   0.701 -0.0033 -0.3119  0.2817
19046SOL     OW61984   9.170   2.028   8.727 -0.1286 -0.1726  0.3844
19046SOL    HW161985   9.135   2.019   8.638  0.1528  0.7560  0.1583
19046SOL    HW261986   9.257   2.067   8.714 -0.2677  0.4036  1.0835
19047SOL     OW61987   6.174   4.905   1.851  0.3929  0.1484 -0.3244
19047SOL    HW161988   6.235   4.862   1.791  0.4147 -0.8795  0.4091
19047SOL    HW261989   6.208   4.886   1.938  0.1307  1.2754  0.0415
19048SOL     OW61990   6.797   3.767   1.510 -0.6762  0.7001 -0.5231
19048SOL    HW161991   6.854   3.699   1.475  0.8049  1.8344 -0.4049
19048SOL    HW261992   6.711   3.747   1.474 -0.3911 -1.4533 -0.1797
19049SOL     OW61993   7.285   3.322   6.586  0.4505 -0.0917 -0.8080
19049SOL    HW161994   7.318   3.235   6.608 -0.3182 -0.5843 -1.5507
19049SOL    HW261995   7.205   3.306   6.537 -0.0034  1.0569 -0.4693
19050SOL     OW61996   7.949   2.862   9.564 -0.2171  0.3531 -0.2161
19050SOL    HW161997   7.966   2.954   9.585  0.5265  0.1870 -0.0474
19050SOL    HW261998   7.874   2.839   9.619 -1.3385  1.2497 -1.3295
19051SOL     OW61999   3.894   5.768   9.749 -0.0761  0.9694  0.9443
19051SOL    HW162000   3.826   5.711   9.714  0.7314  0.1071  0.7124
19051SOL    HW262001   3.860   5.798   9.833 -0.4742  0.0331  1.1293
19052SOL     OW62002   7.179   1.751   8.734  0.1308  0.4352 -0.4827
19052SOL    HW162003   7.183   1.658   8.709  0.4546  0.6654 -1.3218
19052SOL    HW262004   7.098   1.783   8.695  0.1008  0.5423 -0.3307
19053SOL     OW62005   6.566   2.970   9.186 -0.0948 -1.0797  0.1063
19053SOL    HW162006   6.602   2.996   9.101  0.6589 -1.1179  0.4123
19053SOL    HW262007   6.473   2.955   9.168 -0.3286  0.6597 -0.3349
19054SOL     OW62008   5.130   2.513   7.022  0.1279  0.3840 -0.0108
19054SOL    HW162009   5.211   2.535   7.069 -0.3207  0.3725  0.7762
19054SOL    HW262010   5.060   2.541   7.081 -0.4417 -0.7471 -0.1344
19055SOL     OW62011   4.683   1.052   0.086 -0.4246 -0.4138  0.3481
19055SOL    HW162012   4.727   0.967   0.087 -1.7213 -1.1057  0.8360
19055SOL    HW262013   4.699   1.086  -0.002  2.0853 -0.0627  0.8586
19056SOL     OW62014   5.282   1.961   1.046 -0.0202 -0.1585  0.7186
19056SOL    HW162015   5.231   1.892   1.087 -0.7190 -0.0186  0.1104
19056SOL    HW262016   5.304   2.021   1.117  0.0304 -0.6623  1.1335
19057SOL     OW62017   5.636   1.921   0.843 -0.4871 -0.2201  0.2651
19057SOL    HW162018   5.630   1.880   0.929  1.2831 -0.3050  0.3778
19057SOL    HW262019   5.720   1.893   0.808 -0.6469  0.7658 -0.9993
19058SOL     OW62020   6.142   2.769   9.826 -0.1006 -0.3805  0.3066
19058SOL    HW162021   6.149   2.860   9.854 -1.3586 -0.0636 -0.3366
19058SOL    HW262022   6.223   2.752   9.777  0.7778 -0.0577  1.6081
19059SOL     OW62023   7.817   1.825   8.914  0.1973  0.2883  0.1053
19059SOL    HW162024   7.907   1.838   8.885  0.4114 -1.3050 -0.0238
19059SOL    HW262025   7.825   1.776   8.996 -0.5448  0.6549  0.4110
19060SOL     OW62026   8.551   2.148   0.842 -0.1598 -0.3004  0.2319
19060SOL    HW162027   8.627   2.192   0.805  0.7920 -2.5206 -0.6369
19060SOL    HW262028   8.476   2.183   0.794  0.4479  0.9536  0.1810
19061SOL     OW62029   6.250   2.279   8.454  0.7117 -0.2075 -0.1696
19061SOL    HW162030   6.215   2.259   8.367  1.6250  1.0446 -0.8562
19061SOL    HW262031   6.195   2.350   8.486  1.4734  0.5409 -0.4915
19062SOL     OW62032   7.323   3.812   8.605 -0.0739  0.1508  0.3238
19062SOL    HW162033   7.326   3.830   8.511  1.5338  1.6663  0.6229
19062SOL    HW262034   7.406   3.769   8.624 -0.7258 -0.8592  0.9347
19063SOL     OW62035   8.166   1.065   7.634 -0.0897  0.1126 -0.0212
19063SOL    HW162036   8.199   1.054   7.545 -1.1907 -2.3264 -0.2126
19063SOL    HW262037   8.143   0.977   7.662 -4.3290  1.2565  0.8754
19064SOL     OW62038   4.676   4.321   0.931 -0.1408  0.2771  0.3010
19064SOL    HW162039   4.670   4.261   1.005  0.0967 -0.7013 -0.4487
19064SOL    HW262040   4.731   4.274   0.867  0.2310  1.3828 -0.2147
19065SOL     OW62041   7.341   3.067   6.638 -0.3127 -0.3260  0.4654
19065SOL    HW162042   7.393   3.047   6.716 -1.1730  0.5796  1.3046
19065SOL    HW262043   7.282   2.992   6.629 -1.1398  0.1759  1.5141
19066SOL     OW62044   7.012   9.826   8.691  0.1478  0.1464  0.0057
19066SOL    HW162045   6.983   9.824   8.782 -0.5948  0.5151 -0.2193
19066SOL    HW262046   7.102   9.859   8.696 -0.2325  1.1716  0.5355
19067SOL     OW62047   4.654   1.649   7.960 -0.0845 -0.3448 -0.5382
19067SOL    HW162048   4.606   1.702   8.024  0.3634 -0.9509  0.3168
19067SOL    HW262049   4.699   1.583   8.012  0.4973 -0.7000 -1.4636
19068SOL     OW62050   5.193   2.475   8.419  0.0393 -0.5207 -0.0594
19068SOL    HW162051   5.279   2.467   8.460  0.0833  0.6101  0.0877
19068SOL    HW262052   5.133   2.432   8.481  0.4518 -1.0929 -0.0470
19069SOL     OW62053   9.559   4.089   0.674 -0.0804 -0.1793  0.4636
19069SOL    HW162054   9.634   4.033   0.695  0.1877 -0.0291 -0.0712
19069SOL    HW262055   9.483   4.031   0.679  0.1932 -0.5844 -0.0436
19070SOL     OW62056   7.307   5.344   8.215  0.9438  0.1995 -0.2014
19070SOL    HW162057   7.279   5.282   8.148  0.4374  1.2605 -1.0102
19070SOL    HW262058   7.247   5.330   8.288  1.4053 -0.8649 -0.0176
19071SOL     OW62059   6.980   2.121   8.954  0.0679  0.8585  0.4355
19071SOL    HW162060   7.051   2.162   8.904  0.1964  0.7129  0.4986
19071SOL    HW262061   6.916   2.096   8.888  0.5878 -0.0409  0.2589
19072SOL     OW62062   5.985   4.390   8.191 -0.2230  0.2408  0.8585
19072SOL    HW162063   5.998   4.396   8.096  1.8162  0.3129  1.0925
19072SOL    HW262064   6.042   4.458   8.227  0.1103 -0.7088  2.1903
19073SOL     OW62065   6.766   2.740   9.169 -0.0968 -0.1555 -0.0938
19073SOL    HW162066   6.854   2.730   9.131  0.2178  1.5493  0.1183
19073SOL    HW262067   6.707   2.701   9.104  0.6353  0.5998 -1.2346
19074SOL     OW62068   8.434   1.180   7.698  0.0778 -0.6786  0.2909
19074SOL    HW162069   8.347   1.150   7.672  0.2265 -1.0679  0.2282
19074SOL    HW262070   8.489   1.162   7.622  0.2821 -0.7564  0.4569
19075SOL     OW62071   6.017   3.365   9.083 -0.0913 -0.0226 -0.3501
19075SOL    HW162072   6.111   3.348   9.081  0.0320  0.6652 -1.0221
19075SOL    HW262073   5.993   3.360   9.176  0.7567  0.5809 -0.0891
19076SOL     OW62074   6.726   3.478   6.447  0.0439 -0.4725 -0.1245
19076SOL    HW162075   6.732   3.570   6.422 -1.3437  0.2003  1.8290
19076SOL    HW262076   6.645   3.472   6.498  0.5244 -2.6127  0.4666
19077SOL     OW62077   4.629   4.736   7.041 -0.0691  0.2194  0.5245
19077SOL    HW162078   4.595   4.646   7.049 -1.2626  0.6031 -0.0125
19077SOL    HW262079   4.723   4.724   7.030 -0.4259 -1.1424 -1.9200
19078SOL     OW62080   4.798   3.963   9.763 -0.1767 -0.3094 -0.0905
19078SOL    HW162081   4.850   3.899   9.811 -1.6421 -0.1949  1.7884
19078SOL    HW262082   4.845   4.045   9.774  0.2481 -0.5544 -0.0645
19079SOL     OW62083   4.382   2.974   0.575  0.1022 -0.4537 -0.7998
19079SOL    HW162084   4.461   2.970   0.520  0.6115  0.4293 -0.1504
19079SOL    HW262085   4.319   3.023   0.523  0.8323  1.0486 -0.3358
19080SOL     OW62086   4.946   1.302   8.747 -0.6619 -0.3528  0.3894
19080SOL    HW162087   4.978   1.222   8.789 -1.3158  0.7869  3.2996
19080SOL    HW262088   4.851   1.300   8.760 -0.5919  1.3378  1.5240
19081SOL     OW62089   6.194   0.734   9.673  0.5067 -0.3950 -0.4081
19081SOL    HW162090   6.289   0.735   9.679  0.6188 -1.4695 -1.6257
19081SOL    HW262091   6.172   0.811   9.622  0.8486 -0.8703 -1.3007
19082SOL     OW62092   5.584   3.510   0.771 -0.3117  0.0956  0.0754
19082SOL    HW162093   5.494   3.532   0.748 -0.7000  0.7423  2.0641
19082SOL    HW262094   5.588   3.415   0.766 -1.2322  0.0324  0.4140
19083SOL     OW62095   7.064   2.601   8.800  0.5132  0.2607 -0.3576
19083SOL    HW162096   6.995   2.613   8.735 -1.2033 -2.5472  0.7599
19083SOL    HW262097   7.020   2.557   8.874  3.0595  0.3103  1.3179
19084SOL     OW62098   5.990   4.197   8.989 -0.0209 -0.6379  0.2465
19084SOL    HW162099   5.952   4.228   8.907 -0.4781 -0.2684  0.5907
19084SOL    HW262100   6.036   4.117   8.965  0.6047 -0.0639 -0.5261
19085SOL     OW62101   5.865   1.883   8.977 -0.0486  0.6942  0.1524
19085SOL    HW162102   5.861   1.970   9.016 -0.7824  0.2392  1.1284
19085SOL    HW262103   5.894   1.825   9.047 -0.1444  0.0606 -0.3165
19086SOL     OW62104   6.422   1.691   9.848 -0.0616  0.3705 -0.2754
19086SOL    HW162105   6.381   1.620   9.799  1.1204  0.2898 -1.2035
19086SOL    HW262106   6.512   1.662   9.862  0.1020  1.1634  0.4052
19087SOL     OW62107   6.653   1.736   8.720 -0.0405 -0.0441 -0.5869
19087SOL    HW162108   6.570   1.701   8.688 -0.2491  0.3558 -0.4850
19087SOL    HW262109   6.709   1.659   8.730 -1.0437 -0.5990  1.3042
19088SOL     OW62110   7.781   0.771   9.816  0.0765 -0.5083  0.2178
19088SOL    HW162111   7.695   0.786   9.855 -0.9725  1.7019 -2.5614
19088SOL    HW262112   7.761   0.742   9.726  2.2908 -1.6142  0.0119
19089SOL     OW62113   6.582   1.915   9.684 -0.3649  0.3380  0.5152
19089SOL    HW162114   6.660   1.956   9.645 -0.2328  1.2850  1.7108
19089SOL    HW262115   6.608   1.824   9.700  0.0812  0.3331 -0.1753
19090SOL     OW62116   5.365   2.307   0.430 -0.2794  0.1906  0.6484
19090SOL    HW162117   5.365   2.276   0.340  1.3494  0.3348  0.5572
19090SOL    HW262118   5.287   2.267   0.470 -0.5997 -0.4867 -0.6120
19091SOL     OW62119   5.102   2.506   1.346 -0.1327  0.3333  0.3577
19091SOL    HW162120   5.154   2.572   1.392  0.5401 -0.9126  1.4537
19091SOL    HW262121   5.035   2.480   1.410 -0.3487 -0.0889 -0.0351
19092SOL     OW62122   5.515   3.474   1.425 -0.6867 -0.0681 -0.1600
19092SOL    HW162123   5.589   3.420   1.451 -1.0467  0.0439  1.1592
19092SOL    HW262124   5.545   3.519   1.346  0.2736 -0.7928 -0.2270
19093SOL     OW62125   5.924   4.271   8.742  0.4194 -0.5748 -0.6156
19093SOL    HW162126   5.979   4.222   8.682  2.0388 -0.3539  0.6108
19093SOL    HW262127   5.937   4.363   8.717 -0.7431 -0.5970 -1.3843
19094SOL     OW62128   4.808   4.022   1.439 -0.1368 -0.3001 -0.4743
19094SOL    HW162129   4.854   3.944   1.407  1.2809  0.7764 -1.1710
19094SOL    HW262130   4.877   4.078   1.473 -1.2749  0.0918  1.3133
19095SOL     OW62131   5.630   3.463   2.374  0.6890  0.2760  0.1594
19095SOL    HW162132   5.718   3.429   2.356  1.0324  1.6050 -0.8080
19095SOL    HW262133   5.616   3.444   2.467  1.5777 -0.8607  0.0882
19096SOL     OW62134   6.507   5.550   8.194  1.1511  0.4026 -0.3960
19096SOL    HW162135   6.417   5.523   8.176  0.9750  0.1181  0.7927
19096SOL    HW262136   6.502   5.646   8.200  0.1185  0.2942  3.1989
19097SOL     OW62137   7.791   2.888   8.142  0.0310  0.4105 -0.2790
19097SOL    HW162138   7.872   2.909   8.094 -0.6007  0.1152 -1.5373
19097SOL    HW262139   7.821   2.844   8.221  1.1127 -2.1251 -1.9467
19098SOL     OW62140   7.701   3.340   9.615  0.2781  0.5242 -1.3391
19098SOL    HW162141   7.785   3.323   9.572  0.6668  1.3817 -0.9496
19098SOL    HW262142   7.644   3.269   9.585  1.6590 -1.1717 -0.1495
19099SOL     OW62143   3.213   4.468   9.510 -0.7264  0.6614  0.1989
19099SOL    HW162144   3.180   4.454   9.599 -0.9627  2.2005  0.3891
19099SOL    HW262145   3.238   4.560   9.509  2.3044 -0.0756 -0.3708
19100SOL     OW62146   8.293   5.428   1.955  0.4488  0.3676 -0.5272
19100SOL    HW162147   8.265   5.509   1.912 -0.6004  0.7620  0.8049
19100SOL    HW262148   8.212   5.392   1.991  1.4681  1.1401  2.8766
19101SOL     OW62149   5.844   5.723   3.530 -0.1326 -0.0417  0.1991
19101SOL    HW162150   5.900   5.703   3.455  0.5688  1.2053  0.3620
19101SOL    HW262151   5.895   5.785   3.582 -2.0078  1.9121 -0.1450
19102SOL     OW62152   7.114   5.103   9.279 -0.2218 -0.2193 -0.5041
19102SOL    HW162153   7.149   5.172   9.335 -0.0141  0.1840 -1.1227
19102SOL    HW262154   7.153   5.023   9.312 -1.0243 -0.1470  0.6858
19103SOL     OW62155   6.030   8.111   1.031  0.2741 -0.2165  0.1941
19103SOL    HW162156   6.023   8.045   1.099  0.7992 -1.3046 -0.7691
19103SOL    HW262157   6.095   8.076   0.970 -0.2420  0.6754 -0.9119
19104SOL     OW62158   4.431   3.890   1.708 -0.3988 -0.2222  0.1693
19104SOL    HW162159   4.344   3.856   1.725 -0.2929 -1.9048 -2.2030
19104SOL    HW262160   4.421   3.948   1.632  0.5006 -0.1596  0.0830
19105SOL     OW62161   7.071   3.858   2.460  0.3697 -0.1372 -0.5647
19105SOL    HW162162   7.147   3.900   2.501  0.3244  1.0983 -1.6980
19105SOL    HW262163   6.999   3.874   2.522  1.3860 -3.3524  1.7127
19106SOL     OW62164   8.274   4.828   2.638 -0.0710  0.6295  0.2926
19106SOL    HW162165   8.300   4.803   2.727  2.1531 -1.9729 -0.9437
19106SOL    HW262166   8.275   4.746   2.589 -2.3692  1.7980 -1.9480
19107SOL     OW62167   4.948   4.074   0.295  0.3161 -0.0128 -0.6434
19107SOL    HW162168   4.883   4.137   0.264  0.4577 -0.2580 -1.4859
19107SOL    HW262169   4.905   3.989   0.286  0.4932 -0.1172 -0.5085
19108SOL     OW62170   4.625   4.573   1.734  0.2245 -0.1802 -0.0979
19108SOL    HW162171   4.536   4.539   1.739 -0.7948  2.3825  0.9010
19108SOL    HW262172   4.665   4.525   1.662 -2.4328 -0.4190 -1.5436
19109SOL     OW62173   6.466   4.542   9.264 -0.7073 -0.1277 -0.8549
19109SOL    HW162174   6.502   4.630   9.263  0.1922 -0.4849 -0.6963
19109SOL    HW262175   6.430   4.530   9.176  3.8900 -1.4627 -2.8486
19110SOL     OW62176   5.047   5.207   7.138  0.8615  0.2252 -0.1219
19110SOL    HW162177   4.963   5.250   7.127  0.5017 -0.4799 -0.1563
19110SOL    HW262178   5.077   5.235   7.225 -0.0422 -0.5730  0.4733
19111SOL     OW62179   7.799   2.989   2.881 -0.0482  0.6159  0.0292
19111SOL    HW162180   7.793   3.080   2.851  1.0599  0.7588  0.2042
19111SOL    HW262181   7.789   2.995   2.976  0.2288  0.5759  0.0602
19112SOL     OW62182   4.829   2.572   1.671  0.0849  0.4598  0.1774
19112SOL    HW162183   4.748   2.598   1.627 -0.6901 -0.4681  1.0021
19112SOL    HW262184   4.845   2.482   1.641  0.6563  0.5317  0.2473
19113SOL     OW62185   7.379   4.975   2.302  0.2719  0.2656 -0.1716
19113SOL    HW162186   7.284   4.969   2.292  0.0207  3.3789 -0.7243
19113SOL    HW262187   7.414   4.930   2.225 -0.6912 -1.6028  0.4376
19114SOL     OW62188   3.093   4.623   0.149 -0.4591 -0.5109  0.1996
19114SOL    HW162189   3.169   4.680   0.143 -1.3045  0.6398  0.0646
19114SOL    HW262190   3.108   4.572   0.229 -0.4885  1.1499  1.3211
19115SOL     OW62191   6.900   3.350   0.260 -0.1988 -0.0188 -0.2089
19115SOL    HW162192   6.817   3.337   0.305  0.0483  1.3991  0.7253
19115SOL    HW262193   6.957   3.281   0.295 -0.0473  0.9699  1.6519
19116SOL     OW62194   7.838   3.951   0.346 -0.8382 -0.2482 -0.2045
19116SOL    HW162195   7.908   3.958   0.282 -0.9990 -0.0446 -0.3621
19116SOL    HW262196   7.761   3.927   0.295 -0.5240 -2.2050  0.1910
19117SOL     OW62197   6.915   3.058   8.242 -0.9959  0.4393  0.1384
19117SOL    HW162198   6.925   3.033   8.334 -2.6290  3.1445  1.1658
19117SOL    HW262199   6.836   3.012   8.213 -1.6712  1.1510  0.7808
19118SOL     OW62200   6.853   3.137   8.688  0.5883 -0.0178  0.1919
19118SOL    HW162201   6.886   3.056   8.651  2.3290  1.3454 -1.4558
19118SOL    HW262202   6.909   3.154   8.763 -0.8237 -1.1116  1.5419
19119SOL     OW62203   4.463   6.317   1.944  0.2119 -0.3072 -0.3967
19119SOL    HW162204   4.508   6.233   1.937 -0.3685 -0.7492  0.9538
19119SOL    HW262205   4.386   6.299   1.998  1.0026  1.4262  1.4374
19120SOL     OW62206   6.652   5.651   9.665 -0.1599 -0.1577  0.3910
19120SOL    HW162207   6.681   5.674   9.576 -3.6987 -1.6557 -1.3446
19120SOL    HW262208   6.568   5.695   9.674 -0.1475 -0.5114  2.8619
19121SOL     OW62209   9.553   2.314   0.591 -0.5530  0.0771  0.2047
19121SOL    HW162210   9.491   2.380   0.621 -0.9273 -0.0484 -0.2655
19121SOL    HW262211   9.622   2.313   0.657 -0.0576  1.5969 -0.2306
19122SOL     OW62212   4.339   6.858   6.552  0.1058  0.9654 -0.2192
19122SOL    HW162213   4.401   6.890   6.487 -0.3909  0.3241 -1.0269
19122SOL    HW262214   4.352   6.915   6.628  3.2865 -0.5377  0.5083
19123SOL     OW62215   4.882   4.542   1.389  0.3343 -0.1301  0.2968
19123SOL    HW162216   4.852   4.630   1.413  1.0101 -0.2785  1.7922
19123SOL    HW262217   4.969   4.535   1.427  1.1375 -0.7472 -1.5121
19124SOL     OW62218   3.801   4.775   8.789 -0.5873  0.1569  0.4431
19124SOL    HW162219   3.846   4.760   8.872 -0.3224 -2.5350 -0.0988
19124SOL    HW262220   3.721   4.723   8.795 -0.2117 -0.6954 -1.2069
19125SOL     OW62221   5.552   3.357   9.640  0.7447 -0.3189  0.1325
19125SOL    HW162222   5.502   3.297   9.584  2.0646 -0.8608 -0.5150
19125SOL    HW262223   5.546   3.318   9.727  2.1652 -1.8652 -0.3904
19126SOL     OW62224   5.461   6.281   0.306 -0.4888 -0.5297 -0.2757
19126SOL    HW162225   5.395   6.271   0.375 -1.6706 -3.9851 -1.6916
19126SOL    HW262226   5.544   6.287   0.353 -1.5092  1.1268  1.4799
19127SOL     OW62227   5.142   3.050   0.193  0.7015 -0.1383  0.2943
19127SOL    HW162228   5.119   3.108   0.266  1.8403  1.4282 -0.5161
19127SOL    HW262229   5.234   3.029   0.207  0.2552 -1.9720  0.6752
19128SOL     OW62230   7.085   3.527   0.344  0.0438 -0.2470  0.1736
19128SOL    HW162231   7.081   3.619   0.317  1.4603  0.2562  1.5295
19128SOL    HW262232   7.014   3.485   0.295 -0.4481  1.4928 -0.7076
19129SOL     OW62233   5.322   4.977   2.625 -0.3381 -0.1795 -0.3715
19129SOL    HW162234   5.290   5.056   2.668 -0.1328 -0.0605 -0.4406
19129SOL    HW262235   5.379   5.008   2.554  1.2673 -0.4153  0.7654
19130SOL     OW62236   6.235   5.990   8.063 -0.4289  0.3787  0.0339
19130SOL    HW162237   6.157   6.045   8.062 -1.5207 -1.1328 -0.6315
19130SOL    HW262238   6.284   6.016   7.985 -0.1833  1.4130  0.5164
19131SOL     OW62239   6.371   1.660   0.808  0.0419  0.9799 -0.3763
19131SOL    HW162240   6.277   1.649   0.796  0.0987 -1.4629  0.7992
19131SOL    HW262241   6.391   1.611   0.888  2.3779  1.0856 -0.8131
19132SOL     OW62242   4.440   4.869   4.141  0.2991 -0.7771  0.2760
19132SOL    HW162243   4.509   4.933   4.160 -0.2611 -0.4732  1.3775
19132SOL    HW262244   4.444   4.857   4.046  0.7431  0.5179  0.1085
19133SOL     OW62245   7.074   3.929   1.399 -0.5720  0.1862 -0.0076
19133SOL    HW162246   7.007   3.893   1.341 -0.7746 -0.0008  0.3411
19133SOL    HW262247   7.099   4.011   1.358  0.1823 -0.5330 -1.0309
19134SOL     OW62248   5.726   4.830   1.106 -0.3288 -0.0977  0.0317
19134SOL    HW162249   5.781   4.900   1.070  0.0435  0.1618  1.0912
19134SOL    HW262250   5.664   4.874   1.163  0.0825 -0.6452  0.9210
19135SOL     OW62251   6.302   4.490   9.762  0.4370  0.0495  0.3668
19135SOL    HW162252   6.215   4.451   9.753  1.5535 -2.6299  0.3025
19135SOL    HW262253   6.287   4.567   9.817 -1.9870 -0.2318  0.2401
19136SOL     OW62254   5.360   5.845   2.885 -0.1138 -0.1652  0.0680
19136SOL    HW162255   5.445   5.802   2.877  0.1675  0.3306  0.3102
19136SOL    HW262256   5.340   5.878   2.798 -0.8930 -1.7903 -0.4071
19137SOL     OW62257   4.802   4.268   0.676  0.0992  0.2004 -0.0347
19137SOL    HW162258   4.884   4.234   0.642  0.9412  2.1770 -0.0998
19137SOL    HW262259   4.773   4.331   0.611 -1.4903 -0.4567 -0.0089
19138SOL     OW62260   4.361   6.701   3.778  0.4143  0.0597 -0.5078
19138SOL    HW162261   4.366   6.607   3.797 -0.6077  0.2070  0.5844
19138SOL    HW262262   4.277   6.712   3.734 -1.0427  0.8838  2.2912
19139SOL     OW62263   7.578   3.414   1.260  0.1387  0.1249 -0.2539
19139SOL    HW162264   7.493   3.414   1.304  0.1668  2.0390 -0.1372
19139SOL    HW262265   7.632   3.475   1.309  1.6331 -1.0727 -0.3122
19140SOL     OW62266   7.950   4.599   9.529  0.7514  0.0760 -0.1213
19140SOL    HW162267   7.941   4.512   9.569 -1.3261  0.5317  0.5105
19140SOL    HW262268   7.864   4.618   9.493  1.4204  1.5240 -1.0475
19141SOL     OW62269   7.653   5.073   0.743 -0.0299  0.1572 -0.1554
19141SOL    HW162270   7.645   5.002   0.679  1.2024  0.5714 -0.8166
19141SOL    HW262271   7.565   5.109   0.751 -0.9837 -2.2680  1.1996
19142SOL     OW62272   6.108   5.161   3.199 -0.0990  0.4648 -0.2087
19142SOL    HW162273   6.075   5.134   3.113 -0.3561  1.5825 -0.4824
19142SOL    HW262274   6.194   5.199   3.180 -0.6031  1.6916 -0.1426
19143SOL     OW62275   5.898   5.306   1.885 -0.3241 -0.0265  0.3975
19143SOL    HW162276   5.812   5.264   1.890 -0.0133 -1.1787 -2.3721
19143SOL    HW262277   5.948   5.253   1.823  2.0864  1.1954  1.1414
19144SOL     OW62278   7.065   4.951   1.728 -0.2867  0.0150  0.3006
19144SOL    HW162279   7.101   4.862   1.722  3.5314  1.3249  0.8512
19144SOL    HW262280   7.031   4.956   1.818  0.8941 -0.4655  0.8023
19145SOL     OW62281   6.309   5.757   1.929  0.0759 -0.1798 -0.3288
19145SOL    HW162282   6.216   5.761   1.955  0.0783  0.1677 -0.3647
19145SOL    HW262283   6.307   5.748   1.834  0.0670 -1.4630 -0.2243
19146SOL     OW62284   4.623   6.194   7.520  0.4158  0.3598 -0.5714
19146SOL    HW162285   4.620   6.289   7.527  1.9275  0.3759  0.4557
19146SOL    HW262286   4.570   6.173   7.443 -1.0548  1.9059 -0.0339
19147SOL     OW62287   4.579   5.618   3.572  0.7800  0.4228  0.6249
19147SOL    HW162288   4.630   5.566   3.634  0.3427 -0.1707  0.4967
19147SOL    HW262289   4.625   5.609   3.488  0.1181 -0.6580  0.3590
19148SOL     OW62290   0.751   4.681   8.280  0.4431  0.3411 -0.0475
19148SOL    HW162291   0.699   4.751   8.319 -0.8188  0.0097 -1.0510
19148SOL    HW262292   0.700   4.601   8.295  1.2186 -0.1729 -0.0741
19149SOL     OW62293   3.662   4.174   0.089  0.2792 -0.7502 -0.0650
19149SOL    HW162294   3.746   4.220   0.096 -1.1311  2.0661 -0.4240
19149SOL    HW262295   3.637   4.185  -0.003 -1.8358  1.1483  0.6569
19150SOL     OW62296   5.317   5.001   3.619 -0.5390  0.7439 -0.1560
19150SOL    HW162297   5.260   4.991   3.543 -2.1276  0.5077  1.0350
19150SOL    HW262298   5.259   4.994   3.695  0.9790  1.1127  1.0981
19151SOL     OW62299   6.550   7.061   0.691 -0.1228  0.1445  0.3648
19151SOL    HW162300   6.550   7.059   0.595 -0.5538  1.2254  0.3211
19151SOL    HW262301   6.554   7.155   0.712 -1.8747  0.0220  1.3956
19152SOL     OW62302   6.780   5.864   2.793 -0.2199 -0.1092  0.1155
19152SOL    HW162303   6.799   5.909   2.875 -1.3799 -2.3910  1.7513
19152SOL    HW262304   6.812   5.774   2.807 -0.6449 -0.6125 -1.8436
19153SOL     OW62305   4.592   3.685   1.265  0.1359 -0.1620 -0.1760
19153SOL    HW162306   4.642   3.752   1.218  0.8194  0.0009  0.7469
19153SOL    HW262307   4.604   3.605   1.213 -0.5489  0.3822 -1.1926
19154SOL     OW62308   7.282   3.607   4.086  0.1278 -0.3512 -0.4318
19154SOL    HW162309   7.303   3.516   4.108 -1.1504 -1.1985 -2.4595
19154SOL    HW262310   7.186   3.611   4.090  0.0679  0.4204 -2.0764
19155SOL     OW62311   4.732   3.786   8.808 -0.3375  0.3071 -0.0563
19155SOL    HW162312   4.771   3.718   8.862 -1.3589  0.2223  0.5992
19155SOL    HW262313   4.676   3.836   8.868 -0.7971  0.7706 -0.8463
19156SOL     OW62314   5.698   4.283   0.400  0.1034  0.4914 -0.7078
19156SOL    HW162315   5.692   4.372   0.435  1.4659  0.1979  0.3789
19156SOL    HW262316   5.704   4.295   0.305 -2.1254  1.3931 -0.7979
19157SOL     OW62317   4.263   7.491   3.203  0.0454 -0.1751  0.2979
19157SOL    HW162318   4.283   7.581   3.178 -1.4323 -0.4879 -2.3752
19157SOL    HW262319   4.348   7.447   3.205  0.6595  0.9791  0.3997
19158SOL     OW62320   6.273   5.836   3.483 -0.8733  0.2245 -0.7532
19158SOL    HW162321   6.289   5.750   3.521 -1.1349 -0.1414 -1.4583
19158SOL    HW262322   6.307   5.898   3.548 -1.7677 -0.3638  0.3080
19159SOL     OW62323   7.001   7.725   1.517 -0.6994  0.4702  0.1540
19159SOL    HW162324   6.959   7.783   1.454 -1.0956 -1.0608 -1.0479
19159SOL    HW262325   6.988   7.638   1.481  0.5358 -0.3124  1.5242
19160SOL     OW62326   7.422   6.647   9.598 -0.1436  0.3441  0.8590
19160SOL    HW162327   7.378   6.563   9.615  0.6075  0.0474  1.4011
19160SOL    HW262328   7.500   6.645   9.654  0.1583  1.1876  0.4872
19161SOL     OW62329   7.147   3.332   0.846  0.0206 -0.5167  0.8781
19161SOL    HW162330   7.197   3.375   0.776  0.4866  0.3908  1.7472
19161SOL    HW262331   7.168   3.239   0.837 -0.4692 -0.5218 -0.6118
19162SOL     OW62332   6.181   3.991   8.780 -0.2671  0.5659 -0.2386
19162SOL    HW162333   6.275   3.986   8.767 -0.3049  0.5742 -0.5247
19162SOL    HW262334   6.168   3.976   8.874 -0.0828 -0.7010 -0.4042
19163SOL     OW62335   7.194   4.085   9.769 -0.5432 -0.6758  0.1297
19163SOL    HW162336   7.100   4.095   9.784 -0.5370 -0.1732 -0.1514
19163SOL    HW262337   7.201   4.036   9.687 -0.5625 -0.3654 -0.0605
19164SOL     OW62338   4.539   4.768   9.545 -0.2228  0.1478  0.3681
19164SOL    HW162339   4.471   4.701   9.551 -1.8428  1.6505 -0.4969
19164SOL    HW262340   4.579   4.769   9.632 -1.5818 -0.5134  1.0248
19165SOL     OW62341   5.990   7.345   8.372  0.6989 -0.3871 -0.1380
19165SOL    HW162342   6.050   7.271   8.359 -0.4084 -1.3543  0.1264
19165SOL    HW262343   6.001   7.369   8.464  0.4365 -0.8012  0.0071
19166SOL     OW62344   5.609   4.197   0.816 -0.5963 -1.0300  0.6129
19166SOL    HW162345   5.596   4.159   0.729 -0.5556 -1.1297  0.6501
19166SOL    HW262346   5.611   4.122   0.875 -0.6250 -0.9624  0.7003
19167SOL     OW62347   6.954   6.517   7.508  0.1152  0.1359 -0.6369
19167SOL    HW162348   7.042   6.534   7.543 -0.0971 -0.2660  0.1034
19167SOL    HW262349   6.921   6.603   7.485  0.4974  0.3467 -0.4169
19168SOL     OW62350   6.369   3.390   8.305 -0.2715 -0.2224  0.4465
19168SOL    HW162351   6.324   3.439   8.374 -0.8290 -1.4897  1.0289
19168SOL    HW262352   6.461   3.412   8.315 -0.4423  0.2174  1.0919
19169SOL     OW62353   5.143   5.228   9.649 -0.1878  0.4431  0.1902
19169SOL    HW162354   5.086   5.181   9.588 -0.2264 -2.0779  1.9694
19169SOL    HW262355   5.227   5.183   9.642 -0.4981 -0.7354  2.6722
19170SOL     OW62356   5.931   4.134   0.414  0.6246  0.4581  0.1004
19170SOL    HW162357   5.854   4.190   0.423  0.8802  0.9574 -0.6892
19170SOL    HW262358   5.987   4.159   0.489  0.0803  0.1696  0.6110
19171SOL     OW62359   5.914   2.633   0.304  0.1185  0.1184  0.7554
19171SOL    HW162360   5.988   2.608   0.248 -0.0062  1.1493  0.1033
19171SOL    HW262361   5.839   2.588   0.266  0.2401 -0.1418  0.8210
19172SOL     OW62362   6.076   3.283   1.160 -0.7908 -0.0422  0.5628
19172SOL    HW162363   6.021   3.299   1.083  1.1431 -2.0463 -1.4004
19172SOL    HW262364   6.064   3.190   1.180  0.5675 -0.1288  1.1178
19173SOL     OW62365   6.508   6.219   9.740  0.6040 -1.0216  0.4960
19173SOL    HW162366   6.413   6.212   9.730  0.2511  1.2225  1.6493
19173SOL    HW262367   6.523   6.205   9.833  1.1486  0.4656  0.6580
19174SOL     OW62368   6.614   3.806   1.817  0.1554 -0.0234 -0.4362
19174SOL    HW162369   6.626   3.849   1.732 -3.0332 -0.9079 -1.5020
19174SOL    HW262370   6.601   3.714   1.796  1.3077 -0.6198  1.2587
19175SOL     OW62371   7.495   7.916   0.088 -0.6148  0.7052 -0.1762
19175SOL    HW162372   7.565   7.977   0.112  0.2638 -0.9784  1.8433
19175SOL    HW262373   7.416   7.970   0.083  0.0129  1.9622  2.1546
19176SOL     OW62374   6.718   5.144   0.646  0.3127 -0.3081  0.0717
19176SOL    HW162375   6.646   5.108   0.698 -0.2074  0.1191 -0.3388
19176SOL    HW262376   6.790   5.152   0.708  1.1337 -3.8838 -0.2011
19177SOL     OW62377   7.230   4.817   1.442 -0.1173 -0.1882 -0.4076
19177SOL    HW162378   7.284   4.800   1.518  0.3542  0.9024 -0.4877
19177SOL    HW262379   7.247   4.909   1.420 -0.4445 -0.4097 -1.6567
19178SOL     OW62380   7.052   5.151   0.361 -0.0962  0.4998 -0.1934
19178SOL    HW162381   7.073   5.181   0.273 -0.4120 -0.1383 -0.4909
19178SOL    HW262382   7.015   5.064   0.349  0.5364  0.0963  0.6293
19179SOL     OW62383   5.617   3.688   7.964  0.4115  0.1989  0.9734
19179SOL    HW162384   5.637   3.764   7.909 -1.2921  0.7976  1.1290
19179SOL    HW262385   5.626   3.613   7.905 -0.2135  0.7341  0.1781
19180SOL     OW62386   6.822   5.318   0.444  0.0613 -0.1300 -0.4638
19180SOL    HW162387   6.784   5.265   0.513 -0.5166 -0.0336 -0.7026
19180SOL    HW262388   6.905   5.274   0.422  0.9466  0.6063  1.2299
19181SOL     OW62389   6.156   4.298   1.656 -1.2025 -0.2887  0.6125
19181SOL    HW162390   6.247   4.266   1.654 -0.8890  0.6019  0.1604
19181SOL    HW262391   6.162   4.385   1.694 -1.4233  1.0686 -2.1835
19182SOL     OW62392   9.138   5.975   2.633  0.4960  0.0110 -0.1292
19182SOL    HW162393   9.084   6.043   2.591  1.0143  1.0453  0.8302
19182SOL    HW262394   9.225   6.014   2.639  0.7904 -0.7238  0.4827
19183SOL     OW62395   8.594   6.136   0.198 -0.2356  0.5129 -0.2552
19183SOL    HW162396   8.605   6.206   0.134 -0.4148  1.5041  0.7852
19183SOL    HW262397   8.634   6.059   0.156  2.1277  1.7727 -0.4547
19184SOL     OW62398   6.520   4.799   8.957  0.7343  0.0857 -0.3288
19184SOL    HW162399   6.478   4.713   8.961 -0.5723  0.6999 -0.3198
19184SOL    HW262400   6.562   4.809   9.043  0.0387 -0.1237  0.0409
19185SOL     OW62401   9.138   3.315   2.337  0.2103 -0.4671 -0.2646
19185SOL    HW162402   9.218   3.304   2.286 -1.2479 -2.1779 -2.3552
19185SOL    HW262403   9.119   3.228   2.372 -2.4702 -1.0103 -2.6849
19186SOL     OW62404   6.192   4.741   3.160  0.2022 -0.3235 -0.0896
19186SOL    HW162405   6.121   4.677   3.158 -1.3796  1.2715  1.2426
19186SOL    HW262406   6.258   4.701   3.217 -0.4744 -1.0396  0.2139
19187SOL     OW62407   5.117   2.283   2.453  0.0525  0.7501  0.5616
19187SOL    HW162408   5.180   2.333   2.504 -0.7181  2.2754  0.0604
19187SOL    HW262409   5.168   2.213   2.412  0.6657 -0.8119  3.6631
19188SOL     OW62410   5.926   1.890   2.834  0.6410 -0.1684 -0.7420
19188SOL    HW162411   5.996   1.832   2.866 -0.4316 -1.5971 -0.8782
19188SOL    HW262412   5.861   1.830   2.798 -1.6431  0.9558  1.2911
19189SOL     OW62413   6.904   3.125   1.126  0.5603  0.4539 -0.0355
19189SOL    HW162414   6.976   3.078   1.168  0.3202 -0.0303 -0.1691
19189SOL    HW262415   6.831   3.118   1.187  0.3720  0.2180 -0.2889
19190SOL     OW62416   5.917   4.509   9.802  0.2797 -0.3859  0.0427
19190SOL    HW162417   5.845   4.567   9.777  0.4415 -1.0664 -2.2942
19190SOL    HW262418   5.877   4.444   9.859 -1.4521 -1.7143 -2.4887
19191SOL     OW62419   5.639   4.102   9.079  0.0010  0.1726 -0.1164
19191SOL    HW162420   5.591   4.182   9.056  0.7756  0.1748 -1.8081
19191SOL    HW262421   5.575   4.050   9.129 -1.4681  0.5844 -1.4866
19192SOL     OW62422   4.134   4.047   8.366 -0.2612  0.5212  0.1285
19192SOL    HW162423   4.076   4.123   8.354  1.0130  1.5601  0.3297
19192SOL    HW262424   4.097   4.000   8.441 -0.8581  1.1549  0.2433
19193SOL     OW62425   9.002   3.794   1.376 -0.0492 -0.6540  0.1081
19193SOL    HW162426   8.914   3.797   1.413  0.7272 -0.1821  2.0652
19193SOL    HW262427   9.012   3.878   1.332 -1.3208 -1.5911 -2.1142
19194SOL     OW62428   8.641   1.169   2.650 -0.6905  0.4383  0.1683
19194SOL    HW162429   8.591   1.236   2.697 -2.0529 -0.2183 -0.3031
19194SOL    HW262430   8.596   1.160   2.567  1.1044  0.8636 -0.8990
19195SOL     OW62431   6.100   4.705   0.828 -0.2091 -1.2392  0.1285
19195SOL    HW162432   6.083   4.733   0.738 -1.3923 -1.0333  0.4011
19195SOL    HW262433   6.155   4.773   0.865 -0.4195 -0.8990 -0.1853
19196SOL     OW62434   7.944   5.827   9.245 -0.2241  0.3074 -0.2012
19196SOL    HW162435   7.916   5.830   9.154 -1.7523  0.1957  0.2332
19196SOL    HW262436   7.876   5.873   9.293 -0.2918 -1.0169  1.0704
19197SOL     OW62437   4.620   2.891   0.458 -0.2438  0.2280  0.0327
19197SOL    HW162438   4.604   2.798   0.438  4.5227 -0.8399  0.0466
19197SOL    HW262439   4.634   2.931   0.372  1.0460  0.1058  0.1727
19198SOL     OW62440   7.309   3.960   2.587  0.2622  0.3161  0.3645
19198SOL    HW162441   7.363   3.892   2.627  0.2314 -0.3350 -0.6728
19198SOL    HW262442   7.341   4.042   2.627  0.4863 -0.2593  1.4126
19199SOL     OW62443   4.984   5.258   2.973 -0.4980  0.8192  0.1780
19199SOL    HW162444   5.033   5.213   2.904  0.4382  1.5173  0.3647
19199SOL    HW262445   5.048   5.317   3.013 -1.5608  1.9181  0.2948
19200SOL     OW62446   6.080   6.492   8.895 -0.1461 -0.1240  0.1761
19200SOL    HW162447   6.146   6.545   8.941  0.2260 -0.6522  0.2601
19200SOL    HW262448   6.082   6.407   8.939  0.1660 -0.6204 -0.7527
19201SOL     OW62449   5.999   4.692   2.429 -0.0408  0.3451  0.8016
19201SOL    HW162450   6.075   4.697   2.488  0.4253  1.6952  0.1219
19201SOL    HW262451   5.927   4.730   2.480  0.3652  1.5254  0.5268
19202SOL     OW62452   6.484   4.599   0.225 -0.1545  0.7310 -0.5635
19202SOL    HW162453   6.478   4.691   0.199 -1.2285  0.7986 -0.1488
19202SOL    HW262454   6.577   4.584   0.239  0.1964  1.3590 -2.0271
19203SOL     OW62455   4.943   4.505   2.421 -0.1247  0.2857  0.1354
19203SOL    HW162456   4.979   4.538   2.339  0.7398  0.7323  0.6861
19203SOL    HW262457   5.015   4.512   2.484 -1.4713  2.2971  1.5688
19204SOL     OW62458   6.135   6.056   0.424 -0.5693 -0.2140 -0.1734
19204SOL    HW162459   6.055   6.071   0.373  0.0864 -0.9854 -1.4871
19204SOL    HW262460   6.168   5.972   0.393 -0.5701 -1.1517  2.1832
19205SOL     OW62461   4.134   3.639   9.735 -0.1240  0.3281  0.1879
19205SOL    HW162462   4.108   3.721   9.693 -4.5502 -1.1721 -0.4952
19205SOL    HW262463   4.094   3.571   9.681  1.4809 -2.1955  1.9784
19206SOL     OW62464   8.076   3.181   2.613  0.0588 -0.0509 -0.1198
19206SOL    HW162465   8.117   3.259   2.574  0.4216  0.2972  0.9186
19206SOL    HW262466   8.120   3.171   2.697 -0.8915 -0.6264  0.3172
19207SOL     OW62467   4.432   3.181   1.348  0.0601  0.0723  0.6260
19207SOL    HW162468   4.408   3.229   1.427  0.0671 -0.1350  0.7566
19207SOL    HW262469   4.362   3.202   1.285  0.4472  0.8248  0.4384
19208SOL     OW62470   6.985   4.428   1.115  0.2314  0.2015 -0.1405
19208SOL    HW162471   6.924   4.470   1.175 -0.0810 -0.3230 -0.0858
19208SOL    HW262472   6.949   4.444   1.028 -0.9055 -1.4956 -0.0365
19209SOL     OW62473   6.311   5.441   8.908 -0.1531 -0.0930 -0.3891
19209SOL    HW162474   6.251   5.470   8.839  0.1060 -0.3976 -0.7472
19209SOL    HW262475   6.322   5.347   8.892 -0.0958 -0.1672  0.0726
19210SOL     OW62476   5.738   3.756   1.992  0.3721  0.3619  0.5804
19210SOL    HW162477   5.818   3.796   2.024  0.4678  0.0556  0.7329
19210SOL    HW262478   5.761   3.664   1.976  0.4711  0.6209 -0.9166
19211SOL     OW62479   5.030   4.128   1.565  0.4196  0.0710  0.4388
19211SOL    HW162480   5.039   4.206   1.619  2.3107 -0.4197  0.8919
19211SOL    HW262481   5.000   4.060   1.625  2.2308 -0.4007  0.8473
19212SOL     OW62482   5.919   5.195   1.435  0.0509 -0.5058 -0.1790
19212SOL    HW162483   5.944   5.102   1.430 -1.3053 -0.9056 -0.0374
19212SOL    HW262484   5.988   5.235   1.488 -0.4952 -1.9012  1.7114
19213SOL     OW62485   4.642   3.743   8.237 -0.5226  0.5973 -0.1733
19213SOL    HW162486   4.631   3.777   8.326 -1.0545 -2.0741  0.8989
19213SOL    HW262487   4.722   3.783   8.205  0.8108  0.1533  2.3390
19214SOL     OW62488   8.130   4.376   8.230 -0.1470  0.4420 -0.0447
19214SOL    HW162489   8.153   4.467   8.247  1.4790  0.3101 -1.2694
19214SOL    HW262490   8.209   4.326   8.252 -0.3259 -0.4231 -1.2468
19215SOL     OW62491   6.294   4.727   1.666 -0.1406 -0.2520 -0.2611
19215SOL    HW162492   6.252   4.763   1.589 -0.8155 -1.5757 -0.5479
19215SOL    HW262493   6.376   4.690   1.633  0.9125  1.5904  0.1566
19216SOL     OW62494   4.078   4.602   1.546 -0.1460  0.0828 -0.6749
19216SOL    HW162495   4.022   4.606   1.624  1.0675 -0.6592  0.2906
19216SOL    HW262496   4.100   4.509   1.538  1.6093  0.4413 -0.4854
19217SOL     OW62497   8.301   4.790   0.081  0.2618 -0.7248 -0.2260
19217SOL    HW162498   8.205   4.790   0.086  0.2374 -2.2579 -0.5008
19217SOL    HW262499   8.322   4.750  -0.003  1.1598  1.0354 -0.9103
19218SOL     OW62500   6.178   2.007   0.826 -0.4200 -0.2676  0.0347
19218SOL    HW162501   6.139   1.953   0.757 -1.8014  1.2098 -0.3933
19218SOL    HW262502   6.260   1.963   0.846 -1.0477 -1.9984 -0.9481
19219SOL     OW62503   5.461   3.935   1.626 -0.3842  0.4974  0.3480
19219SOL    HW162504   5.523   3.962   1.558  0.4594 -0.6608  0.6384
19219SOL    HW262505   5.460   4.008   1.688  1.8420 -0.0509  1.1071
19220SOL     OW62506   4.438   5.663   8.319 -0.0969 -0.3346 -0.1647
19220SOL    HW162507   4.368   5.600   8.330  0.1712 -0.6987 -0.5072
19220SOL    HW262508   4.462   5.689   8.408 -1.8366  1.1165 -0.0850
19221SOL     OW62509   4.488   6.028   0.188  0.2944  0.8824 -0.1972
19221SOL    HW162510   4.462   6.031   0.280 -2.4341  1.6545 -0.9067
19221SOL    HW262511   4.506   5.936   0.171  0.7478  0.7134  1.0463
19222SOL     OW62512   4.930   5.239   8.106  0.3026 -0.3893 -0.3098
19222SOL    HW162513   4.876   5.169   8.142  0.2700  0.3910  1.2346
19222SOL    HW262514   4.872   5.315   8.103  0.6305 -0.1547 -0.9842
19223SOL     OW62515   6.548   4.266   0.714  0.1693 -0.0017 -0.0742
19223SOL    HW162516   6.552   4.358   0.688 -0.8967 -0.3918 -1.7713
19223SOL    HW262517   6.468   4.233   0.674  0.7033 -1.7572  0.2238
19224SOL     OW62518   5.721   1.945   1.203 -0.5145  0.4927  0.0089
19224SOL    HW162519   5.720   2.002   1.126 -1.1194 -0.0705 -0.4104
19224SOL    HW262520   5.650   1.883   1.188  0.1364 -0.3883  0.4455
19225SOL     OW62521   7.988   6.334   1.016  0.6024  0.4834  0.4691
19225SOL    HW162522   7.963   6.412   0.966 -0.6383  0.7234  1.4212
19225SOL    HW262523   8.015   6.271   0.949  1.8072  1.7583 -0.3196
19226SOL     OW62524   7.402   5.169   0.726 -0.3422 -0.5329  0.4144
19226SOL    HW162525   7.412   5.227   0.802  0.8589  0.3359 -0.3796
19226SOL    HW262526   7.323   5.201   0.683  0.7704  1.1317 -0.4899
19227SOL     OW62527   4.616   8.082   2.136 -0.4591  0.1838 -0.2308
19227SOL    HW162528   4.583   8.006   2.185 -1.7387  1.8607  1.6910
19227SOL    HW262529   4.570   8.078   2.053 -1.0350 -0.7632  0.1116
19228SOL     OW62530   6.297   5.767   8.288  0.0258  0.4392 -0.2463
19228SOL    HW162531   6.236   5.791   8.359 -0.0388  0.7607 -0.4074
19228SOL    HW262532   6.337   5.850   8.262 -1.1319  0.5822 -1.6759
19229SOL     OW62533   4.423   4.061   0.105 -0.3159  0.0154  0.2628
19229SOL    HW162534   4.429   4.148   0.144 -0.7612  0.3072 -0.3123
19229SOL    HW262535   4.345   4.064   0.049  0.6001 -0.2151 -1.0774
19230SOL     OW62536   5.057   2.322   1.012 -0.3903 -0.4841 -0.1784
19230SOL    HW162537   5.006   2.403   1.022  1.0961  0.4652  0.0520
19230SOL    HW262538   5.007   2.270   0.949 -1.3995  0.6063 -0.3185
19231SOL     OW62539   4.527   3.946   9.497  0.3194  0.2909  0.2707
19231SOL    HW162540   4.507   3.914   9.585 -0.7267 -0.0792 -0.0987
19231SOL    HW262541   4.538   3.867   9.444 -1.7857  0.4733 -0.5328
19232SOL     OW62542   7.243   5.292   1.601 -0.7595 -0.1628  0.5728
19232SOL    HW162543   7.316   5.349   1.627 -1.6115  1.0779  0.3228
19232SOL    HW262544   7.251   5.286   1.505 -1.6138  0.9139  0.4094
19233SOL     OW62545   6.194   4.623   2.613 -0.0959  0.1681  0.1830
19233SOL    HW162546   6.284   4.597   2.590  0.0329  1.5783 -1.0419
19233SOL    HW262547   6.172   4.567   2.688  1.4760 -0.8245 -0.0352
19234SOL     OW62548   9.282   6.589   0.026 -0.1671 -0.1199  0.0464
19234SOL    HW162549   9.297   6.642   0.104  2.1022 -0.8015  0.1311
19234SOL    HW262550   9.221   6.521   0.055  0.0175  0.1005  0.9860
19235SOL     OW62551   7.176   7.981   1.797 -0.1868  0.0947 -0.7275
19235SOL    HW162552   7.246   8.022   1.747 -0.0079 -0.6421 -1.0887
19235SOL    HW262553   7.203   7.991   1.889  1.0147 -1.2422 -0.9006
19236SOL     OW62554   4.306   5.663   1.429 -0.0143 -0.3837  0.5493
19236SOL    HW162555   4.304   5.758   1.419 -0.6438 -0.6659 -3.6025
19236SOL    HW262556   4.214   5.638   1.441  0.0611 -0.5534  0.7931
19237SOL     OW62557   5.019   7.036   1.848  0.3978  0.1009  0.1151
19237SOL    HW162558   4.999   7.110   1.792 -0.1435  0.5957  0.9515
19237SOL    HW262559   4.966   7.049   1.927  2.8656  0.7182  1.8020
19238SOL     OW62560   7.703   4.837   0.879  0.3017  0.1530 -0.6586
19238SOL    HW162561   7.658   4.865   0.800 -1.1040 -0.4026 -0.0899
19238SOL    HW262562   7.787   4.882   0.877 -1.0073  2.7472 -0.8161
19239SOL     OW62563   6.422   1.871   3.642  0.3246  0.0646  0.3666
19239SOL    HW162564   6.391   1.959   3.665  0.4108  0.0533  0.5241
19239SOL    HW262565   6.481   1.846   3.713 -0.9809 -0.7955  1.1963
19240SOL     OW62566   7.903   5.229   0.457 -0.5291  0.4929 -0.1067
19240SOL    HW162567   7.837   5.170   0.421 -0.3505  0.4236 -0.3189
19240SOL    HW262568   7.865   5.260   0.539 -0.1750 -0.7390  0.5356
19241SOL     OW62569   5.503   4.998   0.356 -0.1696 -0.1003 -0.0074
19241SOL    HW162570   5.417   4.973   0.322  0.4171 -2.1132 -0.1916
19241SOL    HW262571   5.519   4.935   0.427  1.7359 -0.7561 -0.9468
19242SOL     OW62572   8.049   6.760   3.707 -0.1737 -0.2137  0.5236
19242SOL    HW162573   8.091   6.693   3.653  0.0713 -0.4419  0.9807
19242SOL    HW262574   8.028   6.831   3.647  0.3934 -0.3206  0.1954
19243SOL     OW62575   6.390   3.599   0.779  0.3554 -0.1458 -0.0533
19243SOL    HW162576   6.401   3.563   0.691 -1.6195 -0.2982 -0.2964
19243SOL    HW262577   6.380   3.693   0.766  0.3905 -0.1298  0.0330
19244SOL     OW62578   6.311   5.452   7.909 -0.3421 -0.0578  0.1982
19244SOL    HW162579   6.320   5.544   7.888  1.0087 -0.1416  0.3613
19244SOL    HW262580   6.255   5.450   7.987  0.5331  0.7067  0.8626
19245SOL     OW62581   5.738   5.826   9.522  0.3439 -0.0921  0.4399
19245SOL    HW162582   5.729   5.738   9.484  1.7802 -0.4475  0.8263
19245SOL    HW262583   5.787   5.875   9.456 -0.4762  0.4373  0.2168
19246SOL     OW62584   6.763   4.849   1.288  0.1804  0.7123 -0.1908
19246SOL    HW162585   6.735   4.814   1.203  0.0580 -2.2272  0.9557
19246SOL    HW262586   6.849   4.887   1.272  0.0440  0.4504 -1.6676
19247SOL     OW62587   5.728   1.758   9.493 -0.6405 -0.8017  0.0073
19247SOL    HW162588   5.749   1.674   9.452 -0.0568  0.3039 -2.1068
19247SOL    HW262589   5.805   1.812   9.477 -0.9863  0.1404  1.3985
19248SOL     OW62590   4.196   5.237   1.996  0.1568  0.0049 -0.0679
19248SOL    HW162591   4.117   5.261   1.948  0.1436  0.4714  0.1795
19248SOL    HW262592   4.251   5.193   1.932 -0.3798 -0.4941 -0.1986
19249SOL     OW62593   5.143   2.569   0.300 -0.2157 -0.1944 -0.8800
19249SOL    HW162594   5.079   2.636   0.275 -0.0853 -0.5954 -2.4343
19249SOL    HW262595   5.092   2.504   0.348 -0.3367  1.0061  0.6883
19250SOL     OW62596   4.405   5.289   7.239  0.5208  0.1678  0.0351
19250SOL    HW162597   4.422   5.199   7.268 -1.0448  0.4255  1.9321
19250SOL    HW262598   4.374   5.279   7.149  0.0627 -1.2251  0.3254
19251SOL     OW62599   8.093   3.515   7.336  0.2306  0.2645 -0.1607
19251SOL    HW162600   8.124   3.460   7.264 -0.7521  0.5662 -0.8284
19251SOL    HW262601   8.003   3.536   7.313  0.5602  2.0987  0.1074
19252SOL     OW62602   4.852   5.961   0.428 -0.3311 -0.1327  0.3771
19252SOL    HW162603   4.804   5.879   0.415 -2.8857  1.4636 -1.3900
19252SOL    HW262604   4.915   5.963   0.357 -1.2386  0.0232 -0.4481
19253SOL     OW62605   6.880   3.078   2.629 -0.1583 -0.6896 -0.2562
19253SOL    HW162606   6.946   3.120   2.683 -2.2234  2.4225  0.0669
19253SOL    HW262607   6.863   3.140   2.558 -4.4939  0.0011  1.0920
19254SOL     OW62608   5.769   4.835   2.538 -0.0293 -0.2294 -0.0103
19254SOL    HW162609   5.733   4.903   2.595 -0.5135  2.0910 -2.8365
19254SOL    HW262610   5.698   4.771   2.530 -0.1046 -0.3856  1.5604
19255SOL     OW62611   6.383   5.541   2.083  0.1802  0.0852  0.0612
19255SOL    HW162612   6.305   5.497   2.050  1.1852  0.3294 -2.9089
19255SOL    HW262613   6.387   5.622   2.032  1.6412  0.7096  1.1298
19256SOL     OW62614   5.351   5.920   3.546  0.3853  0.4389 -0.2847
19256SOL    HW162615   5.433   5.896   3.503  0.7768  0.8128  0.2311
19256SOL    HW262616   5.378   5.972   3.622 -0.3844  1.9093 -0.9796
19257SOL     OW62617   5.829   3.970   0.996  0.7140 -0.0661 -0.4151
19257SOL    HW162618   5.764   3.953   0.927  0.4140 -1.4097  0.1641
19257SOL    HW262619   5.902   3.913   0.975  0.6587 -0.4238  0.3020
19258SOL     OW62620   7.518   2.920   7.994 -0.6826 -0.1026 -0.1397
19258SOL    HW162621   7.457   2.886   8.059 -0.1010  0.0017  0.4763
19258SOL    HW262622   7.605   2.900   8.030 -0.2585  2.8963  0.7581
19259SOL     OW62623   6.553   3.303   1.857 -0.3918 -0.1456  0.1712
19259SOL    HW162624   6.568   3.279   1.765  0.4139 -1.3267  0.5896
19259SOL    HW262625   6.625   3.262   1.904 -0.8230  0.4219  1.3494
19260SOL     OW62626   6.205   6.307   1.119 -0.7134  0.0737  0.6469
19260SOL    HW162627   6.290   6.301   1.074  1.0284  2.3111  3.3088
19260SOL    HW262628   6.213   6.247   1.193 -1.9835 -0.5674  0.2990
19261SOL     OW62629   6.195   3.384   9.430 -0.1172  0.0664  0.1986
19261SOL    HW162630   6.113   3.343   9.403 -0.1047  0.7668 -0.9280
19261SOL    HW262631   6.214   3.449   9.362  1.2540  0.0789  0.5629
19262SOL     OW62632   9.465   5.588   9.608  0.8001  0.0557 -0.7471
19262SOL    HW162633   9.450   5.680   9.586 -2.0980 -0.3120 -0.7147
19262SOL    HW262634   9.380   5.545   9.594  0.8596 -1.8336  3.1025
19263SOL     OW62635   5.843   2.650   9.017  0.2707  0.0453 -0.0696
19263SOL    HW162636   5.822   2.588   9.087 -0.9009  0.1950 -0.2526
19263SOL    HW262637   5.858   2.733   9.061 -0.2182  0.0822  0.0410
19264SOL     OW62638   3.252   3.937   1.482  0.5972  0.0990 -0.1522
19264SOL    HW162639   3.237   3.857   1.532  1.9116 -1.9892 -2.8149
19264SOL    HW262640   3.164   3.967   1.458  0.0758 -0.5175  0.9082
19265SOL     OW62641   5.657   3.238   3.196 -0.3187 -0.2278 -0.3842
19265SOL    HW162642   5.633   3.151   3.229 -0.0421 -0.3082 -0.3918
19265SOL    HW262643   5.645   3.231   3.101 -0.1143 -0.3168 -0.4041
19266SOL     OW62644   7.409   5.459   1.779 -0.0431 -0.0179 -0.6376
19266SOL    HW162645   7.430   5.539   1.827 -1.8144  0.1252 -0.0571
19266SOL    HW262646   7.450   5.389   1.830 -1.7681  0.1430  1.0426
19267SOL     OW62647   5.988   3.887   4.239  0.3330  0.2715  0.4452
19267SOL    HW162648   5.985   3.874   4.144  2.8270  0.1252  0.3194
19267SOL    HW262649   6.052   3.957   4.252 -0.5896  0.8905  2.0102
19268SOL     OW62650   7.901   4.324   7.872 -0.3314 -0.7044  0.6504
19268SOL    HW162651   7.916   4.297   7.782 -0.2760  0.0742  0.4146
19268SOL    HW262652   7.989   4.331   7.910 -0.3620 -1.2048  0.8256
19269SOL     OW62653   7.528   7.501   1.943  0.5570 -0.4445  0.3751
19269SOL    HW162654   7.596   7.472   1.883  1.8385  1.7080  0.6898
19269SOL    HW262655   7.519   7.595   1.925 -0.7093 -0.2338  1.9150
19270SOL     OW62656   6.042   2.580   1.212 -0.0688  0.1145 -0.4594
19270SOL    HW162657   5.967   2.601   1.157  0.0455 -1.1888 -1.1405
19270SOL    HW262658   6.102   2.532   1.155  0.0851 -1.2108  0.7569
19271SOL     OW62659   8.299   5.031   0.205 -0.1241  0.3481 -0.3772
19271SOL    HW162660   8.327   4.969   0.137 -1.5111 -2.2847  1.2935
19271SOL    HW262661   8.314   4.985   0.287 -2.4028  1.7474  0.9206
19272SOL     OW62662   7.563   1.981   3.984  0.7793 -0.6238 -0.1165
19272SOL    HW162663   7.524   1.912   4.037 -0.4269  0.3026  0.2526
19272SOL    HW262664   7.563   2.058   4.041  0.1719  0.1993 -1.1737
19273SOL     OW62665   5.938   7.112   2.746 -0.3556  0.4392  0.1180
19273SOL    HW162666   5.851   7.100   2.709 -1.1710  0.1476  2.0082
19273SOL    HW262667   5.950   7.037   2.804  1.7987 -0.3253 -1.1863
19274SOL     OW62668   8.822   5.082   0.378 -0.2723  0.1928  0.3436
19274SOL    HW162669   8.802   5.085   0.471 -0.3301  2.7608  0.3185
19274SOL    HW262670   8.744   5.117   0.335  1.1461  2.8353 -0.3174
19275SOL     OW62671   6.291   5.206   3.938  0.2833 -0.4473 -0.6689
19275SOL    HW162672   6.203   5.242   3.926  0.3033 -0.9344 -2.6469
19275SOL    HW262673   6.302   5.146   3.864  1.8250 -1.3314  0.2312
19276SOL     OW62674   8.048   3.897   8.370  0.3154 -0.1566 -0.0698
19276SOL    HW162675   7.994   3.867   8.442  0.2483 -1.2896 -0.5775
19276SOL    HW262676   7.986   3.933   8.306  0.0782 -1.7971 -0.8183
19277SOL     OW62677   6.562   8.797   2.559 -0.3626 -0.2899 -0.2808
19277SOL    HW162678   6.580   8.855   2.485 -1.9498 -1.1983 -1.4594
19277SOL    HW262679   6.641   8.800   2.613  0.0458  2.0285 -0.9012
19278SOL     OW62680   4.844   4.613   2.638 -0.4147  0.3009 -0.3620
19278SOL    HW162681   4.836   4.708   2.629  0.6000  0.4122 -0.1743
19278SOL    HW262682   4.870   4.583   2.552 -0.7139  0.1882 -0.4149
19279SOL     OW62683   3.935   3.505   0.049 -0.2447 -0.4169  0.2131
19279SOL    HW162684   4.003   3.551  -0.002 -0.4333  0.1968  0.5014
19279SOL    HW262685   3.928   3.556   0.130 -0.1867 -1.1943  0.7157
19280SOL     OW62686   5.286   3.063   8.166  0.0906 -0.0626  0.4550
19280SOL    HW162687   5.291   3.050   8.071  0.7332  1.6915  0.2101
19280SOL    HW262688   5.208   3.118   8.179 -1.7802 -2.7208  1.3000
19281SOL     OW62689   5.588   5.161   3.540 -0.0023 -0.9090 -0.5626
19281SOL    HW162690   5.662   5.127   3.591 -0.4393 -0.5728  0.3199
19281SOL    HW262691   5.513   5.108   3.569 -0.9407  1.4435  1.6994
19282SOL     OW62692   7.803   3.721   9.496  0.1762  0.2079 -0.4923
19282SOL    HW162693   7.823   3.639   9.452 -1.3587  0.7104 -2.2530
19282SOL    HW262694   7.708   3.725   9.497  0.1968  1.1567  1.1815
19283SOL     OW62695   5.256   6.109   2.966 -0.4622  0.2339  0.8847
19283SOL    HW162696   5.238   6.068   2.882  0.0972  0.4746  0.6496
19283SOL    HW262697   5.330   6.061   3.002 -1.0498 -0.2356  1.4985
19284SOL     OW62698   5.871   6.915   2.447 -0.9695  0.3585 -0.1732
19284SOL    HW162699   5.868   6.834   2.497  1.4176  0.8996  0.9872
19284SOL    HW262700   5.814   6.975   2.495  0.5151  0.5750  1.3816
19285SOL     OW62701   8.513   5.250   9.563  0.0797  0.3879 -0.5927
19285SOL    HW162702   8.599   5.208   9.553 -0.1977 -0.4201  0.2658
19285SOL    HW262703   8.512   5.318   9.496  0.1853 -1.6222 -2.7997
19286SOL     OW62704   6.034   2.509   9.719  0.1745  0.0738 -0.4802
19286SOL    HW162705   6.075   2.588   9.753  2.6093 -0.1089 -2.7062
19286SOL    HW262706   6.078   2.437   9.764  0.9604 -0.0860 -1.4891
19287SOL     OW62707   5.656   4.007   1.453 -0.1923  0.5622  0.1441
19287SOL    HW162708   5.661   3.971   1.364  0.4034  0.1928  0.3175
19287SOL    HW262709   5.706   4.088   1.449 -0.9409  1.0210 -0.0755
19288SOL     OW62710   6.222   4.903   0.303 -0.1399  0.0039 -0.1126
19288SOL    HW162711   6.236   4.822   0.353 -0.4170 -1.0207 -1.6475
19288SOL    HW262712   6.133   4.895   0.269 -0.5285  1.4182  0.5006
19289SOL     OW62713   5.963   4.121   1.715 -0.6236 -0.6962  0.0788
19289SOL    HW162714   5.947   4.134   1.808 -0.0223  0.8044 -0.0038
19289SOL    HW262715   6.023   4.191   1.690 -1.1098 -0.7989 -1.5375
19290SOL     OW62716   7.108   6.461   1.493 -0.6583  0.0601 -0.1000
19290SOL    HW162717   7.108   6.511   1.411  1.2106  1.2526  0.5436
19290SOL    HW262718   7.028   6.487   1.537 -1.5126 -0.3187 -1.3770
19291SOL     OW62719   7.614   2.551   3.495 -0.5372  0.0641  0.0122
19291SOL    HW162720   7.554   2.489   3.452  0.0095 -1.4295  1.3418
19291SOL    HW262721   7.693   2.550   3.440 -1.0777  0.7958 -0.8212
19292SOL     OW62722   4.359   3.230   9.166  0.8268  0.5502  0.3932
19292SOL    HW162723   4.294   3.194   9.106  0.7921 -0.0658  0.7904
19292SOL    HW262724   4.366   3.323   9.142 -0.3137  0.6597  0.4629
19293SOL     OW62725   6.062   7.512   2.302 -0.0940  0.3146 -0.2062
19293SOL    HW162726   5.994   7.572   2.331  0.7008  1.5276 -0.7752
19293SOL    HW262727   6.064   7.443   2.369 -3.3645 -0.9983 -1.2561
19294SOL     OW62728   5.377   5.559   1.606 -0.1550 -0.0949 -1.4224
19294SOL    HW162729   5.295   5.509   1.613 -0.2436  0.2052  0.0308
19294SOL    HW262730   5.348   5.650   1.598  0.0341 -0.0068 -1.0977
19295SOL     OW62731   4.935   3.708   3.093  0.3331 -0.2530  0.4526
19295SOL    HW162732   4.914   3.726   3.184  0.0469 -0.6092  0.4588
19295SOL    HW262733   4.903   3.619   3.078 -2.1805  0.7428 -0.7461
19296SOL     OW62734   6.694   3.576   9.062  0.3131  0.1603  0.0247
19296SOL    HW162735   6.663   3.613   8.979  1.3878  0.8139 -0.1105
19296SOL    HW262736   6.789   3.589   9.060  0.1393  2.9463  2.6112
19297SOL     OW62737   6.031   5.502   3.424 -0.4534 -0.7139  0.2674
19297SOL    HW162738   5.975   5.434   3.460 -0.3422 -0.6236  0.6101
19297SOL    HW262739   6.101   5.513   3.488 -1.9115  1.6461  1.5972
19298SOL     OW62740   4.353   2.699   4.184 -0.2165 -0.0220  0.4904
19298SOL    HW162741   4.299   2.755   4.239 -1.0743 -1.5902  1.2970
19298SOL    HW262742   4.379   2.626   4.240  2.3071  0.3636 -0.0259
19299SOL     OW62743   9.729   4.949   1.790  0.6726  0.3293  0.1077
19299SOL    HW162744   9.676   4.960   1.869  0.8095  1.2007  0.0951
19299SOL    HW262745   9.817   4.927   1.822  0.9847  1.6881  0.2714
19300SOL     OW62746   4.807   3.813   0.739 -0.4088 -0.2584 -0.1873
19300SOL    HW162747   4.817   3.849   0.827  1.2081 -0.5405 -0.2402
19300SOL    HW262748   4.714   3.791   0.733 -0.4784 -0.5814  1.5831
19301SOL     OW62749   7.593   6.227   9.468  0.0612  0.2097 -0.6299
19301SOL    HW162750   7.529   6.199   9.533  0.4845 -1.4887 -0.8833
19301SOL    HW262751   7.603   6.321   9.482 -1.0217  0.1503  0.7057
19302SOL     OW62752   3.794   2.024   2.998 -0.2232  0.1695  0.0363
19302SOL    HW162753   3.855   2.045   2.928 -1.0306  0.2481 -0.6691
19302SOL    HW262754   3.737   1.957   2.961  0.0648 -0.6525  1.0314
19303SOL     OW62755   7.216   6.280   3.601 -0.4681  0.0108  0.0280
19303SOL    HW162756   7.170   6.242   3.526  0.7501 -0.8029 -0.3446
19303SOL    HW262757   7.216   6.211   3.667  2.6479 -1.1565 -1.0217
19304SOL     OW62758   6.017   4.011   3.583  0.1120 -0.6473  0.3983
19304SOL    HW162759   5.937   4.022   3.635 -0.1567 -0.5197 -0.0399
19304SOL    HW262760   6.088   4.031   3.645 -0.2531  0.6830  0.4215
19305SOL     OW62761   8.391   6.121   3.500  0.7604 -0.5159  0.0624
19305SOL    HW162762   8.407   6.070   3.579 -2.3717 -1.8239 -0.0027
19305SOL    HW262763   8.390   6.056   3.429 -1.6633 -0.2630 -0.2397
19306SOL     OW62764   4.371   6.347   2.798 -0.2386 -0.2399 -0.5321
19306SOL    HW162765   4.289   6.355   2.750 -0.1625  0.0895 -0.6102
19306SOL    HW262766   4.355   6.277   2.862 -0.2445 -0.8803 -1.2222
19307SOL     OW62767   5.092   3.869   0.599 -0.1099  0.3955 -0.1575
19307SOL    HW162768   5.067   3.827   0.681 -1.3607 -1.3843 -1.3921
19307SOL    HW262769   5.057   3.958   0.606  2.1030  1.2329  2.2753
19308SOL     OW62770   4.341   6.445   3.659  0.2805  0.2468 -0.9965
19308SOL    HW162771   4.373   6.495   3.584  1.9138  0.9433  0.0926
19308SOL    HW262772   4.403   6.372   3.668  0.9229  0.9201  0.4313
19309SOL     OW62773   6.951   4.081   2.921  0.0984  0.5050  0.1472
19309SOL    HW162774   7.028   4.133   2.942  1.0165 -1.2512  1.4004
19309SOL    HW262775   6.877   4.135   2.950  0.9574  1.4630  0.6027
19310SOL     OW62776   6.391   4.373   0.305  0.2274  0.4177  0.0852
19310SOL    HW162777   6.409   4.467   0.298 -0.7431  0.5189 -1.7472
19310SOL    HW262778   6.295   4.368   0.303 -0.0087 -0.4077  4.2903
19311SOL     OW62779   4.363   2.161   3.598  0.1049  0.3016 -0.2510
19311SOL    HW162780   4.290   2.170   3.536  1.2430  1.3246 -1.5353
19311SOL    HW262781   4.358   2.071   3.628 -1.3647  0.1935 -0.7087
19312SOL     OW62782   5.337   4.312   1.382 -0.1045  0.1555 -0.0078
19312SOL    HW162783   5.386   4.341   1.305 -0.7878  0.5168 -0.3199
19312SOL    HW262784   5.402   4.268   1.437  1.0246  2.4574  0.6009
19313SOL     OW62785   5.654   2.894   1.434 -0.0685 -0.5105 -0.1592
19313SOL    HW162786   5.687   2.861   1.518  1.6977 -0.0981 -0.6556
19313SOL    HW262787   5.612   2.818   1.393  2.6475 -1.8737 -0.6540
19314SOL     OW62788   5.893   2.704   4.403  0.1030  0.4574  0.0419
19314SOL    HW162789   5.905   2.613   4.428  0.0106  0.7621  1.2697
19314SOL    HW262790   5.928   2.710   4.314 -1.0971 -1.0510 -0.5732
19315SOL     OW62791   4.548   4.723   2.732 -0.0115  0.3043  0.0987
19315SOL    HW162792   4.623   4.731   2.791  0.0456  1.1375 -0.0733
19315SOL    HW262793   4.582   4.750   2.647  0.3166 -2.3581 -0.6849
19316SOL     OW62794   6.612   5.611   2.455 -0.3626 -0.1875 -0.3156
19316SOL    HW162795   6.653   5.622   2.369  0.0507 -1.3654 -0.2802
19316SOL    HW262796   6.607   5.700   2.490 -0.1234  0.2569 -1.3631
19317SOL     OW62797   5.852   8.337   1.722 -0.0721  0.5880  0.0103
19317SOL    HW162798   5.860   8.414   1.666  1.1667 -0.2504 -1.0004
19317SOL    HW262799   5.788   8.281   1.677  0.6490  0.0757 -0.3876
19318SOL     OW62800   7.816   6.066   8.916  0.2469  0.1955  0.0009
19318SOL    HW162801   7.856   6.074   8.829 -2.1954  0.3090 -1.2147
19318SOL    HW262802   7.807   6.155   8.947 -0.1934  0.2704 -0.3202
19319SOL     OW62803   7.412   2.584   0.799 -0.3610 -0.3031  0.3798
19319SOL    HW162804   7.484   2.544   0.848  1.1153  0.5979 -0.9447
19319SOL    HW262805   7.374   2.512   0.749  0.6112 -0.5444 -0.0373
19320SOL     OW62806   7.818   4.075   1.976 -0.3502 -0.4827  0.3156
19320SOL    HW162807   7.769   4.021   1.914 -0.8575  0.1746  0.1148
19320SOL    HW262808   7.888   4.019   2.008 -1.3356 -1.5151  0.7307
19321SOL     OW62809   4.769   5.679   1.220 -0.1148  0.0413 -0.2203
19321SOL    HW162810   4.808   5.641   1.299 -1.7922 -0.3090  0.4743
19321SOL    HW262811   4.837   5.738   1.186  0.2529  1.0601  2.0985
19322SOL     OW62812   4.399   6.036   2.910 -0.0527  0.1267 -0.4609
19322SOL    HW162813   4.380   6.091   2.986 -1.4481 -0.9126 -0.0351
19322SOL    HW262814   4.473   5.981   2.938  0.1740  0.5257 -0.2653
19323SOL     OW62815   6.419   6.312   4.434 -0.0607  0.2967 -0.0958
19323SOL    HW162816   6.428   6.303   4.339 -0.5481 -1.0606 -0.0350
19323SOL    HW262817   6.325   6.304   4.450  0.1053 -0.4306  0.5846
19324SOL     OW62818   6.450   7.575   2.515  0.1746  0.1969  0.2619
19324SOL    HW162819   6.367   7.619   2.495  0.1006  0.0237  0.1806
19324SOL    HW262820   6.517   7.635   2.482  0.0926  0.4776  0.6026
19325SOL     OW62821   6.437   5.514   7.631 -0.1792  0.3166  0.4061
19325SOL    HW162822   6.360   5.457   7.628 -1.3206  1.7905  0.5288
19325SOL    HW262823   6.511   5.453   7.632 -1.3402 -1.1697  1.1112
19326SOL     OW62824   8.100   6.005   4.215  0.1149  0.1683 -0.2739
19326SOL    HW162825   8.162   6.078   4.213 -1.7957  1.8786 -0.1203
19326SOL    HW262826   8.146   5.933   4.173  2.4493  1.1375  0.4666
19327SOL     OW62827   5.888   3.010   3.038 -0.1456  0.3050 -0.1675
19327SOL    HW162828   5.872   2.916   3.040 -0.1336  0.2480 -1.7452
19327SOL    HW262829   5.813   3.046   2.991 -1.7992  1.4987  3.0929
19328SOL     OW62830   7.633   4.238   1.027  0.2808  0.3794 -0.1849
19328SOL    HW162831   7.700   4.231   0.958 -0.2086 -1.0154 -0.5438
19328SOL    HW262832   7.550   4.228   0.981 -0.1680  1.4668  0.3519
19329SOL     OW62833   7.291   5.147   4.332 -0.3672 -0.6399  0.1841
19329SOL    HW162834   7.338   5.182   4.407 -0.9798 -0.4743  0.4951
19329SOL    HW262835   7.321   5.056   4.325 -0.7849 -0.8494  1.0201
19330SOL     OW62836   5.825   3.514   5.786  0.4482 -0.5583  0.3211
19330SOL    HW162837   5.872   3.460   5.723  2.0536  0.8992  0.1868
19330SOL    HW262838   5.842   3.604   5.757 -0.8138  0.0724  1.4419
19331SOL     OW62839   4.753   6.064   0.075  0.0887  0.3515  0.8457
19331SOL    HW162840   4.675   6.020   0.109 -0.0801 -0.7639 -0.8093
19331SOL    HW262841   4.827   6.016   0.113 -0.0552  0.5625  1.3879
19332SOL     OW62842   6.204   6.260   4.588 -0.3807 -0.1799  0.2351
19332SOL    HW162843   6.155   6.208   4.652 -0.0900 -0.9416 -0.1429
19332SOL    HW262844   6.168   6.348   4.596 -2.0846 -0.7916 -0.3063
19333SOL     OW62845   6.308   1.993   7.503  0.8361  0.5171  0.2985
19333SOL    HW162846   6.276   1.951   7.583  2.0826  1.2562  1.2278
19333SOL    HW262847   6.276   2.083   7.508  0.7748  0.5172 -0.1156
19334SOL     OW62848   6.842   5.632   3.732 -0.2429 -0.6865  0.4952
19334SOL    HW162849   6.836   5.657   3.824  0.3287  0.5606  0.2141
19334SOL    HW262850   6.855   5.714   3.685 -1.4675 -1.1919 -0.8101
19335SOL     OW62851   6.759   3.424   7.800 -0.0537  0.1572  0.1649
19335SOL    HW162852   6.749   3.329   7.800 -1.3307  0.2411 -1.2474
19335SOL    HW262853   6.707   3.453   7.875 -0.8213 -0.1906 -0.2176
19336SOL     OW62854   4.831   3.417   3.905  0.1714 -0.3599  0.1423
19336SOL    HW162855   4.908   3.454   3.861 -0.6682  0.0663 -1.0352
19336SOL    HW262856   4.859   3.330   3.933  1.8903  0.7303  2.1231
19337SOL     OW62857   7.859   3.283   2.280 -0.0486 -0.3112  0.1494
19337SOL    HW162858   7.767   3.274   2.252  0.2218  0.3717 -1.0286
19337SOL    HW262859   7.907   3.298   2.199  0.9613  0.5006  0.8802
19338SOL     OW62860   6.660   6.183   3.882 -0.4074  0.0300  0.3149
19338SOL    HW162861   6.704   6.180   3.797 -2.7665 -2.3050 -0.9896
19338SOL    HW262862   6.727   6.213   3.943  1.8017  0.3869 -2.1084
19339SOL     OW62863   6.717   2.403   1.047  0.3060  0.2978 -0.0539
19339SOL    HW162864   6.675   2.324   1.014 -0.3859  0.5573  0.1879
19339SOL    HW262865   6.719   2.392   1.142 -0.8838  1.0769  0.0862
19340SOL     OW62866   6.098   5.200   2.878 -0.4094 -0.0627  0.2385
19340SOL    HW162867   6.130   5.129   2.933  1.2222  1.1633  0.9732
19340SOL    HW262868   6.177   5.242   2.844 -1.3388 -0.5909 -2.8959
19341SOL     OW62869   7.834   6.977   1.934 -0.7779 -0.0569 -0.2810
19341SOL    HW162870   7.782   6.913   1.981 -2.1669 -0.4044 -2.1597
19341SOL    HW262871   7.830   6.949   1.842 -0.6616  2.1850 -1.0481
19342SOL     OW62872   8.225   2.641   2.284 -0.1091 -0.0057  0.6702
19342SOL    HW162873   8.301   2.639   2.342  0.3894  1.5951  0.1187
19342SOL    HW262874   8.261   2.652   2.196 -0.8944 -1.6249  0.0894
19343SOL     OW62875   5.583   3.613   2.889 -0.2680 -0.0413  0.1246
19343SOL    HW162876   5.648   3.543   2.883 -2.2733 -1.9268 -1.1374
19343SOL    HW262877   5.607   3.662   2.968  1.6216 -1.7180  0.6730
19344SOL     OW62878   7.614   5.557   0.979  0.0965  0.0815  0.4912
19344SOL    HW162879   7.696   5.514   0.955  1.1539  1.1372  2.0453
19344SOL    HW262880   7.640   5.642   1.014 -1.7847  1.0954 -0.3704
19345SOL     OW62881   7.416   4.304   4.902  0.3624  0.2458  0.6339
19345SOL    HW162882   7.498   4.297   4.852  0.0813 -0.5252  0.2672
19345SOL    HW262883   7.444   4.326   4.991  0.9119  0.9264  0.3063
19346SOL     OW62884   2.329   6.532   1.936  0.0001  0.8030  0.2295
19346SOL    HW162885   2.399   6.467   1.940 -0.4930  0.0630 -1.9223
19346SOL    HW262886   2.266   6.502   2.001 -0.0162 -0.6853 -0.4076
19347SOL     OW62887   6.038   4.796   9.299  0.2407  0.7641  0.6532
19347SOL    HW162888   6.033   4.793   9.395  0.2053  1.7203  0.6931
19347SOL    HW262889   6.129   4.774   9.279 -0.3366 -2.0266  0.7432
19348SOL     OW62890   7.139   4.802   2.045 -0.3701  0.0242 -0.2591
19348SOL    HW162891   7.104   4.888   2.024 -0.8549 -0.1019  0.0027
19348SOL    HW262892   7.234   4.814   2.048 -0.4687  0.7151  0.4838
19349SOL     OW62893   7.516   3.973   4.198 -0.2043  0.0565  0.2385
19349SOL    HW162894   7.496   4.040   4.133  0.8414 -0.9090 -1.1498
19349SOL    HW262895   7.588   4.010   4.249  1.8848 -0.7615 -1.9313
19350SOL     OW62896   6.924   7.654   0.763  0.0206  0.0909  0.3046
19350SOL    HW162897   6.982   7.578   0.761  0.6891  0.6048 -0.1556
19350SOL    HW262898   6.948   7.702   0.842  1.1668  1.0030 -0.5500
19351SOL     OW62899   4.825   4.798   1.505 -0.2213 -0.2200 -0.9222
19351SOL    HW162900   4.868   4.802   1.590 -0.6643  0.1772 -0.7189
19351SOL    HW262901   4.732   4.808   1.523 -0.2868  0.2821 -1.4891
19352SOL     OW62902   5.774   4.651   8.757 -0.1786 -0.2643 -0.2243
19352SOL    HW162903   5.751   4.744   8.763  0.0784 -0.2737  1.5865
19352SOL    HW262904   5.867   4.651   8.735 -0.6577 -0.1606 -2.4620
19353SOL     OW62905   4.125   5.672   2.732  0.4833  0.4360  0.0044
19353SOL    HW162906   4.177   5.751   2.716 -0.9918  1.3972 -0.2422
19353SOL    HW262907   4.043   5.705   2.769  0.2424 -1.0747  0.8767
19354SOL     OW62908   6.608   3.386   5.486 -0.1554 -0.4246 -0.1216
19354SOL    HW162909   6.662   3.380   5.407  2.2088 -1.4256  1.4333
19354SOL    HW262910   6.530   3.334   5.466 -1.0798  1.7292 -2.7494
19355SOL     OW62911   7.821   8.522   4.043  0.0037 -0.2052  0.2946
19355SOL    HW162912   7.735   8.553   4.072 -0.5569  0.1499 -1.5971
19355SOL    HW262913   7.873   8.601   4.033  0.0017 -0.2573 -0.1694
19356SOL     OW62914   5.737   4.263   1.400 -0.0341  0.1119  0.2028
19356SOL    HW162915   5.757   4.348   1.440 -1.3311  0.7373 -0.4074
19356SOL    HW262916   5.756   4.276   1.307 -1.0877  0.0458 -0.0397
19357SOL     OW62917   4.426   4.253   2.605  0.4869  0.8091  0.4461
19357SOL    HW162918   4.403   4.162   2.583  1.6095  0.6594 -0.1713
19357SOL    HW262919   4.460   4.247   2.694 -2.2347  1.1176  1.6087
19358SOL     OW62920   7.910   4.542   3.599  0.3763  0.2380  0.1136
19358SOL    HW162921   7.976   4.550   3.669 -0.5209  0.8507  0.9259
19358SOL    HW262922   7.914   4.450   3.573  1.8729  0.3567 -0.1939
19359SOL     OW62923   5.758   2.784   2.618  0.0521 -0.6573  0.2152
19359SOL    HW162924   5.766   2.808   2.525  0.5530  0.4346  0.5197
19359SOL    HW262925   5.693   2.846   2.652  0.0929 -0.8634  0.6672
19360SOL     OW62926   6.538   3.897   2.868 -0.1948  0.1989 -0.5723
19360SOL    HW162927   6.491   3.825   2.909  0.4078  0.0516 -0.1352
19360SOL    HW262928   6.568   3.952   2.941  0.8886 -0.0703 -0.7933
19361SOL     OW62929   5.829   5.513   3.218 -0.4031 -0.5231  0.2367
19361SOL    HW162930   5.904   5.508   3.277 -0.8273  0.0969  0.8465
19361SOL    HW262931   5.757   5.475   3.267 -0.7245 -0.1382  0.0687
19362SOL     OW62932   8.401   3.969   3.683  0.2520  0.4078 -0.4616
19362SOL    HW162933   8.481   3.926   3.713  0.1677 -0.7643 -1.8336
19362SOL    HW262934   8.334   3.940   3.746  0.5794  0.0805 -0.2576
19363SOL     OW62935   7.691   2.171   0.087 -0.3125 -0.5020 -0.1320
19363SOL    HW162936   7.705   2.260   0.121  0.2649 -0.2891 -0.8778
19363SOL    HW262937   7.670   2.184  -0.005 -1.8833 -1.0629  0.1168
19364SOL     OW62938   5.294   5.406   1.126  0.3544 -0.1820  0.8746
19364SOL    HW162939   5.347   5.433   1.201  1.1833 -0.4570  0.4055
19364SOL    HW262940   5.358   5.386   1.057 -0.4120  0.8645 -0.1897
19365SOL     OW62941   8.930   3.486   1.385  0.4365  0.3907 -0.3073
19365SOL    HW162942   8.848   3.480   1.337 -0.5578  0.4845  1.3116
19365SOL    HW262943   8.934   3.406   1.437 -0.4508  1.9142  2.3097
19366SOL     OW62944   6.490   4.922   1.348  0.2197  0.5496  0.1594
19366SOL    HW162945   6.585   4.912   1.340  0.1607  1.0549 -2.1461
19366SOL    HW262946   6.465   4.967   1.267 -1.9468  0.7474  0.8885
19367SOL     OW62947   5.231   1.909   9.834 -0.2044  0.6254 -0.1821
19367SOL    HW162948   5.164   1.974   9.854  0.0194  1.0198 -0.6913
19367SOL    HW262949   5.195   1.826   9.866 -0.0705  1.1343  1.4094
19368SOL     OW62950   7.453   2.959   2.379 -0.0183  0.1340  0.1735
19368SOL    HW162951   7.542   2.994   2.369 -0.1733  0.9256  1.3324
19368SOL    HW262952   7.411   3.018   2.441 -0.6012 -1.5879  1.5086
19369SOL     OW62953   5.772   4.711   3.938  0.3835 -0.0452  0.4049
19369SOL    HW162954   5.864   4.730   3.920  0.6904 -1.2943  0.5563
19369SOL    HW262955   5.735   4.688   3.852  0.0208  1.1501  0.2252
19370SOL     OW62956   7.612   4.301   3.421  0.2163  0.5404 -0.0103
19370SOL    HW162957   7.706   4.284   3.413  0.4316  0.7442  1.6399
19370SOL    HW262958   7.591   4.355   3.345  1.1663 -0.5263 -1.0632
19371SOL     OW62959   5.850   4.208   1.949  0.0401  0.4415 -0.0225
19371SOL    HW162960   5.894   4.197   2.033  0.8199  0.0182 -0.4751
19371SOL    HW262961   5.862   4.301   1.928  0.3945  0.4120  0.0426
19372SOL     OW62962   7.805   4.350   2.945 -0.0284  0.1752  0.0317
19372SOL    HW162963   7.826   4.359   2.852  0.6882 -1.4998  0.0025
19372SOL    HW262964   7.878   4.394   2.990  0.9879 -1.2181 -0.1817
19373SOL     OW62965   5.915   5.783   3.109  0.6735 -0.8748  0.1629
19373SOL    HW162966   5.998   5.745   3.139 -0.0175 -3.1474 -0.6127
19373SOL    HW262967   5.941   5.841   3.037  1.6287 -1.1880  0.2350
19374SOL     OW62968   5.205   4.692   0.544 -0.2699 -0.2896  0.1015
19374SOL    HW162969   5.128   4.640   0.522  0.7674 -1.2951 -1.3161
19374SOL    HW262970   5.170   4.779   0.564 -1.8047 -0.8573  0.0259
19375SOL     OW62971   8.195   3.970   0.943 -0.0191  0.3763 -0.4402
19375SOL    HW162972   8.266   3.906   0.949  0.0623  0.5771  1.2520
19375SOL    HW262973   8.212   4.017   0.861  1.9887  0.6139  0.0559
19376SOL     OW62974   9.762   2.569   0.543  0.6014 -0.8485  0.5335
19376SOL    HW162975   9.742   2.516   0.620  0.1348 -0.3285  0.7878
19376SOL    HW262976   9.712   2.650   0.558  1.4462 -0.2684  0.2546
19377SOL     OW62977   8.652   2.680   2.624 -1.0153  0.2954  0.0013
19377SOL    HW162978   8.671   2.773   2.638 -1.9278  0.4168  0.5390
19377SOL    HW262979   8.611   2.651   2.706 -0.0586 -0.7787  0.1199
19378SOL     OW62980   8.088   5.420   3.768  0.1814  0.4429 -0.2165
19378SOL    HW162981   8.168   5.458   3.732  0.0224  1.0619  0.0722
19378SOL    HW262982   8.101   5.421   3.863  1.4572 -3.0269 -0.1935
19379SOL     OW62983   8.324   4.698   3.555 -0.1589 -0.0264  0.0157
19379SOL    HW162984   8.319   4.742   3.641  0.8944 -0.2267  0.2015
19379SOL    HW262985   8.259   4.743   3.501  0.4824  1.4034  0.3706
19380SOL     OW62986   6.589   2.434   0.480 -0.4737 -0.9044  0.1805
19380SOL    HW162987   6.514   2.442   0.422 -2.3300 -2.5922  2.1779
19380SOL    HW262988   6.640   2.513   0.464 -2.5222  0.1891 -1.4375
19381SOL     OW62989   6.183   3.738   0.529  0.1515  0.9615 -0.3078
19381SOL    HW162990   6.266   3.691   0.526 -0.8783 -0.9842 -0.0504
19381SOL    HW262991   6.192   3.808   0.465  2.6736  2.0505  1.0891
19382SOL     OW62992   8.658   3.748   0.960 -0.7171  0.0020 -0.3704
19382SOL    HW162993   8.753   3.756   0.951 -0.5207  0.2286  1.6103
19382SOL    HW262994   8.637   3.792   1.042 -2.3153 -1.5768  0.1437
19383SOL     OW62995   6.988   4.199   0.837  0.4106  0.0680 -0.3157
19383SOL    HW162996   6.906   4.171   0.796  0.8283 -0.3455 -0.8992
19383SOL    HW262997   7.006   4.132   0.903 -0.4499  0.9297  0.8228
19384SOL     OW62998   9.367   1.030   0.804 -0.0423 -0.2157  0.2255
19384SOL    HW162999   9.457   1.053   0.781  0.0236 -1.3792 -0.7687
19384SOL    HW263000   9.318   1.112   0.794  0.9343  0.4874  1.0328
19385SOL     OW63001   7.429   4.213   3.128 -0.3232 -0.2986  0.1277
19385SOL    HW163002   7.509   4.160   3.129  0.1502  0.3360 -1.1559
19385SOL    HW263003   7.431   4.256   3.042 -1.1483  1.0958  0.7824
19386SOL     OW63004   7.426   7.233   4.520 -0.4293 -0.3453 -0.5033
19386SOL    HW163005   7.490   7.301   4.501 -0.8894  0.7535  1.5370
19386SOL    HW263006   7.471   7.151   4.501  1.2965  0.4166  0.1019
19387SOL     OW63007   6.565   2.619   3.456  0.1346  0.2561  0.4194
19387SOL    HW163008   6.622   2.686   3.420  0.3381  0.8330  1.7645
19387SOL    HW263009   6.619   2.573   3.520 -0.3078 -0.5355  0.2407
19388SOL     OW63010   7.063   3.147   4.519  0.6444  0.2489  0.7814
19388SOL    HW163011   7.013   3.216   4.561  0.8916  1.0566 -0.2051
19388SOL    HW263012   6.998   3.096   4.470  0.7538  1.3359 -0.5529
19389SOL     OW63013   6.431   4.504   2.604  0.1035  0.2605  0.1562
19389SOL    HW163014   6.451   4.424   2.652 -2.2758 -0.3748  0.2087
19389SOL    HW263015   6.430   4.573   2.670 -0.5031 -0.1536  0.5881
19390SOL     OW63016   7.857   1.872   3.592 -0.0542 -0.6567  0.2871
19390SOL    HW163017   7.775   1.918   3.576 -1.3759 -2.2154  2.0880
19390SOL    HW263018   7.889   1.849   3.504 -0.6565  1.3795 -0.5144
19391SOL     OW63019   6.274   1.261   0.212 -0.0164 -0.2027 -0.2711
19391SOL    HW163020   6.259   1.205   0.288  0.4708  1.8281  1.3999
19391SOL    HW263021   6.195   1.249   0.158 -0.5356 -1.4079  0.6984
19392SOL     OW63022   4.967   5.724   2.426  0.2415 -0.6339 -0.1153
19392SOL    HW163023   4.924   5.681   2.500  1.7000 -1.7479  0.1254
19392SOL    HW263024   4.906   5.794   2.401 -1.2257 -1.4997  0.8317
19393SOL     OW63025   7.778   2.709   4.212 -0.2799 -0.3909 -0.2330
19393SOL    HW163026   7.780   2.643   4.142  1.2968  0.9487 -1.5273
19393SOL    HW263027   7.805   2.660   4.291 -0.0389 -1.4894 -0.9707
19394SOL     OW63028   5.791   5.810   0.565 -0.2171  0.2123  0.7787
19394SOL    HW163029   5.733   5.879   0.531  0.0211  0.6450  1.2429
19394SOL    HW263030   5.839   5.779   0.488 -3.0624 -2.1810 -0.2267
19395SOL     OW63031   4.692   3.954   0.367 -0.0877  0.1232  0.5341
19395SOL    HW163032   4.717   3.867   0.337  1.1131  1.0677 -1.3629
19395SOL    HW263033   4.670   3.942   0.459 -2.8422 -2.7371 -0.2997
19396SOL     OW63034   8.068   2.505   4.279  0.3441  0.4731 -0.3373
19396SOL    HW163035   8.162   2.493   4.296  0.5991  0.4697 -1.6081
19396SOL    HW263036   8.040   2.423   4.239  0.1794  1.0434 -1.4307
19397SOL     OW63037   6.981   5.562   4.216  0.1389 -0.5439  0.1338
19397SOL    HW163038   6.895   5.562   4.173  0.5890  0.0795 -0.7708
19397SOL    HW263039   6.965   5.516   4.299 -0.9700 -0.8271 -0.2160
19398SOL     OW63040   6.930   4.581   4.135 -0.0532  0.0444  0.2220
19398SOL    HW163041   6.999   4.585   4.068  0.6128 -1.9069  0.7178
19398SOL    HW263042   6.973   4.541   4.210 -1.9606 -2.2093  0.2014
19399SOL     OW63043   6.728   1.522   1.631  0.2839  0.0679  0.7019
19399SOL    HW163044   6.764   1.442   1.593 -3.4407 -0.0687 -3.2525
19399SOL    HW263045   6.671   1.491   1.702  2.2022 -0.2740  2.1705
19400SOL     OW63046   4.766   3.239   9.450 -0.1139 -0.2536 -0.1763
19400SOL    HW163047   4.804   3.277   9.371  1.6612 -0.1550  0.6718
19400SOL    HW263048   4.677   3.214   9.425  0.2812  0.1270 -2.0823
19401SOL     OW63049   8.954   4.604   4.640 -0.3056  0.1787  0.3775
19401SOL    HW163050   8.932   4.511   4.642  0.3670 -0.1540 -2.6676
19401SOL    HW263051   9.031   4.612   4.697  0.5039 -1.4324 -0.4375
19402SOL     OW63052   6.085   2.167   1.960 -0.2192  0.2971  0.0444
19402SOL    HW163053   6.115   2.100   1.898  0.8665  0.3719  0.4662
19402SOL    HW263054   6.007   2.128   2.001 -1.0666  0.3236 -1.4686
19403SOL     OW63055   5.278   3.924   1.985  0.4274 -0.9469  0.0543
19403SOL    HW163056   5.217   3.893   2.052 -3.4830  0.7740 -2.3436
19403SOL    HW263057   5.303   3.845   1.938 -0.0046 -1.7059  1.0508
19404SOL     OW63058   3.806   3.985   0.652 -0.1885  0.1452  0.4034
19404SOL    HW163059   3.835   3.955   0.739 -0.0474  0.1450  0.3578
19404SOL    HW263060   3.736   3.924   0.628  0.6891 -0.7146 -0.0662
19405SOL     OW63061   7.758   2.382   4.400 -0.4333 -0.0867 -0.3459
19405SOL    HW163062   7.775   2.385   4.306  1.8758 -0.4056  0.0101
19405SOL    HW263063   7.825   2.439   4.438 -0.6230 -0.8415  1.1889
19406SOL     OW63064   7.183   3.920   4.919 -0.0644  0.2221 -0.7115
19406SOL    HW163065   7.235   3.930   4.839  0.8587 -0.2283 -0.1816
19406SOL    HW263066   7.146   4.008   4.934  0.5661  0.5591 -1.0775
19407SOL     OW63067   5.893   2.842   1.270 -0.3380  0.8125  0.5876
19407SOL    HW163068   5.818   2.901   1.262 -1.2554 -0.4797 -0.9848
19407SOL    HW263069   5.923   2.829   1.180  2.3958  2.0052  1.2402
19408SOL     OW63070   7.095   4.037   1.977  0.4041  0.1726  0.1262
19408SOL    HW163071   7.128   3.985   2.050 -0.6266  0.5350  0.8927
19408SOL    HW263072   7.113   4.127   2.002  0.7273  0.2629 -0.4273
19409SOL     OW63073   7.069   3.470   1.866  0.6224  0.0941  0.0244
19409SOL    HW163074   7.143   3.415   1.894  0.8600 -0.5253 -1.7182
19409SOL    HW263075   7.037   3.428   1.786 -1.0291  0.8970  0.2236
19410SOL     OW63076   6.163   6.398   4.308  0.2794 -0.0366 -0.4295
19410SOL    HW163077   6.083   6.389   4.359 -1.5827  1.1762 -2.9223
19410SOL    HW263078   6.172   6.492   4.293  0.6696 -0.3260 -2.3376
19411SOL     OW63079   6.997   1.440   3.405  0.1489 -0.0748 -0.8141
19411SOL    HW163080   7.023   1.388   3.481 -1.0649  1.6075  0.8503
19411SOL    HW263081   7.014   1.531   3.430  0.0651  0.5254 -2.7283
19412SOL     OW63082   6.312   5.545   1.050  0.3759  0.5923 -0.2395
19412SOL    HW163083   6.277   5.478   0.992  0.2532 -0.5813  1.1525
19412SOL    HW263084   6.385   5.502   1.094  0.6216  1.5468  0.3019
19413SOL     OW63085   6.426   4.620   4.913  0.2453 -0.2611  0.6070
19413SOL    HW163086   6.341   4.578   4.914 -1.1859  2.3286 -1.0102
19413SOL    HW263087   6.460   4.605   4.824 -0.3992  1.9774 -0.0860
19414SOL     OW63088   5.549   2.862   0.436  0.0583  0.2765 -0.0928
19414SOL    HW163089   5.455   2.855   0.452  0.1545  1.3602  1.0530
19414SOL    HW263090   5.581   2.772   0.443 -0.8533 -0.0790 -0.3219
19415SOL     OW63091   4.249   4.272   3.485  0.6809 -0.1036 -0.6259
19415SOL    HW163092   4.168   4.266   3.535  0.2071 -0.3520 -1.3961
19415SOL    HW263093   4.247   4.195   3.427  0.1998  1.2405 -2.4609
19416SOL     OW63094   5.331   3.906   8.719 -0.0961 -0.7149  0.3225
19416SOL    HW163095   5.242   3.871   8.729  0.2778 -1.3633  1.6853
19416SOL    HW263096   5.329   3.989   8.767 -0.2557 -0.1525 -0.6282
19417SOL     OW63097   6.381   6.121   4.941  0.1160 -0.0323 -0.0922
19417SOL    HW163098   6.358   6.064   4.867  0.9732 -0.2339 -0.2080
19417SOL    HW263099   6.451   6.074   4.987  0.1717  0.4880  0.3648
19418SOL     OW63100   9.245   4.940   0.996 -0.3924  0.0929  0.1593
19418SOL    HW163101   9.218   5.032   1.004 -0.2130  0.3523 -1.7349
19418SOL    HW263102   9.337   4.940   1.023 -0.5021  0.3983  0.5435
19419SOL     OW63103   8.251   6.023   2.178  0.4096  0.0349  0.1408
19419SOL    HW163104   8.188   5.970   2.130  0.4590  0.5167 -0.4608
19419SOL    HW263105   8.325   5.963   2.195  0.8789  0.1570 -1.3649
19420SOL     OW63106   6.864   3.219   0.876 -0.1020 -0.2736  0.2480
19420SOL    HW163107   6.905   3.154   0.818 -0.8691 -0.1093 -0.5078
19420SOL    HW263108   6.879   3.185   0.964 -0.1910 -1.3060 -0.1168
19421SOL     OW63109   6.019   3.042   3.273  0.5773  0.0766  0.3242
19421SOL    HW163110   5.948   3.057   3.211 -0.4100  1.0883  1.6378
19421SOL    HW263111   6.071   2.973   3.234 -0.4246  0.1830 -1.2714
19422SOL     OW63112   5.890   3.695   2.261 -0.4099  0.0285 -0.4525
19422SOL    HW163113   5.875   3.632   2.190 -1.5772 -1.8854  1.3641
19422SOL    HW263114   5.926   3.772   2.217  2.1944 -2.2407 -2.7342
19423SOL     OW63115   3.915   3.363   2.327  1.0997  0.5881  0.0505
19423SOL    HW163116   3.941   3.385   2.417  1.3913 -0.4836  0.2476
19423SOL    HW263117   3.880   3.445   2.291 -0.3724  0.7071  1.6142
19424SOL     OW63118   5.131   5.152   2.730 -0.1195 -0.1438  0.5860
19424SOL    HW163119   5.049   5.106   2.707 -0.2269 -1.1509  2.7013
19424SOL    HW263120   5.124   5.236   2.685 -3.1229  0.4802  1.9492
19425SOL     OW63121   4.763   3.644   0.411  0.5716 -0.1808  0.0605
19425SOL    HW163122   4.855   3.653   0.387  0.8123  1.6962  1.4179
19425SOL    HW263123   4.755   3.556   0.448  1.6674 -0.5841 -0.6330
19426SOL     OW63124   3.886   3.035   0.260  0.9222  0.1818 -0.0049
19426SOL    HW163125   3.861   3.009   0.348 -2.3809  1.9677 -0.2631
19426SOL    HW263126   3.937   3.115   0.271  2.6988 -0.9485  0.3238
19427SOL     OW63127   5.645   5.012   0.768  0.2765 -0.2387 -0.4219
19427SOL    HW163128   5.720   4.955   0.785  0.2950 -0.2298 -0.4739
19427SOL    HW263129   5.619   5.044   0.854 -1.0460 -1.9675 -0.1156
19428SOL     OW63130   4.227   4.880   1.642  0.0997 -0.3572 -0.6022
19428SOL    HW163131   4.228   4.784   1.633  0.7681 -0.2179 -2.6437
19428SOL    HW263132   4.202   4.911   1.555  1.1175  1.3521 -0.3182
19429SOL     OW63133   5.109   3.048   2.159 -0.4769  0.4641 -0.5756
19429SOL    HW163134   5.072   2.961   2.172  1.3376 -0.5850 -1.9455
19429SOL    HW263135   5.173   3.057   2.230 -0.8760  0.8278 -0.2562
19430SOL     OW63136   7.606   4.164   2.401 -0.1743 -0.2632  0.2820
19430SOL    HW163137   7.609   4.069   2.409 -1.9250 -0.6505 -2.2694
19430SOL    HW263138   7.658   4.183   2.322 -2.0134  0.5281 -0.8119
19431SOL     OW63139   6.757   3.595   0.913 -0.7049 -0.0101  0.1992
19431SOL    HW163140   6.722   3.676   0.878  1.6149  0.9919  0.0020
19431SOL    HW263141   6.749   3.604   1.008  0.7310  1.0832  0.2442
19432SOL     OW63142   8.625   3.841   3.775 -0.2528 -0.0509  0.1200
19432SOL    HW163143   8.613   3.823   3.868  1.5808  0.5879  0.5210
19432SOL    HW263144   8.631   3.754   3.735 -0.3579 -0.3312  0.6968
19433SOL     OW63145   4.922   3.250   2.075 -0.6597 -0.1230  0.1657
19433SOL    HW163146   4.989   3.187   2.100 -1.2987 -0.3208  1.4237
19433SOL    HW263147   4.843   3.222   2.122 -1.6868  0.0174 -1.3873
19434SOL     OW63148   5.854   2.166   1.760 -0.1108 -0.0814  0.2008
19434SOL    HW163149   5.938   2.161   1.714 -0.0653 -1.4226  0.4046
19434SOL    HW263150   5.867   2.114   1.839 -0.9651  0.1783  0.5216
19435SOL     OW63151   6.151   4.794   4.210 -0.2708  0.2280  0.1487
19435SOL    HW163152   6.063   4.779   4.174 -0.8226 -1.0551  1.9248
19435SOL    HW263153   6.137   4.804   4.304  1.7043 -2.5079  0.8467
19436SOL     OW63154   3.819   4.756   1.532 -0.4693  0.3807 -0.0366
19436SOL    HW163155   3.814   4.738   1.438 -0.7643  3.2445 -0.6685
19436SOL    HW263156   3.747   4.816   1.549  2.0942  3.4489  1.0023
19437SOL     OW63157   6.207   5.884   9.251 -0.2557  0.5942 -0.0431
19437SOL    HW163158   6.133   5.919   9.300 -2.6381 -1.1458 -2.1096
19437SOL    HW263159   6.238   5.810   9.304 -0.7449  0.6395  0.3147
19438SOL     OW63160   7.014   2.919   1.600 -0.4462  0.1450 -0.3236
19438SOL    HW163161   7.077   2.903   1.670  1.3617  0.4916 -1.7976
19438SOL    HW263162   6.960   2.991   1.632  0.4964  0.4547  0.6202
19439SOL     OW63163   7.293   7.110   0.766  1.0724 -0.0614  0.9942
19439SOL    HW163164   7.314   7.197   0.731  1.0648 -0.3809  0.1677
19439SOL    HW263165   7.203   7.119   0.799  0.8530  0.0892  0.3697
19440SOL     OW63166   6.804   7.929   2.362  0.1268 -0.0729  0.1479
19440SOL    HW163167   6.891   7.889   2.367 -1.1011 -3.2503 -1.2130
19440SOL    HW263168   6.802   7.970   2.276  0.3765  0.2953  0.3156
19441SOL     OW63169   7.065   7.465   2.942  0.1465  0.2247  0.0638
19441SOL    HW163170   7.019   7.393   2.898  0.8001  0.4285 -0.9735
19441SOL    HW263171   7.056   7.539   2.883 -1.0929  1.2217  1.4242
19442SOL     OW63172   6.416   6.923   3.265  0.6338 -0.0271 -0.1434
19442SOL    HW163173   6.508   6.926   3.290  0.5650 -0.2150  0.1329
19442SOL    HW263174   6.406   6.994   3.201  0.5231  1.3351  1.3360
19443SOL     OW63175   6.637   5.696   1.672  0.2924 -0.2628  0.2791
19443SOL    HW163176   6.548   5.708   1.707  0.0729  0.0549 -0.3804
19443SOL    HW263177   6.660   5.780   1.634  0.4457 -0.6567 -0.5250
19444SOL     OW63178   6.122   4.414   3.440  0.1476  0.2294  0.0504
19444SOL    HW163179   6.185   4.474   3.400 -0.6127  0.7118 -0.4544
19444SOL    HW263180   6.042   4.467   3.450  0.0997 -0.0858  1.5489
19445SOL     OW63181   5.613   2.887   1.074  0.2435  0.3572  0.0815
19445SOL    HW163182   5.534   2.838   1.052 -0.2809  1.7163 -1.2640
19445SOL    HW263183   5.584   2.949   1.142  0.5876 -0.2720  0.8199
19446SOL     OW63184   6.832   4.521   1.939  0.4912  0.4145 -0.0247
19446SOL    HW163185   6.794   4.607   1.921 -2.6422 -0.5665  1.1612
19446SOL    HW263186   6.798   4.497   2.025  2.5897 -1.3751  0.3949
19447SOL     OW63187   4.184   3.776   1.539  0.2533 -0.9610 -0.3909
19447SOL    HW163188   4.221   3.704   1.591  0.6809 -0.9974 -0.7440
19447SOL    HW263189   4.250   3.793   1.471 -0.3420 -0.9908 -0.9895
19448SOL     OW63190   7.837   4.112   3.675  0.4896  0.0113 -0.2777
19448SOL    HW163191   7.865   4.140   3.588  2.2847  1.2597  0.6203
19448SOL    HW263192   7.907   4.056   3.707  0.5898  0.7549  0.9030
19449SOL     OW63193   6.575   2.766   1.026  0.1678 -0.6673 -0.0251
19449SOL    HW163194   6.496   2.811   1.054  0.2398 -0.4534 -0.1665
19449SOL    HW263195   6.549   2.674   1.020  0.3799 -0.8592  1.6176
19450SOL     OW63196   7.495   3.727   5.199 -0.4082  0.3118 -0.3390
19450SOL    HW163197   7.574   3.780   5.187 -0.8986  1.0175 -0.5443
19450SOL    HW263198   7.526   3.637   5.194  0.3210  0.5747 -0.8310
19451SOL     OW63199   4.232   5.370   4.024  0.2707  0.8049  0.6596
19451SOL    HW163200   4.221   5.276   4.011  2.1781  0.9289 -3.1011
19451SOL    HW263201   4.147   5.407   3.999  0.6504  0.2518 -1.5809
19452SOL     OW63202   3.849   4.157   2.993 -0.0873  0.1241 -0.1805
19452SOL    HW163203   3.794   4.150   3.071 -0.4348  0.5105 -0.3868
19452SOL    HW263204   3.825   4.081   2.940  1.3670 -1.1021  0.8344
19453SOL     OW63205   6.912   5.069   4.208  0.2672 -0.0510  0.5743
19453SOL    HW163206   6.979   5.032   4.266  0.4808 -0.3302  0.1522
19453SOL    HW263207   6.883   4.995   4.155 -0.9254 -0.1037  1.2645
19454SOL     OW63208   7.267   6.114   9.671  0.5497  0.3191 -0.0102
19454SOL    HW163209   7.299   6.026   9.652  3.3152  0.6491  2.4111
19454SOL    HW263210   7.197   6.102   9.734 -0.4131 -0.1662 -1.1306
19455SOL     OW63211   3.684   3.163   6.261  0.3469  0.1499  0.1081
19455SOL    HW163212   3.621   3.190   6.194 -0.1547 -0.7047  0.2280
19455SOL    HW263213   3.697   3.070   6.246  1.4755  0.2784  0.1853
19456SOL     OW63214   6.443   4.780   1.899  0.5982  0.6285  0.0359
19456SOL    HW163215   6.410   4.779   1.809  0.9231 -0.8095 -0.0868
19456SOL    HW263216   6.422   4.693   1.933  1.0366  0.9449  1.1486
19457SOL     OW63217   6.401   4.841   2.525  0.1739 -0.2727 -0.2513
19457SOL    HW163218   6.440   4.816   2.609 -0.6018 -1.2209 -0.1464
19457SOL    HW263219   6.453   4.915   2.494 -0.1702  0.7708  1.5653
19458SOL     OW63220   6.002   6.944   3.952  0.3564  0.4521 -0.2433
19458SOL    HW163221   6.047   6.911   3.875  0.1695  1.1556 -0.6596
19458SOL    HW263222   5.949   7.017   3.920 -0.8592 -0.1645  0.2803
19459SOL     OW63223   6.183   4.024   0.421  0.4219  0.2598 -0.1302
19459SOL    HW163224   6.093   4.046   0.396  0.1052  0.3777  1.0554
19459SOL    HW263225   6.223   3.991   0.340 -0.9785 -0.7380 -0.4573
19460SOL     OW63226   4.505   3.303   3.476 -0.0651  0.2900  0.1456
19460SOL    HW163227   4.594   3.269   3.469 -0.6759 -1.7204  1.4402
19460SOL    HW263228   4.487   3.306   3.570 -1.0152  1.6846 -0.0445
19461SOL     OW63229   8.223   6.227   4.441 -0.2559 -0.3280 -0.1822
19461SOL    HW163230   8.314   6.227   4.412  0.3543  2.2669  1.3532
19461SOL    HW263231   8.172   6.242   4.362  0.9474  1.3694 -0.7065
19462SOL     OW63232   8.292   2.581   2.718 -0.2330  0.0248 -0.6493
19462SOL    HW163233   8.318   2.589   2.626  2.2959 -0.9958 -0.0931
19462SOL    HW263234   8.304   2.488   2.738  1.0206  0.5305  1.1755
19463SOL     OW63235   4.212   5.834   9.829  0.0945 -0.0274  0.1537
19463SOL    HW163236   4.254   5.919   9.814 -0.0234 -0.2585 -1.6957
19463SOL    HW263237   4.144   5.852   9.894  0.2040  1.2443 -0.0614
19464SOL     OW63238   5.874   4.357   4.327  0.1235  0.1151 -0.2512
19464SOL    HW163239   5.783   4.388   4.324 -0.1918 -0.6615  0.8712
19464SOL    HW263240   5.902   4.374   4.417  0.7706 -0.5617 -0.3179
19465SOL     OW63241   6.120   2.224   3.224  0.5178 -0.2094  0.3672
19465SOL    HW163242   6.056   2.203   3.155  0.4181  0.6457  0.1863
19465SOL    HW263243   6.190   2.271   3.178 -0.4863  2.1559  1.1146
19466SOL     OW63244   6.001   3.845   4.852  0.2521  0.6048  0.1373
19466SOL    HW163245   5.945   3.884   4.785  0.2810 -2.2293 -1.7466
19466SOL    HW263246   5.942   3.792   4.906  0.7745 -0.9848 -0.7648
19467SOL     OW63247   4.482   1.363   2.284 -0.6150 -0.5250  0.3962
19467SOL    HW163248   4.544   1.299   2.318  0.7082  0.9684  0.8962
19467SOL    HW263249   4.466   1.335   2.194  1.4138 -0.5565 -0.0122
19468SOL     OW63250   5.383   4.518   0.148  0.1384  0.3533 -0.1637
19468SOL    HW163251   5.430   4.594   0.114 -1.7920  1.8375  0.3004
19468SOL    HW263252   5.377   4.533   0.243 -2.3713  0.9788 -0.3353
19469SOL     OW63253   6.858   5.191   0.904 -0.1465 -0.6615  0.0043
19469SOL    HW163254   6.821   5.186   0.992 -0.3727 -2.1432 -0.1426
19469SOL    HW263255   6.937   5.137   0.908  0.7280  0.5536 -0.3056
19470SOL     OW63256   7.514   5.842   4.982 -0.0374 -0.5557 -0.4169
19470SOL    HW163257   7.525   5.915   5.043 -2.6287 -0.9942  0.7448
19470SOL    HW263258   7.451   5.875   4.917  0.9823 -0.8371 -1.5705
19471SOL     OW63259   6.437   5.655   3.670  0.1555 -0.0483  0.4247
19471SOL    HW163260   6.467   5.744   3.690 -0.0290 -0.0917  0.8993
19471SOL    HW263261   6.454   5.605   3.750 -1.9762  0.1240  1.0540
19472SOL     OW63262   8.598   1.768   2.785  0.2220  0.5083  0.5048
19472SOL    HW163263   8.609   1.830   2.713 -0.4480  0.0107 -0.0303
19472SOL    HW263264   8.638   1.812   2.860  0.9437  1.0265 -0.1650
19473SOL     OW63265   5.057   7.724   2.839  0.0213  0.4842 -0.1551
19473SOL    HW163266   5.071   7.642   2.887 -0.1344  1.0926  0.9791
19473SOL    HW263267   5.128   7.781   2.868 -1.3365  1.6164  1.1458
19474SOL     OW63268   5.081   6.722   4.340 -0.3482 -0.0758  0.1527
19474SOL    HW163269   5.074   6.790   4.407  0.6174  0.2822 -0.0977
19474SOL    HW263270   5.140   6.759   4.274 -0.2120 -0.9589 -0.2314
19475SOL     OW63271   7.974   4.595   2.910 -0.6326  0.1811  0.6542
19475SOL    HW163272   8.000   4.615   3.000  0.5927 -1.1947  0.6400
19475SOL    HW263273   8.023   4.515   2.888 -0.8143  0.5612 -1.2759
19476SOL     OW63274   6.388   5.084   1.554 -0.4234  0.1530  0.3551
19476SOL    HW163275   6.359   5.139   1.482 -1.3157  0.3868  0.8767
19476SOL    HW263276   6.396   4.997   1.517  1.4542  0.6712 -0.5994
19477SOL     OW63277   7.395   2.330   3.836  0.3802 -0.3824  0.2086
19477SOL    HW163278   7.487   2.338   3.809  1.0403 -0.0786  2.3855
19477SOL    HW263279   7.370   2.418   3.862 -0.6619 -0.4032 -0.6622
19478SOL     OW63280   6.059   3.796   1.227  0.1287  0.3445  0.5024
19478SOL    HW163281   6.047   3.712   1.272  2.3369  0.4121  1.3660
19478SOL    HW263282   6.034   3.862   1.291 -1.7261  0.4018 -0.2186
19479SOL     OW63283   4.583   5.651   2.866  0.0928  0.4385 -0.7386
19479SOL    HW163284   4.643   5.589   2.907 -0.8773  0.1470  0.2946
19479SOL    HW263285   4.504   5.600   2.849 -1.0587  1.5602  0.9796
19480SOL     OW63286   5.161   2.908   2.715 -0.2202 -0.1047 -0.0093
19480SOL    HW163287   5.174   2.837   2.652 -1.3308 -1.0834  0.8241
19480SOL    HW263288   5.089   2.878   2.770 -1.8772  2.3702 -0.6612
19481SOL     OW63289   5.877   4.671   1.285 -0.6284  0.1764  0.4318
19481SOL    HW163290   5.818   4.718   1.226 -0.1365 -0.2063 -0.3782
19481SOL    HW263291   5.942   4.632   1.227 -0.0416 -0.0705  1.2497
19482SOL     OW63292   8.524   2.877   0.731  0.2734  0.5362 -0.0359
19482SOL    HW163293   8.462   2.809   0.704  0.5541  0.8333 -1.5534
19482SOL    HW263294   8.469   2.948   0.765 -0.0789 -0.0450  0.6217
19483SOL     OW63295   7.638   5.264   3.970 -0.2170 -0.0526  0.1055
19483SOL    HW163296   7.721   5.231   4.004 -0.2020 -0.5571 -0.4161
19483SOL    HW263297   7.662   5.342   3.919 -0.0993 -0.0509  0.1629
19484SOL     OW63298   7.429   4.380   2.403 -0.4037 -0.2987 -0.0280
19484SOL    HW163299   7.460   4.426   2.325  0.1823 -0.3472  0.1763
19484SOL    HW263300   7.479   4.299   2.405 -0.3443 -0.2546  0.4525
19485SOL     OW63301   6.535   5.174   3.110 -0.0289  0.6356  0.0370
19485SOL    HW163302   6.485   5.112   3.163 -1.3219 -0.2689 -2.0746
19485SOL    HW263303   6.474   5.246   3.093  0.0351  0.4915 -0.8887
19486SOL     OW63304   5.552   7.006   2.006 -0.1613 -0.0014  0.2202
19486SOL    HW163305   5.537   6.946   1.933 -1.4483 -1.7796  1.8442
19486SOL    HW263306   5.581   7.087   1.965 -0.6198 -1.0004 -2.2340
19487SOL     OW63307   5.142   2.176   2.928 -0.3199  0.0650 -0.2154
19487SOL    HW163308   5.107   2.089   2.948  0.4296 -1.1685 -3.5388
19487SOL    HW263309   5.192   2.200   3.006 -0.1505 -2.7178  0.6538
19488SOL     OW63310   5.279   5.539   2.788  0.2162 -0.0993  0.1198
19488SOL    HW163311   5.333   5.593   2.730 -0.5155 -0.6576 -1.1409
19488SOL    HW263312   5.241   5.473   2.730 -0.4581 -0.7661  1.2775
19489SOL     OW63313   8.778   3.869   2.408  0.6192 -0.4970  0.3443
19489SOL    HW163314   8.780   3.858   2.503 -0.8644  0.6392  0.5372
19489SOL    HW263315   8.722   3.798   2.377 -0.5841  0.3333  0.5523
19490SOL     OW63316   7.732   4.226   2.163 -0.1256 -0.3555 -0.4144
19490SOL    HW163317   7.735   4.176   2.081 -1.1292  1.2698 -1.5096
19490SOL    HW263318   7.820   4.263   2.171 -0.7073  1.6524 -2.2751
19491SOL     OW63319   7.863   5.554   2.960 -0.3621  0.1922 -0.2532
19491SOL    HW163320   7.900   5.470   2.933  1.1466  0.8702 -0.3692
19491SOL    HW263321   7.822   5.589   2.881 -2.3851 -1.0795  0.1424
19492SOL     OW63322   6.363   2.915   3.276 -0.0657  0.1704  0.3033
19492SOL    HW163323   6.350   2.826   3.243 -0.3516  0.1622  0.4295
19492SOL    HW263324   6.388   2.966   3.199 -0.1937  0.0401  0.1743
19493SOL     OW63325   6.470   4.114   3.019  0.1342 -0.4084 -0.0175
19493SOL    HW163326   6.381   4.082   3.011  0.0294 -0.3749  0.9520
19493SOL    HW263327   6.492   4.105   3.112 -0.2377  3.1447  0.5660
19494SOL     OW63328   8.035   3.604   2.129 -0.3482  0.7957 -0.2016
19494SOL    HW163329   8.119   3.605   2.083 -0.6292 -0.8633 -0.8292
19494SOL    HW263330   8.050   3.658   2.207  1.7511 -0.5324  0.4136
19495SOL     OW63331   6.593   5.456   1.395 -0.5035  0.2457 -0.2783
19495SOL    HW163332   6.520   5.501   1.437 -0.0395 -0.8601  1.8500
19495SOL    HW263333   6.671   5.496   1.433 -0.0211  0.1993 -1.1907
19496SOL     OW63334   6.827   3.393   4.258  0.0339 -0.2910 -0.7282
19496SOL    HW163335   6.890   3.445   4.308  0.5883  0.0494 -1.7390
19496SOL    HW263336   6.762   3.365   4.322  0.6686  0.2042  0.1525
19497SOL     OW63337   7.751   7.015   2.234 -0.4391 -0.0434 -0.0081
19497SOL    HW163338   7.712   7.090   2.279 -1.7201 -1.1977  0.8665
19497SOL    HW263339   7.719   7.020   2.144  1.5330  1.8544 -0.6968
19498SOL     OW63340   9.683   2.466   2.805 -0.1483 -0.3242 -0.0306
19498SOL    HW163341   9.669   2.384   2.758  1.7714 -0.4253 -0.4858
19498SOL    HW263342   9.683   2.442   2.898 -1.8463 -0.4433 -0.0227
19499SOL     OW63343   5.858   5.621   8.947 -0.0007  0.1799 -0.0308
19499SOL    HW163344   5.949   5.606   8.974  0.2013 -0.6358 -1.0966
19499SOL    HW263345   5.863   5.696   8.889  0.0584 -0.1359 -0.4350
19500SOL     OW63346   6.237   6.865   2.990 -0.7343 -0.1488 -0.4616
19500SOL    HW163347   6.192   6.836   2.911 -1.3216  0.4209 -0.3482
19500SOL    HW263348   6.176   6.928   3.030  1.3805  3.0794 -1.8991
19501SOL     OW63349   7.540   3.340   3.673  0.4245 -0.4967 -0.3950
19501SOL    HW163350   7.518   3.344   3.766  1.3411  0.5290 -0.2079
19501SOL    HW263351   7.569   3.250   3.658 -0.0286 -0.7505  0.2316
19502SOL     OW63352   5.968   7.029   5.231  0.5353 -0.7425 -0.0295
19502SOL    HW163353   5.923   7.020   5.147 -1.7602 -0.1150  1.0764
19502SOL    HW263354   5.986   6.939   5.258  0.9743 -0.9613 -0.9970
19503SOL     OW63355   6.943   5.109   5.276  0.2548 -0.5775  0.9634
19503SOL    HW163356   7.035   5.112   5.250  0.1501 -0.7039  0.5644
19503SOL    HW263357   6.898   5.160   5.209 -0.0257 -0.9377  0.8748
19504SOL     OW63358   6.398   3.072   0.535 -0.7848 -0.5717 -0.1722
19504SOL    HW163359   6.447   3.035   0.462 -1.3475 -0.7796 -0.4590
19504SOL    HW263360   6.430   3.161   0.544  0.2350 -0.9616  0.1922
19505SOL     OW63361   7.296   3.817   4.310 -0.1146 -0.0010  0.3779
19505SOL    HW163362   7.379   3.862   4.298 -1.0777  1.7290 -0.0927
19505SOL    HW263363   7.275   3.779   4.225 -0.0985  0.0758  0.3404
19506SOL     OW63364   4.329   3.439   2.611 -0.8146 -0.5112 -0.7752
19506SOL    HW163365   4.273   3.509   2.643  1.0060  0.7940 -0.2569
19506SOL    HW263366   4.344   3.384   2.688  2.1553  1.6630  0.3760
19507SOL     OW63367   6.623   3.813   0.891  0.1215 -0.4852  0.5084
19507SOL    HW163368   6.590   3.778   0.974 -1.8958 -2.1670 -0.8911
19507SOL    HW263369   6.546   3.816   0.834  1.3003  1.3127 -1.1171
19508SOL     OW63370   0.062   5.905   3.504 -0.4444 -0.2637  0.6018
19508SOL    HW163371   0.120   5.836   3.537 -0.1314 -0.8047 -0.9817
19508SOL    HW263372  -0.019   5.895   3.554  0.4094 -0.2332  2.0529
19509SOL     OW63373   4.195   5.650   3.343  0.2352  1.0426  0.2717
19509SOL    HW163374   4.179   5.745   3.346 -0.9187  0.8416  0.6782
19509SOL    HW263375   4.136   5.613   3.408  0.3027 -0.0129 -0.2492
19510SOL     OW63376   6.818   7.323   3.870  0.4715 -0.4903  0.1107
19510SOL    HW163377   6.885   7.270   3.827 -0.8703 -0.9134 -1.5559
19510SOL    HW263378   6.790   7.271   3.946  3.1062  0.4155  1.8452
19511SOL     OW63379   6.445   4.016   9.122  0.5970 -0.4688 -0.3128
19511SOL    HW163380   6.501   3.951   9.164 -0.3772 -2.5989 -2.1010
19511SOL    HW263381   6.490   4.099   9.135  2.5164 -1.6465  1.0341
19512SOL     OW63382   6.717   6.533   5.217  0.5908  0.0789  0.3255
19512SOL    HW163383   6.723   6.488   5.133  2.6339 -0.7761  0.8688
19512SOL    HW263384   6.684   6.466   5.277  0.4299  0.3065  0.4930
19513SOL     OW63385   4.549   2.375   7.297 -0.0985 -0.1865  0.4047
19513SOL    HW163386   4.521   2.286   7.280 -0.2713 -0.2625  1.0404
19513SOL    HW263387   4.547   2.419   7.212 -0.7669 -0.5743  0.2197
19514SOL     OW63388   7.757   2.124   4.910 -0.1280 -0.0670 -0.2839
19514SOL    HW163389   7.740   2.190   4.842 -0.5604  1.6586  1.4187
19514SOL    HW263390   7.799   2.172   4.981  2.7259 -2.3015 -0.2529
19515SOL     OW63391   7.339   4.181   5.976 -0.2856  0.0802  0.0087
19515SOL    HW163392   7.398   4.193   6.050 -0.2194  0.3030 -0.0780
19515SOL    HW263393   7.271   4.121   6.008 -0.9408  1.1330  0.6392
19516SOL     OW63394   7.260   4.387   8.130  0.1502  0.1346  0.2577
19516SOL    HW163395   7.237   4.323   8.197  0.5731  1.3862  1.6436
19516SOL    HW263396   7.344   4.358   8.095 -1.4076 -2.1934 -1.9463
19517SOL     OW63397   7.125   3.577   3.780  0.4764  0.0720  0.0085
19517SOL    HW163398   7.218   3.580   3.759  0.9524  2.4376  1.9347
19517SOL    HW263399   7.123   3.554   3.873 -0.6212  2.4233  0.6564
19518SOL     OW63400   3.910   3.583   4.813  0.0346  0.0745 -0.3843
19518SOL    HW163401   3.817   3.602   4.809  0.0157  0.2216  0.6636
19518SOL    HW263402   3.917   3.493   4.780 -0.7998 -0.8749  1.8786
19519SOL     OW63403   7.689   5.578   7.408 -1.1787  0.0408  0.5355
19519SOL    HW163404   7.775   5.535   7.412 -1.1679  0.0304  0.2196
19519SOL    HW263405   7.654   5.570   7.497 -1.1525 -0.5812  0.5002
19520SOL     OW63406   5.571   7.315   6.428  0.1687  0.3635 -0.5433
19520SOL    HW163407   5.611   7.354   6.351  0.7175  0.5151 -0.1811
19520SOL    HW263408   5.639   7.259   6.466  0.2634  1.1098  0.4256
19521SOL     OW63409   6.765   5.706   5.663 -0.2590  0.1247  0.4026
19521SOL    HW163410   6.710   5.655   5.724 -1.6813 -1.4786 -2.0424
19521SOL    HW263411   6.762   5.656   5.581  0.8891  2.5838 -1.2532
19522SOL     OW63412   5.327   2.800   3.619 -0.2879  0.1293  0.4274
19522SOL    HW163413   5.297   2.747   3.693 -1.1869 -1.2958 -0.8884
19522SOL    HW263414   5.414   2.766   3.598 -0.9785 -1.1002 -0.5951
19523SOL     OW63415   7.686   4.539   4.481  0.3409 -0.0611  0.1301
19523SOL    HW163416   7.743   4.514   4.409  1.0125 -0.7733  0.8833
19523SOL    HW263417   7.731   4.508   4.559 -2.4365 -3.3729  0.6555
19524SOL     OW63418   7.496   4.993   3.133  0.5097 -0.2992  0.1825
19524SOL    HW163419   7.561   4.997   3.064 -0.6911 -0.4316 -0.9865
19524SOL    HW263420   7.441   4.918   3.110 -0.5994  0.3440  0.6461
19525SOL     OW63421   8.102   5.137   3.474  0.4385  0.0834  0.4965
19525SOL    HW163422   8.120   5.053   3.433 -3.2821 -1.1159  0.9603
19525SOL    HW263423   8.145   5.132   3.559  1.3623 -0.8008 -0.0086
19526SOL     OW63424   7.286   6.664   3.746 -0.0864 -0.0252  0.5535
19526SOL    HW163425   7.238   6.658   3.663 -0.9886 -1.3976  1.1441
19526SOL    HW263426   7.376   6.643   3.723 -0.1554  0.4755 -0.2131
19527SOL     OW63427   5.594   4.330   4.666  0.0447 -0.0582 -0.0665
19527SOL    HW163428   5.565   4.268   4.599 -3.1446  2.5992 -1.4356
19527SOL    HW263429   5.552   4.300   4.747 -0.4167 -0.3765 -0.4179
19528SOL     OW63430   7.964   4.300   4.802 -0.1095  0.3201 -0.2115
19528SOL    HW163431   7.946   4.206   4.791 -0.8358  0.4183  0.0283
19528SOL    HW263432   8.044   4.303   4.854 -0.7267 -0.2003  0.8253
19529SOL     OW63433   4.558   3.101   7.161  0.1933  0.6933 -0.0967
19529SOL    HW163434   4.602   3.172   7.115  1.8518 -0.4690 -0.4086
19529SOL    HW263435   4.513   3.052   7.093  1.8145 -0.4405 -0.4133
19530SOL     OW63436   4.068   1.775   3.386 -0.0211  0.3054  0.2631
19530SOL    HW163437   4.101   1.725   3.310  0.3549  0.6862  0.1701
19530SOL    HW263438   4.050   1.709   3.452  1.6844  0.1265  0.5905
19531SOL     OW63439   7.973   3.190   3.095 -0.5042  0.5459 -0.1079
19531SOL    HW163440   7.931   3.187   3.180 -0.1501 -0.6497  0.0418
19531SOL    HW263441   8.062   3.223   3.113 -0.7828  1.3637 -0.1824
19532SOL     OW63442   6.412   4.566   2.090  0.1457  0.7513  0.4317
19532SOL    HW163443   6.504   4.549   2.110 -0.0448 -0.2450  0.5274
19532SOL    HW263444   6.369   4.571   2.175  0.2029  1.8591  0.4109
19533SOL     OW63445   7.146   3.974   4.021  0.5623  0.6385  0.2399
19533SOL    HW163446   7.215   3.930   3.970 -2.0621 -0.9373 -2.2697
19533SOL    HW263447   7.088   3.903   4.048 -1.0747  2.0535  0.6219
19534SOL     OW63448   5.415   3.916   3.963 -0.1123 -0.6405  0.6089
19534SOL    HW163449   5.436   3.875   3.880  1.2710 -0.1032  0.6752
19534SOL    HW263450   5.488   3.894   4.021 -0.5731 -0.1915  1.3868
19535SOL     OW63451   8.766   5.993   5.213  0.4150 -0.5346 -0.1627
19535SOL    HW163452   8.809   6.061   5.264  0.6913 -0.0430 -1.0320
19535SOL    HW263453   8.780   6.018   5.122 -0.4601 -1.1475 -0.4832
19536SOL     OW63454   4.902   6.688   4.037 -0.2190  0.2616  0.1940
19536SOL    HW163455   4.873   6.649   3.954  0.0133 -0.9418  0.6533
19536SOL    HW263456   4.820   6.705   4.085 -0.3198 -2.5335  1.2209
19537SOL     OW63457   5.379   6.222   3.287  0.4317 -0.0656 -0.1703
19537SOL    HW163458   5.307   6.159   3.294  0.3839  0.0456  0.3532
19537SOL    HW263459   5.444   6.178   3.233  0.4555 -0.6140  0.2966
19538SOL     OW63460   6.979   3.804   4.651 -0.4708 -1.1423  0.1411
19538SOL    HW163461   7.070   3.773   4.652 -0.5507 -1.4835 -1.1278
19538SOL    HW263462   6.981   3.887   4.698  0.8392 -0.2640 -1.3957
19539SOL     OW63463   5.553   3.525   5.792 -0.0882  0.1773  0.5228
19539SOL    HW163464   5.548   3.588   5.863  3.0646 -0.7234  1.7353
19539SOL    HW263465   5.647   3.511   5.779 -0.5831 -3.6562 -0.1762
19540SOL     OW63466   6.662   4.007   5.591 -0.4302  0.0619  0.4717
19540SOL    HW163467   6.593   4.068   5.565  0.5683  0.3439 -1.7244
19540SOL    HW263468   6.633   3.922   5.558 -0.1913  0.0075  0.3979
19541SOL     OW63469   7.534   6.185   4.489 -0.3147  0.2167 -0.2285
19541SOL    HW163470   7.447   6.153   4.466 -0.1075  0.3373 -1.2153
19541SOL    HW263471   7.521   6.228   4.574 -1.4203  1.0449 -0.7753
19542SOL     OW63472   7.897   7.581   4.244 -0.2617  1.0346  0.4366
19542SOL    HW163473   7.872   7.579   4.337  2.2057 -0.3728  1.1480
19542SOL    HW263474   7.966   7.646   4.239  0.3816  0.3221 -0.1845
19543SOL     OW63475   7.052   3.527   2.452 -0.1758 -0.0329  0.5622
19543SOL    HW163476   7.130   3.579   2.430 -0.8414 -0.1756 -2.7350
19543SOL    HW263477   6.979   3.576   2.413 -0.8586 -3.1419 -2.5922
19544SOL     OW63478   6.818   5.497   4.426  0.3275 -0.5065  0.2820
19544SOL    HW163479   6.831   5.403   4.426  0.6024 -0.4836  1.3511
19544SOL    HW263480   6.766   5.514   4.505  0.3979  0.2391  0.1767
19545SOL     OW63481   6.202   8.109   5.359 -0.3009  0.1996 -0.2621
19545SOL    HW163482   6.289   8.149   5.357  1.1621 -2.2878  2.7649
19545SOL    HW263483   6.151   8.164   5.419 -0.7325  1.4186 -1.7022
19546SOL     OW63484   4.795   5.819   1.527  0.0875 -0.3898 -0.0057
19546SOL    HW163485   4.789   5.905   1.486  2.3398 -0.3188 -0.2974
19546SOL    HW263486   4.708   5.780   1.513 -1.1922  1.9936  0.6328
19547SOL     OW63487   8.092   5.250   5.818  0.3197  0.4768  0.5455
19547SOL    HW163488   8.099   5.341   5.789 -0.1291  0.6388  0.9280
19547SOL    HW263489   8.182   5.218   5.819  0.4428  0.8023  0.0449
19548SOL     OW63490   9.626   4.524   4.622  0.0549  0.2840  0.1788
19548SOL    HW163491   9.542   4.546   4.662  0.0167 -0.6108  0.5958
19548SOL    HW263492   9.691   4.556   4.684 -0.0030 -1.6913  1.3369
19549SOL     OW63493   5.960   5.113   2.620  0.7456  0.5200  0.3746
19549SOL    HW163494   5.944   5.025   2.587  0.9372 -0.3850  2.5297
19549SOL    HW263495   6.049   5.110   2.655  0.5738  1.4113  0.9260
19550SOL     OW63496   6.811   6.621   4.299  0.1697 -0.0405 -0.1750
19550SOL    HW163497   6.735   6.600   4.245  0.7756  0.9291 -1.4427
19550SOL    HW263498   6.835   6.710   4.274  2.9964 -1.0150 -1.4259
19551SOL     OW63499   7.152   6.661   7.121 -0.1947 -0.2248  0.0691
19551SOL    HW163500   7.057   6.674   7.120 -0.9212 -4.0633 -2.2305
19551SOL    HW263501   7.184   6.718   7.051 -0.8742  0.5047  0.3280
19552SOL     OW63502   7.513   7.585   3.941 -0.2057  0.0334 -0.0073
19552SOL    HW163503   7.540   7.493   3.934  0.5554  0.2700 -0.2926
19552SOL    HW263504   7.557   7.628   3.868  0.1052  0.7821  0.6091
19553SOL     OW63505   9.583   4.458   3.756  0.2109  0.1451 -0.2550
19553SOL    HW163506   9.607   4.521   3.688  1.5108 -0.8543 -0.7766
19553SOL    HW263507   9.585   4.508   3.837  1.2497  0.7802 -0.6489
19554SOL     OW63508   6.242   5.070   2.584  0.2904  0.3133  0.3744
19554SOL    HW163509   6.205   5.096   2.500 -0.7596 -1.8237  0.1290
19554SOL    HW263510   6.303   4.999   2.563  0.7040  0.3666  1.3318
19555SOL     OW63511   8.562   4.663   5.722 -0.1933 -0.0840 -0.1595
19555SOL    HW163512   8.497   4.651   5.653 -0.6904 -0.6041  0.3897
19555SOL    HW263513   8.548   4.753   5.752  0.2801  0.2795 -0.9793
19556SOL     OW63514   7.815   4.328   5.420 -0.0699 -0.2431 -0.5257
19556SOL    HW163515   7.891   4.282   5.455 -0.4768  0.1840  0.9610
19556SOL    HW263516   7.794   4.281   5.339  0.7878 -1.3574 -0.1218
19557SOL     OW63517   4.904   6.994   3.094 -0.4311 -0.0492  0.0196
19557SOL    HW163518   4.903   6.964   3.003  1.8250 -0.8021  0.1754
19557SOL    HW263519   4.816   6.978   3.126 -1.5173  1.0210 -2.2629
19558SOL     OW63520   5.701   3.011   6.183 -0.0603 -0.2868 -0.5523
19558SOL    HW163521   5.608   2.992   6.169  0.1899 -1.6571 -0.4766
19558SOL    HW263522   5.731   2.942   6.243  1.1240 -0.1532 -0.9695
19559SOL     OW63523   5.369   4.158   2.096 -0.1407 -0.4238 -0.0498
19559SOL    HW163524   5.289   4.175   2.145 -0.1611 -1.3767  0.2773
19559SOL    HW263525   5.344   4.094   2.030 -0.8381  2.9318 -3.3924
19560SOL     OW63526   6.119   6.965   4.628 -0.6728  0.3872  0.3180
19560SOL    HW163527   6.124   7.055   4.597 -1.4661  0.1710 -0.5015
19560SOL    HW263528   6.051   6.925   4.573  0.0566 -0.8558  0.2743
19561SOL     OW63529   6.643   4.036   4.876 -0.0400 -0.1195  0.1209
19561SOL    HW163530   6.592   3.959   4.904 -0.2183  0.0706  0.3346
19561SOL    HW263531   6.734   4.013   4.893  0.1112 -1.1056 -1.8097
19562SOL     OW63532   5.188   3.167   5.652 -0.0078  0.2685 -0.3795
19562SOL    HW163533   5.213   3.127   5.569  0.7188 -1.4290  0.6230
19562SOL    HW263534   5.094   3.152   5.659  0.1386 -0.6478 -0.3461
19563SOL     OW63535   6.767   3.790   5.233 -0.1629 -0.0186  0.5383
19563SOL    HW163536   6.828   3.857   5.200 -0.0776 -1.0379 -1.5589
19563SOL    HW263537   6.823   3.719   5.264 -0.2682 -0.0956  0.5550
19564SOL     OW63538   7.580   0.882   4.614 -0.0849 -0.1374 -0.1632
19564SOL    HW163539   7.530   0.951   4.569  1.8431  0.3955 -1.6461
19564SOL    HW263540   7.568   0.805   4.559 -2.4027 -1.1561  1.6016
19565SOL     OW63541   6.089   3.598   2.893  0.7901  0.3605 -0.4270
19565SOL    HW163542   6.127   3.536   2.830  0.7832  0.3062 -0.3775
19565SOL    HW263543   6.149   3.596   2.967 -0.2860 -1.1481  0.4723
19566SOL     OW63544   9.136   4.907   6.601 -0.3986 -0.1539  0.6116
19566SOL    HW163545   9.202   4.942   6.661 -0.6371  3.7641 -1.0852
19566SOL    HW263546   9.185   4.876   6.525 -0.3410  2.0648 -0.3286
19567SOL     OW63547   8.309   5.677   7.576 -0.0140  0.6789  0.2148
19567SOL    HW163548   8.235   5.724   7.614 -1.0137 -0.7197  0.0797
19567SOL    HW263549   8.362   5.745   7.535 -0.5473  1.8617  1.3993
19568SOL     OW63550   7.055   4.741   2.569 -0.3873  0.4617 -0.2165
19568SOL    HW163551   6.964   4.726   2.541 -0.3380 -0.5897  0.1184
19568SOL    HW263552   7.107   4.686   2.510  0.2249  2.3570 -1.5477
19569SOL     OW63553   7.131   5.198   4.106  0.0590  0.2530  0.1116
19569SOL    HW163554   7.037   5.186   4.119  0.1719 -0.7691  0.0675
19569SOL    HW263555   7.165   5.214   4.194 -0.1966  0.9459  0.0865
19570SOL     OW63556   7.010   4.783   4.598  0.6741  0.3566  0.0431
19570SOL    HW163557   7.006   4.841   4.522  0.4542 -0.0191 -0.2345
19570SOL    HW263558   7.000   4.841   4.673  1.2032  0.7737 -0.1990
19571SOL     OW63559   6.988   1.311   5.036  0.2992  0.2841 -0.3257
19571SOL    HW163560   6.994   1.228   4.989 -1.4221 -0.7620  1.1658
19571SOL    HW263561   7.069   1.316   5.087  0.2549 -0.6800 -0.1377
19572SOL     OW63562   6.015   3.744   3.265 -0.6849  0.2724  0.0677
19572SOL    HW163563   5.991   3.674   3.205 -0.5340 -0.1854  0.5372
19572SOL    HW263564   6.103   3.721   3.295 -0.3668  1.0043 -0.2709
19573SOL     OW63565   3.987   2.961   3.221 -0.4460  0.1250 -0.0045
19573SOL    HW163566   4.076   2.976   3.189 -1.0341 -2.2646 -3.2810
19573SOL    HW263567   3.946   3.048   3.221  0.7329  0.7656 -2.5780
19574SOL     OW63568   7.947   3.535   3.198  0.0502 -0.3535 -0.0276
19574SOL    HW163569   7.936   3.582   3.281 -0.3324 -0.8707  0.2163
19574SOL    HW263570   7.987   3.452   3.223 -0.3385 -0.6321 -0.3275
19575SOL     OW63571   9.556   6.498   5.324  0.3692 -0.4251  0.4472
19575SOL    HW163572   9.591   6.531   5.406  1.2360  2.2486 -0.8709
19575SOL    HW263573   9.634   6.479   5.271 -0.1682 -1.4896  0.0176
19576SOL     OW63574   6.452   6.131   6.588  0.4081  0.0081  0.0989
19576SOL    HW163575   6.357   6.144   6.597  0.6441  0.8639  1.5978
19576SOL    HW263576   6.465   6.121   6.494 -1.0516  0.9076 -0.2422
19577SOL     OW63577   7.069   2.535   1.753 -0.2756 -0.2584  0.1373
19577SOL    HW163578   7.039   2.582   1.675  2.3728 -1.2951 -1.6433
19577SOL    HW263579   7.038   2.446   1.740  0.8292 -0.6169 -0.1920
19578SOL     OW63580   8.189   7.789   3.574 -0.0329  0.1573  0.8040
19578SOL    HW163581   8.132   7.853   3.533 -1.2345 -0.1923  1.8594
19578SOL    HW263582   8.277   7.811   3.543 -0.8485 -0.0684 -1.8541
19579SOL     OW63583   6.041   3.608   2.503  0.0257  0.4376 -0.1414
19579SOL    HW163584   5.985   3.624   2.427 -0.0542  0.8691  0.0024
19579SOL    HW263585   6.085   3.526   2.484  0.0395  0.5663 -0.6744
19580SOL     OW63586   2.336   3.771   4.478  0.4505 -0.4313 -0.7956
19580SOL    HW163587   2.346   3.684   4.437  1.1823 -0.3203 -0.8727
19580SOL    HW263588   2.380   3.830   4.417  0.0576 -0.0209 -0.6801
19581SOL     OW63589   6.576   5.170   2.843 -0.0049  0.1807  0.0911
19581SOL    HW163590   6.586   5.095   2.901  1.0154  1.4051  1.5537
19581SOL    HW263591   6.602   5.245   2.895  0.0055  1.4603 -1.6608
19582SOL     OW63592   5.708   5.962   3.427 -0.0873  0.6666 -0.0814
19582SOL    HW163593   5.773   5.918   3.482  1.0339  0.3723 -1.5632
19582SOL    HW263594   5.726   5.928   3.339  0.0428  3.1839 -1.0962
19583SOL     OW63595   6.353   3.768   3.098  0.2520 -0.4823  0.0725
19583SOL    HW163596   6.350   3.770   3.193 -0.0391  0.6020  0.0476
19583SOL    HW263597   6.287   3.832   3.070 -1.7159 -2.7764 -0.9043
19584SOL     OW63598   7.362   6.374   5.195 -0.1911  0.5378 -0.3134
19584SOL    HW163599   7.355   6.456   5.244  0.6956  1.5494 -1.7976
19584SOL    HW263600   7.358   6.306   5.262 -1.1939  1.7609  0.9437
19585SOL     OW63601   7.724   6.142   4.695 -0.2693 -0.1458 -0.1507
19585SOL    HW163602   7.701   6.226   4.737 -0.0864 -0.7438  1.1920
19585SOL    HW263603   7.744   6.166   4.604 -1.1804  1.1278 -0.0494
19586SOL     OW63604   8.349   4.406   3.826  0.2180 -0.1679 -0.7498
19586SOL    HW163605   8.401   4.425   3.904  1.1642 -0.7338 -1.2299
19586SOL    HW263606   8.305   4.323   3.845 -2.0936  1.2189  0.4240
19587SOL     OW63607   6.065   5.904   1.720 -0.5666  0.3496  0.0632
19587SOL    HW163608   6.059   5.814   1.687 -0.5108 -0.2779  1.6647
19587SOL    HW263609   5.987   5.915   1.774 -0.4967  1.2197 -0.0059
19588SOL     OW63610   7.992   3.584   5.443 -0.1742  0.2077 -0.2412
19588SOL    HW163611   8.063   3.620   5.495 -2.6278  0.5055  3.2640
19588SOL    HW263612   7.963   3.657   5.388  2.2412 -0.0071 -1.9674
19589SOL     OW63613   7.441   4.570   3.424 -0.1725 -0.2816 -0.2133
19589SOL    HW163614   7.476   4.567   3.513 -0.0000  0.1933 -0.2599
19589SOL    HW263615   7.498   4.512   3.374  0.7206  0.6870 -0.3419
19590SOL     OW63616   7.660   3.010   4.468 -0.8482  0.5667  0.9585
19590SOL    HW163617   7.754   3.014   4.485 -1.1563  1.9660  2.6584
19590SOL    HW263618   7.635   3.100   4.449 -1.9679  0.3608  1.3679
19591SOL     OW63619   7.312   7.936   5.831  0.2170  0.0950  0.2219
19591SOL    HW163620   7.354   7.944   5.916 -0.1732  0.1306  0.4136
19591SOL    HW263621   7.360   7.868   5.786  0.6909  0.3655  0.3136
19592SOL     OW63622   7.600   4.379   3.896  0.1822 -0.0129 -0.6920
19592SOL    HW163623   7.684   4.422   3.881 -0.3307  1.5989  0.6850
19592SOL    HW263624   7.621   4.298   3.942  1.0846 -0.5280 -1.9842
19593SOL     OW63625   6.883   4.714   3.817 -0.6237 -0.0199  0.1795
19593SOL    HW163626   6.875   4.769   3.739  0.4900 -0.8912 -0.5779
19593SOL    HW263627   6.937   4.766   3.877 -0.3459  0.0886 -0.1623
19594SOL     OW63628   7.407   5.729   3.027  0.2384  0.6116 -0.0376
19594SOL    HW163629   7.485   5.735   3.082  0.6694  2.3114 -0.7656
19594SOL    HW263630   7.437   5.754   2.940 -0.9915  0.7229 -0.4489
19595SOL     OW63631   7.246   4.817   3.682 -0.8387  0.1938  0.1011
19595SOL    HW163632   7.215   4.731   3.657 -0.5579  0.8051 -2.6020
19595SOL    HW263633   7.199   4.878   3.625  0.3239  1.6776  0.6428
19596SOL     OW63634   6.284   4.173   3.478 -0.2001  0.4794 -0.4730
19596SOL    HW163635   6.226   4.247   3.496 -3.7081 -2.1896  0.4177
19596SOL    HW263636   6.321   4.151   3.564 -0.6947  0.0637 -0.3627
19597SOL     OW63637   8.610   4.396   1.974  0.4766 -0.1714 -0.2629
19597SOL    HW163638   8.554   4.470   1.953  1.0309  0.5629  0.7371
19597SOL    HW263639   8.559   4.319   1.950  0.1140  0.5259 -1.8585
19598SOL     OW63640   8.575   4.882   1.893 -0.1883  1.0397 -0.0043
19598SOL    HW163641   8.587   4.954   1.832 -0.3275  1.2403  0.2071
19598SOL    HW263642   8.536   4.812   1.839  1.0596  0.6898 -0.4907
19599SOL     OW63643   7.384   2.073   3.790 -0.1069 -0.3473  0.1835
19599SOL    HW163644   7.450   2.052   3.856  1.5120  2.8525 -0.2398
19599SOL    HW263645   7.362   2.165   3.805 -1.1434 -0.0705 -2.4821
19600SOL     OW63646   7.154   8.609   4.327 -0.6358 -0.3385 -0.4541
19600SOL    HW163647   7.198   8.677   4.276 -0.1288 -0.8537 -0.7171
19600SOL    HW263648   7.154   8.643   4.417 -0.7947  0.2077 -0.6608
19601SOL     OW63649   9.279   4.920   6.128  0.2556 -0.1058  0.1679
19601SOL    HW163650   9.185   4.902   6.126  0.4018 -0.9168  0.4924
19601SOL    HW263651   9.295   4.970   6.048 -0.4876  0.2606  0.2309
19602SOL     OW63652   5.561   4.154   2.844 -0.3811 -0.0636  0.0918
19602SOL    HW163653   5.504   4.214   2.893 -0.1608 -0.7142  1.1646
19602SOL    HW263654   5.552   4.070   2.888  1.0027 -0.3093 -0.0415
19603SOL     OW63655   4.180   4.076   1.594 -0.5391  0.2710  0.0587
19603SOL    HW163656   4.170   3.981   1.585  0.8778  0.1769 -0.8671
19603SOL    HW263657   4.195   4.090   1.687 -0.9948 -0.3866  0.2399
19604SOL     OW63658   7.872   7.151   3.854 -0.2426  0.1725  0.0938
19604SOL    HW163659   7.910   7.181   3.771  1.9344  0.7564  1.2228
19604SOL    HW263660   7.888   7.224   3.914 -1.4554 -0.3853  1.1213
19605SOL     OW63661   7.038   3.843   5.500  0.2418  0.3869 -0.5343
19605SOL    HW163662   7.100   3.839   5.428  0.5645 -0.6782 -0.2215
19605SOL    HW263663   6.969   3.781   5.477 -1.0783  2.0279 -1.1822
19606SOL     OW63664   6.849   4.058   6.626  0.0185  0.6380 -0.5403
19606SOL    HW163665   6.891   4.064   6.540  0.6739  0.8263 -0.2131
19606SOL    HW263666   6.904   4.111   6.683  0.0164 -0.0984  0.1616
19607SOL     OW63667   5.915   1.335   4.581  0.1407  0.3754 -0.4937
19607SOL    HW163668   5.870   1.416   4.557  0.0883  0.3548 -0.4640
19607SOL    HW263669   5.889   1.319   4.672  0.7935  0.7637 -0.2321
19608SOL     OW63670   9.042   2.886   5.782  0.7662 -0.5653  0.2235
19608SOL    HW163671   9.047   2.845   5.695  0.0112 -2.6343  1.0819
19608SOL    HW263672   8.948   2.888   5.802  0.9857 -0.9556  1.3526
19609SOL     OW63673   5.666   3.310   4.735 -0.0364 -0.2895  0.5832
19609SOL    HW163674   5.571   3.319   4.730  0.0310  0.7205  0.8125
19609SOL    HW263675   5.682   3.269   4.820 -0.1978  1.1613  1.3441
19610SOL     OW63676   6.715   7.463   8.901 -0.2383 -0.0038 -0.1583
19610SOL    HW163677   6.780   7.522   8.863  0.7437 -0.4401  0.7732
19610SOL    HW263678   6.766   7.405   8.958 -1.7059  1.4012  2.8255
19611SOL     OW63679   7.855   7.093   4.916  0.0378  0.1175 -0.1331
19611SOL    HW163680   7.799   7.126   4.846 -0.3927  0.7646  0.5046
19611SOL    HW263681   7.830   7.144   4.993 -0.0799 -1.1402  0.6952
19612SOL     OW63682   6.936   6.298   3.993 -0.4964  0.0110  0.1558
19612SOL    HW163683   6.981   6.370   3.949 -0.9519  0.5731  0.6070
19612SOL    HW263684   6.940   6.320   4.086  0.5046 -1.1870  0.4386
19613SOL     OW63685   7.696   3.876   2.895 -0.5937  0.3554 -0.8289
19613SOL    HW163686   7.693   3.958   2.944  0.3260 -0.1291  0.0774
19613SOL    HW263687   7.605   3.856   2.877 -0.8994  1.0106 -0.0855
19614SOL     OW63688   5.070   3.764   4.919 -0.4861 -0.1606  0.0930
19614SOL    HW163689   5.058   3.857   4.899  1.7425  0.0976 -0.3786
19614SOL    HW263690   5.164   3.750   4.909 -0.5069 -2.0691  1.9299
19615SOL     OW63691   5.067   2.155   5.740 -0.0912  0.0226  0.0361
19615SOL    HW163692   5.107   2.094   5.803  0.3901 -0.9246 -1.1513
19615SOL    HW263693   4.998   2.104   5.698  0.9847 -0.0586 -1.7010
19616SOL     OW63694   7.727   6.403   5.968  0.3433  0.2371  0.0563
19616SOL    HW163695   7.746   6.309   5.965 -0.0344  0.0444  1.9299
19616SOL    HW263696   7.764   6.431   6.052 -2.4062  1.0629  1.0967
19617SOL     OW63697   6.651   4.400   4.216 -0.2405 -0.2281 -0.2048
19617SOL    HW163698   6.722   4.461   4.194 -0.4800  0.2675  0.3691
19617SOL    HW263699   6.629   4.358   4.133 -0.7591  1.1979 -0.8298
19618SOL     OW63700   5.332   2.617   3.277 -0.6000  0.5589 -0.9809
19618SOL    HW163701   5.331   2.571   3.192  1.2888 -2.1940  0.3295
19618SOL    HW263702   5.257   2.579   3.324  1.0408 -1.5149  0.1531
19619SOL     OW63703   7.555   2.200   4.132 -0.6070  0.0635  0.3430
19619SOL    HW163704   7.645   2.234   4.132 -0.3877 -0.3947 -1.5733
19619SOL    HW263705   7.503   2.272   4.168  0.2250  1.3054 -0.8152
19620SOL     OW63706   8.453   6.831   3.610  0.0292 -0.3684 -0.5358
19620SOL    HW163707   8.409   6.912   3.639 -0.3893 -0.6580 -0.3561
19620SOL    HW263708   8.447   6.773   3.686 -2.4142 -1.6869 -1.6214
19621SOL     OW63709   5.921   7.684   6.267 -0.3206 -0.3683  0.1461
19621SOL    HW163710   5.950   7.720   6.351 -1.2940  0.5294  0.1150
19621SOL    HW263711   5.926   7.757   6.206  0.7708 -1.1109 -0.7073
19622SOL     OW63712   8.116   5.935   3.801  0.2881  0.3259  0.5325
19622SOL    HW163713   8.112   5.840   3.799 -0.1050  0.3096  1.5017
19622SOL    HW263714   8.203   5.955   3.835  1.6155  0.3982 -2.5531
19623SOL     OW63715   9.038   3.147   4.995  0.3322  0.1717  0.3693
19623SOL    HW163716   8.948   3.115   5.005  0.4394 -0.9423 -1.6248
19623SOL    HW263717   9.091   3.080   5.037  0.2889  0.2430  0.5378
19624SOL     OW63718   5.671   2.610   2.821 -0.0141  0.4188 -0.2621
19624SOL    HW163719   5.670   2.681   2.756 -0.5429  1.6859  1.0805
19624SOL    HW263720   5.582   2.610   2.857 -0.0038 -0.9128 -0.1955
19625SOL     OW63721   8.673   5.389   4.000  0.0044  0.0441  0.0591
19625SOL    HW163722   8.717   5.320   3.951  2.6244  0.9894  0.9316
19625SOL    HW263723   8.677   5.361   4.091 -0.2808  0.6334  0.2611
19626SOL     OW63724   7.524   7.291   4.911 -0.1107  0.4800  0.4983
19626SOL    HW163725   7.557   7.237   4.839  0.7251  0.7490  0.6633
19626SOL    HW263726   7.549   7.381   4.887 -0.9639  0.7313  0.5113
19627SOL     OW63727   5.530   2.930   4.976  0.2826 -0.2107  0.3445
19627SOL    HW163728   5.580   2.853   5.003 -0.0771 -0.6192 -0.1183
19627SOL    HW263729   5.549   2.940   4.883 -0.6443 -0.5016  0.1109
19628SOL     OW63730   5.314   3.546   4.289  0.3426  0.5068 -0.1195
19628SOL    HW163731   5.405   3.545   4.259  0.2642  0.9722 -0.3853
19628SOL    HW263732   5.264   3.513   4.215  0.0892  2.2053 -0.7279
19629SOL     OW63733   6.538   4.309   5.112  0.7809 -0.2992  0.2414
19629SOL    HW163734   6.532   4.217   5.134  0.8891 -0.4017 -0.1461
19629SOL    HW263735   6.562   4.352   5.194  0.4461 -0.5762  0.4904
19630SOL     OW63736   5.535   3.687   5.154  0.3672  0.1482  0.6442
19630SOL    HW163737   5.451   3.707   5.197  1.0914  1.1306  1.6767
19630SOL    HW263738   5.544   3.592   5.162  0.6338  0.3171  3.0700
19631SOL     OW63739   7.753   3.891   3.351  0.3299 -0.0825  1.0617
19631SOL    HW163740   7.793   3.940   3.279 -0.8156 -0.2211  0.2929
19631SOL    HW263741   7.827   3.856   3.400  1.2476 -2.0544 -1.4664
19632SOL     OW63742   8.238   4.434   5.289  0.2153 -0.2878 -0.2487
19632SOL    HW163743   8.306   4.381   5.331  0.3937 -0.5284 -0.8333
19632SOL    HW263744   8.170   4.442   5.356  0.4455 -0.7531  0.0518
19633SOL     OW63745   7.915   6.634   4.050  0.0758 -0.5620  0.0372
19633SOL    HW163746   7.886   6.553   4.007 -0.4029  0.2325 -1.1812
19633SOL    HW263747   7.847   6.698   4.030 -1.6307 -0.7373  4.2730
19634SOL     OW63748   5.596   2.091   1.697  0.2015  0.0745 -0.4176
19634SOL    HW163749   5.688   2.118   1.702 -0.0916  1.0525 -0.0763
19634SOL    HW263750   5.569   2.082   1.789  0.2788 -1.4192 -0.5153
19635SOL     OW63751   5.969   3.448   6.054  0.3182 -0.1602 -0.0554
19635SOL    HW163752   5.913   3.455   5.977  1.4267 -2.9997 -1.2267
19635SOL    HW263753   5.912   3.411   6.121 -0.2117  0.7537  0.0160
19636SOL     OW63754   5.762   5.189   2.930 -0.2957 -0.0598 -0.3549
19636SOL    HW163755   5.795   5.139   3.004 -1.8001 -2.5195 -1.2076
19636SOL    HW263756   5.705   5.256   2.969 -0.1987 -0.5984  0.7324
19637SOL     OW63757   6.987   5.853   7.242 -0.5287 -0.0661  0.2090
19637SOL    HW163758   7.023   5.891   7.161  0.0506  0.0273  0.5068
19637SOL    HW263759   7.063   5.840   7.298 -0.7869 -1.2126  0.3056
19638SOL     OW63760   4.338   5.209   2.409  0.3853  0.0222  0.0615
19638SOL    HW163761   4.299   5.146   2.470  2.0777 -1.6016 -0.4554
19638SOL    HW263762   4.323   5.294   2.450 -1.2383 -0.7570  1.1972
19639SOL     OW63763   7.571   5.899   6.624 -0.5282 -0.4583  0.4137
19639SOL    HW163764   7.637   5.960   6.594  0.2920 -1.6700 -0.3512
19639SOL    HW263765   7.487   5.939   6.600 -0.0412  0.5714  0.4051
19640SOL     OW63766   6.601   5.395   6.848  0.0708 -0.2465 -0.1229
19640SOL    HW163767   6.682   5.434   6.814  0.9336  1.4551  3.4112
19640SOL    HW263768   6.555   5.365   6.770  2.7852  1.2986 -2.5364
19641SOL     OW63769   6.937   5.188   4.705 -0.0203 -0.2223  0.3264
19641SOL    HW163770   7.021   5.157   4.671 -0.7445 -0.8658 -0.9364
19641SOL    HW263771   6.889   5.216   4.628 -1.0554 -0.0502  1.0174
19642SOL     OW63772   0.211   4.893   6.387 -0.2355 -0.1362  0.2432
19642SOL    HW163773   0.224   4.925   6.477  1.7396  1.1481 -0.4461
19642SOL    HW263774   0.149   4.954   6.348  1.6734  1.5456 -0.3180
19643SOL     OW63775   4.328   3.979   2.696  0.0220 -0.0326 -0.2453
19643SOL    HW163776   4.381   3.913   2.741  2.4601  1.4292 -0.7987
19643SOL    HW263777   4.307   4.042   2.764  0.7851  0.4354 -0.4346
19644SOL     OW63778   8.806   6.156   6.883 -0.0006  0.1347 -0.5319
19644SOL    HW163779   8.838   6.236   6.925  1.3018  0.2130 -1.5841
19644SOL    HW263780   8.830   6.086   6.943 -0.4756  0.4685  0.0490
19645SOL     OW63781   7.202   6.817   5.890  0.1625  0.3052 -0.4139
19645SOL    HW163782   7.224   6.889   5.830  2.1149 -0.4511 -0.6925
19645SOL    HW263783   7.113   6.792   5.867  0.1771  1.3068 -1.6676
19646SOL     OW63784   7.855   4.637   5.353 -0.4076 -0.6685  0.1874
19646SOL    HW163785   7.920   4.657   5.285 -0.2922 -0.7406  0.2771
19646SOL    HW263786   7.830   4.546   5.337 -1.8093 -0.1270 -0.9601
19647SOL     OW63787   8.337   5.302   4.518 -0.3364  0.3539  0.2912
19647SOL    HW163788   8.379   5.389   4.520 -0.0442  0.2639 -0.9063
19647SOL    HW263789   8.259   5.312   4.573  0.8258  0.7461  1.9551
19648SOL     OW63790   7.099   4.005   6.333  0.1897  0.6830  1.0518
19648SOL    HW163791   7.166   3.999   6.400 -2.2399 -0.0302  3.6417
19648SOL    HW263792   7.083   4.099   6.323  3.3374  1.1174 -1.7488
19649SOL     OW63793   7.753   6.733   3.160  0.4154 -0.6195 -0.1072
19649SOL    HW163794   7.773   6.648   3.199 -2.8350 -0.8572  1.4058
19649SOL    HW263795   7.688   6.714   3.092  1.4116  0.4549 -1.4101
19650SOL     OW63796   8.150   5.831   4.457 -0.0142  0.1066  0.7499
19650SOL    HW163797   8.219   5.824   4.523 -0.0960  0.3059  0.8541
19650SOL    HW263798   8.184   5.892   4.392 -1.3660  2.7523  2.3821
19651SOL     OW63799   8.943   3.775   4.169  0.2848 -0.2280  0.2733
19651SOL    HW163800   8.952   3.683   4.194 -0.9510 -0.6419 -0.7248
19651SOL    HW263801   9.024   3.816   4.200 -0.8279 -0.7565  4.4906
19652SOL     OW63802   7.610   5.127   1.175  0.3698 -0.0045  0.5088
19652SOL    HW163803   7.658   5.161   1.099  3.0853 -2.3537  0.9756
19652SOL    HW263804   7.554   5.058   1.138  0.0495  0.3105  0.3997
19653SOL     OW63805   7.942   9.285   5.247 -0.3133 -0.3834 -0.2965
19653SOL    HW163806   7.993   9.343   5.191 -1.2495  0.8045  0.0405
19653SOL    HW263807   7.953   9.198   5.209  0.0764  0.2123 -1.5817
19654SOL     OW63808   6.242   5.782   2.641 -0.0935 -0.4575 -1.0078
19654SOL    HW163809   6.215   5.812   2.554 -0.2375  0.3377 -0.7035
19654SOL    HW263810   6.309   5.716   2.624  0.4129  0.2215 -1.7175
19655SOL     OW63811   8.071   5.578   5.633  0.1210 -0.5882  0.2567
19655SOL    HW163812   8.042   5.606   5.546 -0.0234 -0.0275  0.4778
19655SOL    HW263813   8.138   5.642   5.657  0.4471 -0.9755  0.3944
19656SOL     OW63814   6.439   6.586   0.977 -0.0740  0.3481 -0.3682
19656SOL    HW163815   6.454   6.501   0.936 -0.7820  0.5845 -1.1309
19656SOL    HW263816   6.361   6.620   0.934 -0.6058  0.7879  0.8839
19657SOL     OW63817   7.752   5.899   4.813 -0.3209 -0.0418  0.1376
19657SOL    HW163818   7.721   5.985   4.784 -1.3925 -0.2823  0.5083
19657SOL    HW263819   7.674   5.856   4.848  0.0503 -1.4339 -0.6662
19658SOL     OW63820   6.536   7.650   3.524  0.3188 -0.2135 -0.2743
19658SOL    HW163821   6.494   7.706   3.589  0.2743 -1.2269  0.6118
19658SOL    HW263822   6.612   7.699   3.494  1.8519 -0.7413  2.4767
19659SOL     OW63823   6.143   4.846   3.829 -0.4661  0.4778  0.2034
19659SOL    HW163824   6.212   4.906   3.799  1.8720 -2.2384 -0.2297
19659SOL    HW263825   6.104   4.891   3.904  2.2588  1.8712  0.9291
19660SOL     OW63826   6.697   5.831   6.016  0.4711  0.1968  0.1679
19660SOL    HW163827   6.646   5.873   5.947 -0.2556 -0.7916  0.0789
19660SOL    HW263828   6.782   5.874   6.014 -0.4410  2.0965  0.4997
19661SOL     OW63829   9.456   3.689   3.140  0.1544  0.0130 -0.0026
19661SOL    HW163830   9.514   3.757   3.175 -1.5757  2.1403 -0.9784
19661SOL    HW263831   9.515   3.625   3.100  1.8993  2.5492 -1.8393
19662SOL     OW63832   6.329   3.918   1.632 -0.3503  0.7792  0.5626
19662SOL    HW163833   6.376   3.867   1.566  0.1380  1.7547  0.1320
19662SOL    HW263834   6.371   4.004   1.630 -1.2717  1.2575  1.1340
19663SOL     OW63835   5.433   4.984   3.992 -0.2868  1.3650  0.2375
19663SOL    HW163836   5.497   4.929   4.037 -0.0891  1.3941 -0.0016
19663SOL    HW263837   5.444   5.071   4.030 -0.0455  1.4136  0.0606
19664SOL     OW63838   5.337   4.679   7.804  0.1536 -0.4375 -0.0568
19664SOL    HW163839   5.321   4.766   7.766 -1.7127 -0.6387  0.1824
19664SOL    HW263840   5.336   4.694   7.899 -1.9026 -0.9240  0.0514
19665SOL     OW63841   6.492   4.287   2.755  0.4986 -0.2654  0.0841
19665SOL    HW163842   6.441   4.295   2.836  0.5107 -0.5438  0.1207
19665SOL    HW263843   6.472   4.199   2.723 -0.2256  0.1808 -0.7143
19666SOL     OW63844   6.651   4.737   3.311 -0.1737 -0.4414  0.2453
19666SOL    HW163845   6.705   4.797   3.362 -1.6468  0.8833  0.3318
19666SOL    HW263846   6.710   4.666   3.287  2.0432  1.6743 -1.0277
19667SOL     OW63847   7.815   4.811   4.689 -0.0199  0.2417  0.4730
19667SOL    HW163848   7.815   4.861   4.607  1.1954  0.4976  0.6000
19667SOL    HW263849   7.809   4.720   4.661  0.3296  0.3301  0.0934
19668SOL     OW63850   7.327   5.426   5.302 -0.6426 -0.0177  0.3177
19668SOL    HW163851   7.338   5.520   5.318 -0.4633  0.4159 -1.9696
19668SOL    HW263852   7.385   5.384   5.365 -0.5866  1.4105  1.2667
19669SOL     OW63853   7.542   6.542   2.245  0.5239  0.0276 -0.5214
19669SOL    HW163854   7.502   6.461   2.275  0.9284 -0.5079 -1.3791
19669SOL    HW263855   7.552   6.595   2.324  1.1473 -1.1410  0.2150
19670SOL     OW63856   7.647   6.522   5.743 -0.2487  0.5599 -0.3783
19670SOL    HW163857   7.640   6.463   5.818 -0.8842  0.7154 -0.3071
19670SOL    HW263858   7.685   6.602   5.778  3.0950 -0.6276 -0.9444
19671SOL     OW63859   8.008   5.966   5.998  0.0067  0.1956  0.0965
19671SOL    HW163860   8.053   6.026   6.058 -0.2982  0.9956 -0.4483
19671SOL    HW263861   8.026   6.001   5.911 -2.3721  1.1051 -0.1153
19672SOL     OW63862   7.951   2.509   3.826  0.5184  0.0937  0.1000
19672SOL    HW163863   7.995   2.426   3.848  0.4370 -0.1594 -0.6741
19672SOL    HW263864   8.014   2.576   3.853  2.2728 -0.2836 -2.6669
19673SOL     OW63865   0.328   5.734   5.513  0.1401  0.5547  0.1685
19673SOL    HW163866   0.246   5.701   5.476  0.2449  1.5370 -0.9847
19673SOL    HW263867   0.396   5.699   5.455  0.4414  0.7103  0.4270
19674SOL     OW63868   4.353   3.315   2.848  0.0269  0.3622 -0.3502
19674SOL    HW163869   4.438   3.355   2.863 -0.3969  1.9968 -1.8932
19674SOL    HW263870   4.323   3.287   2.935  1.9231  0.1453  0.2626
19675SOL     OW63871   5.010   6.478   1.213  0.2181 -0.0355 -0.2482
19675SOL    HW163872   5.086   6.419   1.214 -0.8619 -1.4832  0.7311
19675SOL    HW263873   4.977   6.476   1.303  0.7832  3.0335  0.1410
19676SOL     OW63874   6.540   6.712   5.146 -0.4014 -0.1788  0.0366
19676SOL    HW163875   6.625   6.673   5.166 -0.3219  0.5111  1.1017
19676SOL    HW263876   6.538   6.719   5.051  0.3690 -1.0024 -0.0519
19677SOL     OW63877   7.211   6.984   4.767 -0.9108 -0.1139 -0.3163
19677SOL    HW163878   7.228   6.891   4.781  1.3482  0.2877 -0.1273
19677SOL    HW263879   7.240   7.027   4.847 -3.1085  0.6892  0.1169
19678SOL     OW63880   7.203   4.520   2.428 -0.2392 -0.6094 -0.7238
19678SOL    HW163881   7.251   4.441   2.402  0.1676 -0.2179 -1.1848
19678SOL    HW263882   7.270   4.588   2.434 -0.1228 -0.8775  2.4289
19679SOL     OW63883   6.500   2.079   5.989  0.2672 -0.1001 -0.1147
19679SOL    HW163884   6.436   2.030   6.041 -0.3480 -0.3868 -1.1121
19679SOL    HW263885   6.460   2.084   5.902  0.7550  1.3739 -0.2640
19680SOL     OW63886   0.145   3.802   4.913 -0.3772  0.6855  0.6260
19680SOL    HW163887   0.192   3.884   4.924  1.3240 -0.2095  0.4394
19680SOL    HW263888   0.153   3.758   4.998  0.3242 -0.0521  0.1959
19681SOL     OW63889   8.844   6.778   3.722 -0.1089 -0.0116  0.8162
19681SOL    HW163890   8.765   6.735   3.755  0.4994 -2.0238 -0.2062
19681SOL    HW263891   8.910   6.709   3.719  1.6947  1.5869  1.5285
19682SOL     OW63892   7.593   2.904   4.193  0.8512 -0.4351  0.1544
19682SOL    HW163893   7.593   2.966   4.266 -0.8435 -0.5166  0.2639
19682SOL    HW263894   7.675   2.855   4.204  1.0172  0.0924  1.5453
19683SOL     OW63895   6.904   4.970   3.349 -0.2991  0.3832 -0.1189
19683SOL    HW163896   6.896   4.955   3.443 -4.2801  2.3143  0.0329
19683SOL    HW263897   6.999   4.973   3.333  0.5613 -2.1135  3.3428
19684SOL     OW63898   1.886   5.897   5.804 -0.0834  0.6343  0.3951
19684SOL    HW163899   1.923   5.968   5.858  0.8700 -0.3245  1.0469
19684SOL    HW263900   1.844   5.942   5.731 -0.1300  1.9047  1.1797
19685SOL     OW63901   6.975   3.756   5.009 -0.0319  0.1008  0.6239
19685SOL    HW163902   7.055   3.798   4.979  0.7464 -0.2186  2.1611
19685SOL    HW263903   6.927   3.825   5.054 -0.9082  0.4219 -0.7178
19686SOL     OW63904   6.810   6.313   5.039 -0.2326 -0.5035  0.3159
19686SOL    HW163905   6.882   6.331   4.979  1.6338 -1.1539  2.2538
19686SOL    HW263906   6.741   6.278   4.983  1.1502 -0.4444 -1.5372
19687SOL     OW63907   7.013   7.342   7.604  0.2962 -0.4821 -0.2115
19687SOL    HW163908   7.051   7.419   7.647  2.1114 -0.3563 -1.8993
19687SOL    HW263909   6.950   7.378   7.543 -1.9715 -0.6391  1.8988
19688SOL     OW63910   7.749   3.913   2.411 -0.2459 -0.1821 -0.3249
19688SOL    HW163911   7.779   3.920   2.321 -2.1776 -2.3151 -1.2446
19688SOL    HW263912   7.727   3.820   2.422 -0.9572  0.1833  2.0364
19689SOL     OW63913   6.708   6.292   0.604 -0.2857  0.0220  0.0585
19689SOL    HW163914   6.628   6.325   0.645 -0.0770  1.4098 -0.6096
19689SOL    HW263915   6.680   6.212   0.559 -1.6349  1.2157 -1.3330
19690SOL     OW63916   8.855   7.259   4.504  0.5422  0.7780 -0.0431
19690SOL    HW163917   8.764   7.240   4.480  0.7488 -1.0826  0.5204
19690SOL    HW263918   8.848   7.338   4.559 -0.7005  0.8018 -0.2009
19691SOL     OW63919   8.189   4.999   6.012 -0.3876  0.3771 -0.1628
19691SOL    HW163920   8.101   5.021   5.981 -0.6804  0.8235  0.9477
19691SOL    HW263921   8.184   5.008   6.107  0.0086 -2.6338  0.2272
19692SOL     OW63922   6.239   3.642   3.952 -0.0162 -0.0074 -0.3774
19692SOL    HW163923   6.334   3.632   3.954  0.1911  1.6906  0.0293
19692SOL    HW263924   6.206   3.553   3.945  1.6473 -0.5270 -3.9242
19693SOL     OW63925   8.247   4.056   8.468  0.0405 -0.4096 -0.1584
19693SOL    HW163926   8.182   4.007   8.417 -0.3610 -0.3378  0.2729
19693SOL    HW263927   8.288   4.115   8.405  0.2423 -1.0041 -0.6000
19694SOL     OW63928   6.111   4.209   4.272 -0.1384 -0.4614 -0.5067
19694SOL    HW163929   6.153   4.282   4.227 -1.6341 -0.0270 -1.3041
19694SOL    HW263930   6.031   4.247   4.309 -1.0598 -1.7074 -1.1218
19695SOL     OW63931   5.854   4.420   4.954  0.7944 -0.6414  0.4723
19695SOL    HW163932   5.916   4.357   4.917  2.2252  0.5782  0.6568
19695SOL    HW263933   5.771   4.400   4.912  1.3419 -2.2530  0.1010
19696SOL     OW63934   8.288   4.494   4.843  0.1515 -0.0175  0.2518
19696SOL    HW163935   8.233   4.429   4.886 -0.1592 -0.8581 -1.3587
19696SOL    HW263936   8.299   4.563   4.909 -0.3196 -1.2191  1.6486
19697SOL     OW63937   5.771   4.104   3.785  0.0896  0.5360  0.2526
19697SOL    HW163938   5.685   4.138   3.809  1.2209  3.0830  1.0972
19697SOL    HW263939   5.811   4.175   3.734  0.8816 -1.5041 -2.2066
19698SOL     OW63940   4.071   7.293   0.942 -0.1038 -0.2041 -0.0955
19698SOL    HW163941   4.161   7.319   0.922  0.4963 -1.0688  1.3119
19698SOL    HW263942   4.062   7.207   0.901 -0.1042 -0.3495  0.2060
19699SOL     OW63943   7.615   2.534   6.776 -0.0431 -0.7403  0.0620
19699SOL    HW163944   7.628   2.593   6.701  0.8516 -0.1258  0.6737
19699SOL    HW263945   7.658   2.453   6.750 -1.6119 -1.2865 -0.9403
19700SOL     OW63946   6.988   1.361   5.598 -0.1412 -0.0672  0.2210
19700SOL    HW163947   6.929   1.320   5.535  0.2211  0.5756 -0.5606
19700SOL    HW263948   7.042   1.289   5.631  0.0331 -0.3268 -0.6192
19701SOL     OW63949   6.940   6.576   2.725 -0.3013  0.2087  0.4613
19701SOL    HW163950   6.868   6.612   2.673  1.2949 -0.2984 -2.2935
19701SOL    HW263951   7.018   6.620   2.691  0.8672 -0.2015  2.4526
19702SOL     OW63952   8.122   6.993   5.889  0.6618  0.3531 -0.1064
19702SOL    HW163953   8.060   6.998   5.961 -0.9109  0.1321 -1.3743
19702SOL    HW263954   8.202   7.032   5.923 -0.2866  1.0281  1.4720
19703SOL     OW63955   7.815   3.622   4.091  0.7259  0.0152  0.2965
19703SOL    HW163956   7.830   3.555   4.024  1.5344 -0.5398  1.0132
19703SOL    HW263957   7.736   3.667   4.061  1.5714  0.3968 -1.5065
19704SOL     OW63958   8.551   1.956   2.579 -0.6966 -0.1041  0.5506
19704SOL    HW163959   8.643   1.980   2.564 -1.3160  0.9348 -2.3014
19704SOL    HW263960   8.516   2.026   2.634 -0.0796  0.2047  0.5569
19705SOL     OW63961   7.838   3.729   4.970 -0.1138 -0.4828 -0.2151
19705SOL    HW163962   7.789   3.783   5.032 -0.1927 -0.2301 -0.4962
19705SOL    HW263963   7.807   3.757   4.884  0.2387 -0.6001 -0.3808
19706SOL     OW63964   7.460   5.669   3.891 -0.1659 -0.1342  0.2508
19706SOL    HW163965   7.450   5.751   3.940  0.3651  1.1721 -1.7091
19706SOL    HW263966   7.545   5.677   3.849 -0.7491 -1.0057 -1.1722
19707SOL     OW63967   5.085   6.973   3.797  0.2847  0.0373 -0.0083
19707SOL    HW163968   5.126   7.012   3.719  1.3939 -1.3472 -0.1583
19707SOL    HW263969   4.998   7.011   3.800 -0.5737 -1.3961 -3.1557
19708SOL     OW63970   6.970   4.340   5.434 -0.1889  0.2193 -0.2950
19708SOL    HW163971   6.902   4.303   5.377 -0.9244  0.9450  0.0992
19708SOL    HW263972   6.930   4.419   5.472  1.9708  2.7376 -2.7523
19709SOL     OW63973   6.531   4.543   1.292  0.0909  0.1225  0.2485
19709SOL    HW163974   6.444   4.579   1.274  0.2312  0.8886  0.9979
19709SOL    HW263975   6.576   4.545   1.207  0.1618  1.9842  0.2844
19710SOL     OW63976   6.926   4.223   6.077 -0.1533  0.1708 -0.5548
19710SOL    HW163977   6.975   4.158   6.027 -2.6523 -1.0800 -1.5792
19710SOL    HW263978   6.882   4.276   6.010 -2.3095 -0.5126  0.2315
19711SOL     OW63979   7.917   6.387   5.764 -0.5115  0.1800 -0.6351
19711SOL    HW163980   7.843   6.412   5.710 -0.7028  1.6096  0.2501
19711SOL    HW263981   7.994   6.403   5.710 -0.6643  2.1669 -0.3390
19712SOL     OW63982   7.835   4.185   6.466 -0.4356 -0.7360  0.0073
19712SOL    HW163983   7.804   4.247   6.400 -0.2789 -1.2725 -0.5918
19712SOL    HW263984   7.893   4.236   6.523 -1.7173  0.0740  0.6195
19713SOL     OW63985   9.501   3.307   4.819 -0.2195  0.0543  0.0368
19713SOL    HW163986   9.449   3.305   4.739  1.3769  0.4012 -1.0652
19713SOL    HW263987   9.451   3.254   4.882 -0.5594 -1.9323 -1.7892
19714SOL     OW63988   5.444   3.144   8.887  0.0778 -0.4140 -0.1574
19714SOL    HW163989   5.516   3.171   8.945 -0.1330  0.1068 -0.1320
19714SOL    HW263990   5.481   3.148   8.799  0.2164 -0.6040 -0.1094
19715SOL     OW63991   7.756   5.198   4.343 -0.0236 -0.2163  0.3407
19715SOL    HW163992   7.824   5.171   4.404 -0.5066 -0.0918  0.9419
19715SOL    HW263993   7.677   5.152   4.372 -0.0988 -0.7515 -0.6442
19716SOL     OW63994   6.064   4.460   7.933 -0.0072  0.5446 -0.4103
19716SOL    HW163995   5.995   4.524   7.914 -0.9523 -0.0466  0.8378
19716SOL    HW263996   6.146   4.509   7.924 -0.7150  2.1223  1.0241
19717SOL     OW63997   6.622   5.368   7.417  0.1227  0.1281 -0.2803
19717SOL    HW163998   6.670   5.447   7.391 -1.2790  0.9368 -0.4916
19717SOL    HW263999   6.533   5.383   7.386 -0.1808 -1.5450 -0.3131
19718SOL     OW64000   7.259   7.385   6.360  0.3475 -0.7764  0.0822
19718SOL    HW164001   7.244   7.392   6.454  0.7271 -0.1946  0.1050
19718SOL    HW264002   7.177   7.414   6.320  0.5116 -0.0974  0.2284
19719SOL     OW64003   6.927   5.240   6.247  0.4158 -0.4364  1.0375
19719SOL    HW164004   7.022   5.247   6.261  0.0180  0.8739  3.6985
19719SOL    HW264005   6.905   5.153   6.280  0.6396 -0.5888  0.7869
19720SOL     OW64006   7.398   4.368   0.922  0.3555  0.2212  0.0677
19720SOL    HW164007   7.314   4.326   0.939 -0.5263  1.5855 -0.7175
19720SOL    HW264008   7.384   4.418   0.842  1.8878  0.5799 -0.0096
19721SOL     OW64009   8.643   2.236   9.656  0.5966 -0.1333 -0.3317
19721SOL    HW164010   8.599   2.250   9.740 -2.0988 -1.4564 -1.4229
19721SOL    HW264011   8.667   2.324   9.627  1.9589  0.3289  1.9276
19722SOL     OW64012   7.076   4.880   4.330  0.0864 -0.7358  0.2039
19722SOL    HW164013   7.163   4.880   4.370 -0.0890  0.6180  0.6604
19722SOL    HW264014   7.061   4.789   4.304  2.1049 -0.8165 -0.9183
19723SOL     OW64015   5.643   6.322   7.682 -0.4981  0.5542 -0.5966
19723SOL    HW164016   5.712   6.362   7.735  0.1439 -1.3421  0.0619
19723SOL    HW264017   5.597   6.264   7.743  0.3468 -1.7887 -2.0607
19724SOL     OW64018   7.203   6.528   7.603 -0.1142 -0.1757 -0.3568
19724SOL    HW164019   7.225   6.435   7.592  0.0909 -0.0690 -0.8551
19724SOL    HW264020   7.286   6.570   7.627  0.0145  0.0504 -1.1813
19725SOL     OW64021   7.832   5.137   6.842  0.2129 -0.1763  0.0736
19725SOL    HW164022   7.850   5.223   6.882  2.5199 -0.1011 -0.9457
19725SOL    HW264023   7.816   5.156   6.750  0.0214 -0.7938 -0.0234
19726SOL     OW64024   6.617   5.339   6.510  0.3010  0.3414 -0.3375
19726SOL    HW164025   6.543   5.348   6.450  1.7822 -0.5747 -2.4090
19726SOL    HW264026   6.687   5.389   6.469  0.6896  1.7959  1.9479
19727SOL     OW64027   6.950   2.239   7.472  0.3913 -1.0554 -0.4324
19727SOL    HW164028   6.980   2.253   7.382 -0.1069  0.0133 -0.4535
19727SOL    HW264029   6.889   2.165   7.465  0.0489 -0.7341 -1.0619
19728SOL     OW64030   5.788   4.890   6.866  0.2263 -0.3770 -0.5128
19728SOL    HW164031   5.750   4.809   6.901  1.1879  0.7039  3.5245
19728SOL    HW264032   5.882   4.871   6.860  0.3045  0.0681 -0.6876
19729SOL     OW64033   6.492   3.808   4.888 -0.3419 -0.3039 -0.3092
19729SOL    HW164034   6.419   3.821   4.949 -2.1626  1.1849 -2.6046
19729SOL    HW264035   6.476   3.720   4.852  0.1708 -0.7857  0.6161
19730SOL     OW64036   6.460   5.753   7.416  0.1951  0.4197  0.1174
19730SOL    HW164037   6.537   5.720   7.370  1.3182  0.8976  1.5650
19730SOL    HW264038   6.469   5.718   7.505 -1.1256  0.7022  0.3718
19731SOL     OW64039   7.994   3.472   7.585  0.1957  0.0205  0.0857
19731SOL    HW164040   8.023   3.535   7.651  0.8733  0.0814 -0.2659
19731SOL    HW264041   8.032   3.503   7.503 -2.8607  1.5117 -0.9129
19732SOL     OW64042   7.204   2.837   6.609 -1.1135 -0.0618 -0.6772
19732SOL    HW164043   7.180   2.756   6.654  0.5976 -0.0766  0.2827
19732SOL    HW264044   7.250   2.809   6.530 -0.9072 -0.0273 -0.5695
19733SOL     OW64045   6.001   2.361   9.302  0.0898 -0.3219 -0.6686
19733SOL    HW164046   5.907   2.343   9.299 -0.3924  1.9891 -2.4019
19733SOL    HW264047   6.025   2.374   9.210  1.2324  2.8440 -0.0205
19734SOL     OW64048   8.126   6.185   7.158  0.2508  0.4234  0.3726
19734SOL    HW164049   8.182   6.254   7.124 -0.9999  1.0983 -0.4006
19734SOL    HW264050   8.127   6.198   7.253  1.4844  0.3262  0.3867
19735SOL     OW64051   7.347   5.062   4.013  0.0600  0.5638  0.4087
19735SOL    HW164052   7.346   4.981   4.065  0.7408  0.0456 -0.3594
19735SOL    HW264053   7.280   5.117   4.053  0.4494  0.1162  1.7413
19736SOL     OW64054   8.413   2.742   4.684 -0.4347  0.1495 -0.2403
19736SOL    HW164055   8.408   2.692   4.766  2.1263  0.5707  0.2727
19736SOL    HW264056   8.428   2.676   4.616 -0.4002 -0.0411 -0.0479
19737SOL     OW64057   5.811   5.636   9.769 -0.0319  0.3742 -0.6925
19737SOL    HW164058   5.721   5.620   9.797  0.6526 -1.7979  0.4760
19737SOL    HW264059   5.814   5.607   9.678  0.2271 -3.0331  0.2655
19738SOL     OW64060   7.364   2.777   3.742 -0.3365 -0.1786  0.1413
19738SOL    HW164061   7.380   2.753   3.833  1.4269 -0.3682 -0.1953
19738SOL    HW264062   7.281   2.733   3.721 -1.4309  0.8742  1.9869
19739SOL     OW64063   6.047   4.814   6.897 -0.1150  0.3382  0.0862
19739SOL    HW164064   6.122   4.803   6.838 -0.4844 -1.7331 -0.0798
19739SOL    HW264065   6.078   4.781   6.981 -1.0048 -1.2362 -0.1567
19740SOL     OW64066   8.581   2.799   8.798 -0.1230  0.0134  0.9750
19740SOL    HW164067   8.641   2.767   8.865 -0.1728 -1.5880  0.2935
19740SOL    HW264068   8.499   2.753   8.815 -0.3972  0.2563  0.3573
19741SOL     OW64069   8.056   4.928   6.624  0.1462  0.0092  0.2495
19741SOL    HW164070   8.057   4.902   6.716 -0.0432 -1.8323 -0.2397
19741SOL    HW264071   8.099   4.857   6.578  0.2318  0.8966 -1.1123
19742SOL     OW64072   7.471   3.076   4.787 -0.4478  0.1659 -0.0994
19742SOL    HW164073   7.449   3.021   4.711  0.3308 -0.1292 -0.1139
19742SOL    HW264074   7.533   3.024   4.837 -0.3262  0.7072  0.3160
19743SOL     OW64075   6.351   2.036   4.423 -0.0370  0.3843 -0.2133
19743SOL    HW164076   6.430   1.990   4.394 -0.2780 -0.1903  0.0319
19743SOL    HW264077   6.371   2.065   4.512 -0.0886  0.2645 -0.1623
19744SOL     OW64078   6.228   6.143   4.236  0.1498  0.3271  0.0929
19744SOL    HW164079   6.180   6.222   4.262  0.3941  0.7420 -0.6979
19744SOL    HW264080   6.285   6.171   4.164  1.2577 -0.2597  0.7139
19745SOL     OW64081   5.653   7.867   4.906  0.4317  0.3571  0.0568
19745SOL    HW164082   5.590   7.937   4.921  0.9152  0.6997  0.5583
19745SOL    HW264083   5.694   7.852   4.992 -1.3595 -2.2591  0.5772
19746SOL     OW64084   0.280   6.222   9.429 -0.7498 -0.1497  0.1569
19746SOL    HW164085   0.216   6.231   9.500 -0.1782  0.8867  0.5645
19746SOL    HW264086   0.227   6.216   9.349 -1.4335 -2.0424  0.6942
19747SOL     OW64087   8.376   5.987   5.815 -0.6279 -0.2696 -0.2502
19747SOL    HW164088   8.393   6.026   5.729  1.9971 -0.9103 -0.1170
19747SOL    HW264089   8.345   6.059   5.869 -3.4331 -0.0594 -1.9268
19748SOL     OW64090   7.343   4.421   7.393  0.3261 -0.2478 -0.2385
19748SOL    HW164091   7.282   4.453   7.327  0.0560 -0.4860 -0.1060
19748SOL    HW264092   7.325   4.474   7.470 -0.7079 -1.2591  0.2484
19749SOL     OW64093   6.569   2.230   5.519  0.0463  0.0078 -0.2453
19749SOL    HW164094   6.577   2.324   5.503 -0.9239  0.0502 -0.5165
19749SOL    HW264095   6.500   2.222   5.585 -0.8246 -0.5896 -1.2022
19750SOL     OW64096   6.905   5.506   7.097  0.4768 -0.4926 -0.3348
19750SOL    HW164097   6.969   5.544   7.158  2.5294 -1.2856 -1.8696
19750SOL    HW264098   6.864   5.435   7.146 -0.1607  0.8072  1.0880
19751SOL     OW64099   6.494   4.145   6.903  0.8763  0.1450 -0.1388
19751SOL    HW164100   6.419   4.204   6.908  1.5184  1.0135 -0.5468
19751SOL    HW264101   6.471   4.072   6.961 -0.6068  0.0145 -0.8525
19752SOL     OW64102   6.697   4.232   8.432 -0.2131 -0.2088 -0.0067
19752SOL    HW164103   6.622   4.179   8.408 -1.1298 -0.3346  2.7640
19752SOL    HW264104   6.758   4.170   8.472  2.4531 -0.5116 -3.9780
19753SOL     OW64105   8.231   2.054   3.551 -0.0034 -0.0373 -0.0976
19753SOL    HW164106   8.180   2.075   3.629  0.5317 -2.5493  1.0318
19753SOL    HW264107   8.258   2.139   3.516 -2.1983  1.2467  1.0998
19754SOL     OW64108   4.848   3.060   6.233 -0.1883 -0.0020  0.1686
19754SOL    HW164109   4.857   3.028   6.143 -0.5773  3.9191 -1.5053
19754SOL    HW264110   4.936   3.055   6.269  0.6389  0.9819 -1.5530
19755SOL     OW64111   6.584   4.961   3.899 -0.2744  0.2233  0.8096
19755SOL    HW164112   6.506   4.926   3.941  0.7442 -1.1531  1.6439
19755SOL    HW264113   6.613   5.031   3.957 -0.7092  0.5287  0.6612
19756SOL     OW64114   8.990   3.247   6.118 -0.3144 -0.2373  0.2566
19756SOL    HW164115   9.051   3.181   6.086  0.0296  0.3194 -0.2651
19756SOL    HW264116   8.917   3.197   6.155 -1.4046 -0.9662 -2.5911
19757SOL     OW64117   6.339   5.261   7.697 -0.0428  0.3474  0.0384
19757SOL    HW164118   6.377   5.173   7.697  1.3372  0.8891  1.7911
19757SOL    HW264119   6.354   5.294   7.786 -2.4550  1.5714  0.0759
19758SOL     OW64120   7.972   3.892   9.393 -0.0540  0.0029 -0.2014
19758SOL    HW164121   8.008   3.846   9.317  1.1424  0.4575  0.0729
19758SOL    HW264122   7.910   3.830   9.431  2.2966 -1.9026  0.8178
19759SOL     OW64123   5.723   3.885   7.794 -0.3693 -0.4834 -0.0750
19759SOL    HW164124   5.789   3.842   7.741  0.3750 -1.1502  1.3430
19759SOL    HW264125   5.719   3.974   7.760 -0.5507 -1.0997 -1.7846
19760SOL     OW64126   6.466   4.558   5.859  0.2094  0.0106 -0.3257
19760SOL    HW164127   6.537   4.619   5.840 -0.0537  0.1840 -0.7448
19760SOL    HW264128   6.405   4.567   5.786 -0.3145 -0.0377  0.0942
19761SOL     OW64129   7.888   6.298   7.588 -0.1947  0.0445  0.8107
19761SOL    HW164130   7.919   6.234   7.524  0.3790 -0.8753  1.9558
19761SOL    HW264131   7.967   6.342   7.618 -0.5214  0.8558  0.4993
19762SOL     OW64132   5.070   3.827   7.424 -0.8355 -0.0105 -0.5161
19762SOL    HW164133   5.129   3.797   7.355 -1.6137  2.8604 -2.6349
19762SOL    HW264134   5.030   3.747   7.459  1.1913 -1.7105 -1.8743
19763SOL     OW64135   6.839   3.866   8.281 -0.3515  0.4881  0.3054
19763SOL    HW164136   6.858   3.773   8.269 -0.7249  0.3742  0.5980
19763SOL    HW264137   6.856   3.882   8.373 -3.0581  0.0482  0.9562
19764SOL     OW64138   7.677   4.722   3.141  0.5760  0.0205  0.0218
19764SOL    HW164139   7.747   4.756   3.085  1.4582  1.8626  2.0936
19764SOL    HW264140   7.699   4.752   3.229 -2.1822 -0.3875  0.9742
19765SOL     OW64141   8.332   5.460   8.732 -0.4787 -0.2815  0.2032
19765SOL    HW164142   8.398   5.527   8.712  1.4605 -1.2951  2.6939
19765SOL    HW264143   8.294   5.487   8.815 -1.9047 -0.7238 -0.2716
19766SOL     OW64144   8.545   1.165   3.986  0.1923 -0.0503 -0.0629
19766SOL    HW164145   8.600   1.155   3.909  2.3657  0.9888  1.2423
19766SOL    HW264146   8.479   1.096   3.979  0.1077  0.2334 -2.9506
19767SOL     OW64147   7.524   5.608   6.038  0.7638  0.0557  0.3713
19767SOL    HW164148   7.589   5.542   6.064 -0.1276 -0.4289  1.4844
19767SOL    HW264149   7.561   5.691   6.069  2.8263  0.4670 -2.7429
19768SOL     OW64150   7.396   3.409   4.686 -0.2113  0.1647 -0.3203
19768SOL    HW164151   7.407   3.316   4.704  0.0973  0.0119 -1.2491
19768SOL    HW264152   7.324   3.436   4.744 -0.2846 -0.6354 -0.0224
19769SOL     OW64153   5.985   5.595   8.434 -0.1983 -0.7829  0.0688
19769SOL    HW164154   6.037   5.633   8.505 -0.8870 -1.8585  1.1904
19769SOL    HW264155   6.046   5.587   8.361 -0.1167  2.8591 -0.4335
19770SOL     OW64156   7.565   5.430   8.231  0.0521 -0.5781  0.7395
19770SOL    HW164157   7.471   5.412   8.235  0.2917 -1.7276  2.0492
19770SOL    HW264158   7.605   5.344   8.222  0.9180  0.0385 -3.4592
19771SOL     OW64159   7.307   4.060   7.808 -0.0669  0.2775  0.6246
19771SOL    HW164160   7.258   4.008   7.872 -1.1649  0.4273 -0.0625
19771SOL    HW264161   7.257   4.142   7.802 -0.7279 -0.2196 -1.3440
19772SOL     OW64162   5.692   0.792   4.886 -0.3577  0.0364  0.3633
19772SOL    HW164163   5.724   0.706   4.913  1.9344  0.3439 -1.0973
19772SOL    HW264164   5.618   0.773   4.829 -0.0073 -0.9920  0.2217
19773SOL     OW64165   0.895   5.532   8.524  0.0835  0.6708  0.6391
19773SOL    HW164166   0.807   5.533   8.560 -0.1064  0.9669  0.1834
19773SOL    HW264167   0.890   5.470   8.450  0.6421 -0.4733  1.5251
19774SOL     OW64168   7.640   7.648   5.998  0.8918  1.0709 -0.1947
19774SOL    HW164169   7.609   7.561   6.022  0.0821  1.7435  1.3091
19774SOL    HW264170   7.719   7.632   5.946 -1.7224 -0.7230 -4.0690
19775SOL     OW64171   7.587   1.464   7.299  0.3940 -0.1165 -0.2147
19775SOL    HW164172   7.579   1.414   7.218 -0.6764 -2.3259  1.1557
19775SOL    HW264173   7.645   1.410   7.354  0.5262  0.9791  0.7508
19776SOL     OW64174   6.683   4.529   8.130 -0.2631 -0.7171 -0.6977
19776SOL    HW164175   6.752   4.480   8.086  0.7446 -0.3866  0.4724
19776SOL    HW264176   6.603   4.480   8.110  0.3817 -1.4767 -1.5254
19777SOL     OW64177   7.495   2.007   4.790 -0.5545  0.1852 -0.2429
19777SOL    HW164178   7.485   2.016   4.885  1.5120  0.5457 -0.0170
19777SOL    HW264179   7.569   2.064   4.768  1.0731 -2.2501 -1.5584
19778SOL     OW64180   6.938   3.343   6.542  0.6291  0.0158  0.3502
19778SOL    HW164181   7.007   3.370   6.481  0.4040 -1.4196 -0.5933
19778SOL    HW264182   6.862   3.396   6.517 -0.0480 -1.8697 -2.0239
19779SOL     OW64183   8.242   4.703   6.786 -0.1257 -0.0863 -0.4266
19779SOL    HW164184   8.281   4.618   6.807  0.9885  0.3025 -0.8425
19779SOL    HW264185   8.208   4.693   6.697  0.1794 -0.0331 -0.5483
19780SOL     OW64186   5.280   0.791   4.128  0.4202  0.0742 -0.5699
19780SOL    HW164187   5.292   0.699   4.102 -0.8407  0.4186 -2.5520
19780SOL    HW264188   5.308   0.841   4.051 -1.3274  1.2519 -0.4850
19781SOL     OW64189   7.616   2.325   5.974 -0.9497  0.1800  0.3915
19781SOL    HW164190   7.537   2.271   5.967 -0.2242 -0.8226 -0.3969
19781SOL    HW264191   7.602   2.395   5.910 -0.0406 -1.5961 -1.9228
19782SOL     OW64192   4.474   4.917   7.705 -0.3276 -0.0297 -0.5812
19782SOL    HW164193   4.456   4.861   7.781 -0.9734  1.7591  0.6569
19782SOL    HW264194   4.552   4.966   7.730  0.3251 -0.4452 -1.7170
19783SOL     OW64195   5.703   5.623   7.569 -0.2612  0.2831 -0.9585
19783SOL    HW164196   5.668   5.656   7.651 -0.1073 -1.7377 -0.0036
19783SOL    HW264197   5.795   5.603   7.589 -0.7881 -2.4056 -0.8458
19784SOL     OW64198   7.783   3.342   6.832 -0.1177  0.7632  0.7621
19784SOL    HW164199   7.726   3.360   6.757 -0.7477 -1.5269  0.6071
19784SOL    HW264200   7.760   3.409   6.897 -1.8187  0.8861  0.0691
19785SOL     OW64201   8.772   5.533   4.701 -0.2632  0.1738  0.2730
19785SOL    HW164202   8.736   5.451   4.667 -1.3419  1.1887 -1.0826
19785SOL    HW264203   8.699   5.575   4.746 -0.2699  1.3290 -0.7809
19786SOL     OW64204   5.976   3.815   5.192 -0.5879  0.0825  0.6769
19786SOL    HW164205   6.057   3.780   5.155  0.5751  1.1153  2.1520
19786SOL    HW264206   5.909   3.751   5.167  0.5281 -0.4673 -1.1354
19787SOL     OW64207   5.461   4.304   8.586 -0.5209 -0.2310 -0.6804
19787SOL    HW164208   5.548   4.270   8.565 -0.4437  0.3285 -1.3305
19787SOL    HW264209   5.478   4.377   8.645 -0.6380 -0.8881  0.1741
19788SOL     OW64210   7.976   5.627   6.245 -0.5063 -0.0368 -0.1587
19788SOL    HW164211   8.014   5.656   6.162  2.0829 -0.1749  0.8689
19788SOL    HW264212   7.884   5.611   6.226 -0.2056  0.9153 -2.7354
19789SOL     OW64213   6.435   3.047   6.330  0.0919 -0.1282 -0.2900
19789SOL    HW164214   6.525   3.078   6.343 -0.2401  0.2104  1.5679
19789SOL    HW264215   6.386   3.088   6.402 -1.7792  0.5631 -1.8841
19790SOL     OW64216   5.752   3.474   3.316  0.0848  0.0081 -0.3007
19790SOL    HW164217   5.718   3.391   3.284  2.2457 -1.3238  0.5878
19790SOL    HW264218   5.835   3.486   3.269  0.3271  1.1008  0.3600
19791SOL     OW64219   5.619   1.837   6.734  0.5127 -0.1357 -0.0340
19791SOL    HW164220   5.680   1.909   6.748  0.4316 -0.0027 -0.3485
19791SOL    HW264221   5.543   1.859   6.787 -0.1531  0.8055 -1.3222
19792SOL     OW64222   9.667   5.878   6.682  0.2837 -0.0571 -0.2201
19792SOL    HW164223   9.584   5.836   6.661  0.2222 -0.9120  1.5474
19792SOL    HW264224   9.642   5.957   6.729  0.4652 -0.5538  0.7240
19793SOL     OW64225   6.401   2.808   8.641 -0.2981 -0.2194  0.5618
19793SOL    HW164226   6.427   2.853   8.721  1.3030 -1.8952  1.0925
19793SOL    HW264227   6.306   2.814   8.638 -0.5390 -1.3621  3.4201
19794SOL     OW64228   6.543   0.758   3.964  0.4795 -0.3505 -0.0556
19794SOL    HW164229   6.518   0.851   3.957  0.2750 -0.2759  1.2325
19794SOL    HW264230   6.606   0.744   3.894 -0.1524  0.5329 -0.8312
19795SOL     OW64231   6.400   2.962   6.818  0.0335 -0.5902 -0.0587
19795SOL    HW164232   6.345   3.028   6.861 -2.3924 -1.2834 -1.8735
19795SOL    HW264233   6.464   3.014   6.768  0.2015  0.2779  1.0077
19796SOL     OW64234   6.221   2.603   5.221 -0.2394  0.6006 -0.3209
19796SOL    HW164235   6.253   2.676   5.275 -1.1876  0.8380 -0.0624
19796SOL    HW264236   6.191   2.539   5.285 -2.8016  1.5084 -0.4948
19797SOL     OW64237   7.567   6.073   8.097 -0.0163  0.1663  0.0494
19797SOL    HW164238   7.573   6.088   8.191 -2.0757  1.1160  0.0735
19797SOL    HW264239   7.640   6.124   8.060 -1.2479  2.7345  0.9023
19798SOL     OW64240   5.054   4.931   9.075 -0.0970  0.1340  0.2699
19798SOL    HW164241   5.049   4.997   9.144 -2.8679 -1.3875  1.6959
19798SOL    HW264242   5.131   4.956   9.024 -0.3373  3.7939  1.3632
19799SOL     OW64243   5.165   5.383   8.163  0.3159 -0.5718  0.1565
19799SOL    HW164244   5.221   5.408   8.089 -1.0023 -0.5832 -0.8966
19799SOL    HW264245   5.097   5.328   8.123  0.4228 -1.8391  1.6441
19800SOL     OW64246   7.104   5.971   8.731  0.0732  0.6109 -0.1483
19800SOL    HW164247   7.134   5.967   8.640 -1.4558  0.7089 -0.6830
19800SOL    HW264248   7.010   5.956   8.726  0.1414 -0.6967  1.5475
19801SOL     OW64249   7.821   2.923   5.842 -0.1003  0.4480 -0.2934
19801SOL    HW164250   7.751   2.984   5.818  1.4184  2.5994  0.3702
19801SOL    HW264251   7.779   2.837   5.845 -1.7691  0.9622 -4.0195
19802SOL     OW64252   6.530   2.763   4.677  0.2308  0.0563  0.2394
19802SOL    HW164253   6.508   2.847   4.638  1.4537  0.1085 -0.3866
19802SOL    HW264254   6.479   2.699   4.627 -0.1517  0.3493  0.2511
19803SOL     OW64255   7.969   5.982   8.053 -0.6047  0.4866 -0.6979
19803SOL    HW164256   7.908   6.042   8.010 -0.9944  0.1913 -0.5658
19803SOL    HW264257   8.054   6.025   8.047 -0.5473  0.2207 -2.2275
19804SOL     OW64258   7.029   6.464   5.754 -0.2660  0.3201  0.0221
19804SOL    HW164259   7.045   6.539   5.697  0.2869  1.9429  2.1635
19804SOL    HW264260   6.934   6.463   5.767 -0.1470  1.6876  1.2230
19805SOL     OW64261   5.416   0.318   3.473 -0.1212 -0.1576 -0.5641
19805SOL    HW164262   5.406   0.411   3.494  1.4458 -0.0733 -0.0989
19805SOL    HW264263   5.357   0.274   3.533  0.2925  0.4419  0.2954
19806SOL     OW64264   6.227   2.970   7.698  0.1449 -0.1555 -0.3264
19806SOL    HW164265   6.184   3.016   7.626 -1.8589 -0.9289  0.3253
19806SOL    HW264266   6.179   2.997   7.776 -0.4523 -2.5706  0.1960
19807SOL     OW64267   7.413   8.223   7.423 -0.3149 -0.4266 -0.3002
19807SOL    HW164268   7.429   8.174   7.342 -0.6073 -1.1612  0.0692
19807SOL    HW264269   7.418   8.156   7.491 -0.1248  0.1797  0.2831
19808SOL     OW64270   5.505   6.901   8.932  0.1278 -0.2379 -0.5850
19808SOL    HW164271   5.582   6.845   8.918 -0.2684 -0.8835 -0.2272
19808SOL    HW264272   5.516   6.973   8.870  0.7304 -0.6287 -0.9441
19809SOL     OW64273   8.134   3.124   8.906 -0.1187  0.0552  0.1040
19809SOL    HW164274   8.220   3.084   8.895 -1.1421 -1.7866 -1.9866
19809SOL    HW264275   8.091   3.114   8.821 -3.0943 -0.8940  1.5478
19810SOL     OW64276   5.592   4.255   6.446 -0.1823 -0.2717  0.3982
19810SOL    HW164277   5.643   4.306   6.509 -2.1451 -0.0807  1.9548
19810SOL    HW264278   5.657   4.206   6.396  1.5435  0.5944  1.6798
19811SOL     OW64279   7.513   2.657   7.901 -0.5321  0.4751  0.4909
19811SOL    HW164280   7.584   2.651   7.837 -0.0105  0.8758  1.0318
19811SOL    HW264281   7.506   2.750   7.921  1.2371  0.1404  3.1624
19812SOL     OW64282   5.798   4.306   3.605 -0.5035 -0.7729 -0.3422
19812SOL    HW164283   5.827   4.316   3.514  1.0973  1.0678  0.3187
19812SOL    HW264284   5.851   4.368   3.655 -3.0612  0.0864  1.5254
19813SOL     OW64285   6.476   3.004   5.272 -0.0979 -0.2605  0.2804
19813SOL    HW164286   6.563   3.042   5.276 -1.6197  3.6066  0.9455
19813SOL    HW264287   6.468   2.971   5.183  1.5324  0.6635 -0.2418
19814SOL     OW64288   5.849   3.203   4.353 -0.2046  0.1470  0.2419
19814SOL    HW164289   5.863   3.251   4.434  0.1182  0.1690  0.1710
19814SOL    HW264290   5.762   3.163   4.364 -0.3459  0.5049  0.4171
19815SOL     OW64291   6.651   1.839   8.412 -0.3959 -0.2084  0.3800
19815SOL    HW164292   6.714   1.794   8.356 -0.5141  0.7098 -0.5222
19815SOL    HW264293   6.687   1.829   8.501  0.8635  0.0250 -0.0785
19816SOL     OW64294   8.031   2.740   5.885  0.2904 -0.8188  0.3793
19816SOL    HW164295   8.011   2.706   5.798 -1.4829  1.5049 -0.2463
19816SOL    HW264296   7.993   2.676   5.946 -2.0394 -0.5543 -0.6934
19817SOL     OW64297   4.457   2.131   7.249 -0.0887 -0.3816  0.3060
19817SOL    HW164298   4.425   2.057   7.300  0.4545 -1.9212 -1.5056
19817SOL    HW264299   4.378   2.172   7.214 -0.3306 -1.3878 -0.3722
19818SOL     OW64300   7.252   3.249   1.086  0.1678  0.0176  0.1660
19818SOL    HW164301   7.247   3.342   1.111  0.4022  0.3515 -0.9652
19818SOL    HW264302   7.198   3.242   1.007  0.0657 -0.8362  0.3037
19819SOL     OW64303   7.044   5.542   9.809 -0.4544 -0.1522 -0.3487
19819SOL    HW164304   6.962   5.495   9.791 -0.5478 -0.1392  0.0359
19819SOL    HW264305   7.050   5.545   9.905 -0.8940  1.3626 -0.3354
19820SOL     OW64306   7.200   2.586   5.221  0.5635  0.2155 -0.5181
19820SOL    HW164307   7.262   2.588   5.293 -1.5064 -0.9825  1.4207
19820SOL    HW264308   7.134   2.652   5.243  0.2814  0.3701 -1.7140
19821SOL     OW64309   6.709   4.821   8.742  0.0918 -0.5801 -0.0408
19821SOL    HW164310   6.625   4.820   8.788  0.2573 -1.2402  0.2544
19821SOL    HW264311   6.769   4.778   8.802  0.9185  0.8929  0.2465
19822SOL     OW64312   5.057   4.888   7.506 -0.1328 -0.1621  0.1486
19822SOL    HW164313   5.077   4.894   7.599 -0.6624  2.5148  0.1819
19822SOL    HW264314   5.142   4.885   7.463  0.1775  0.7482  0.6706
19823SOL     OW64315   8.211   2.804   9.174  0.5180  0.1124 -0.6233
19823SOL    HW164316   8.202   2.781   9.267 -1.3811 -2.1241 -1.2435
19823SOL    HW264317   8.252   2.727   9.134  0.4345  0.6532 -1.7921
19824SOL     OW64318   6.636   1.519   6.698  0.5750  0.2056 -0.2617
19824SOL    HW164319   6.720   1.534   6.656  0.9185  0.5806  0.5405
19824SOL    HW264320   6.572   1.524   6.627  1.4295 -3.2528 -1.5040
19825SOL     OW64321   8.557   3.521   6.110  0.2731 -0.3016  0.6844
19825SOL    HW164322   8.647   3.526   6.141  0.9199  0.3350 -1.1897
19825SOL    HW264323   8.564   3.510   6.015 -1.6239  0.6234  0.3854
19826SOL     OW64324   6.568   2.707   6.898  0.1624  0.6471 -0.6659
19826SOL    HW164325   6.490   2.653   6.909  0.8190 -0.2930 -0.4569
19826SOL    HW264326   6.535   2.796   6.887 -0.9353  0.2491 -0.6955
19827SOL     OW64327   8.484   5.709   7.143  0.3324  0.6816 -0.3881
19827SOL    HW164328   8.405   5.754   7.112  0.3195  0.3890 -0.7897
19827SOL    HW264329   8.451   5.645   7.206  0.3209  1.0326 -0.0358
19828SOL     OW64330   6.332   6.337   5.392  0.3527  0.0857 -0.4139
19828SOL    HW164331   6.303   6.404   5.330 -1.3533  0.4174  0.6754
19828SOL    HW264332   6.351   6.261   5.338 -2.0644  0.0283 -1.3248
19829SOL     OW64333   6.806   4.890   6.906  0.6073 -0.1082 -0.2886
19829SOL    HW164334   6.778   4.907   6.996 -1.7637 -1.8697 -0.5808
19829SOL    HW264335   6.779   4.968   6.858  0.3635  0.1521  0.2596
19830SOL     OW64336   6.972   3.952   4.366 -0.2226 -0.2339 -0.4890
19830SOL    HW164337   7.058   3.980   4.336  0.9840  0.4234  3.1070
19830SOL    HW264338   6.919   4.032   4.364  1.0072  0.8199  2.4916
19831SOL     OW64339   4.958   2.174   5.243  0.2357 -0.1021  0.0630
19831SOL    HW164340   4.987   2.181   5.334  0.4763 -2.6242  0.2563
19831SOL    HW264341   4.863   2.161   5.250  0.2555 -0.2976 -0.0405
19832SOL     OW64342   6.986   5.117   7.483  0.0881  0.4420  0.0485
19832SOL    HW164343   7.069   5.097   7.439 -0.0327  2.5718 -1.2326
19832SOL    HW264344   6.929   5.044   7.460  1.1530 -0.3427 -0.2132
19833SOL     OW64345   5.421   3.684   8.443  1.3131 -0.4925  0.2063
19833SOL    HW164346   5.485   3.665   8.374  3.0498 -0.9384  1.8462
19833SOL    HW264347   5.473   3.718   8.516 -0.3538 -0.6633  1.5525
19834SOL     OW64348   7.852   4.378   6.163  0.2022  0.2903  0.3325
19834SOL    HW164349   7.805   4.458   6.189  2.2676  1.3199  1.1363
19834SOL    HW264350   7.935   4.383   6.210  1.4892 -1.0076 -1.6429
19835SOL     OW64351   8.348   3.620   8.552  0.4675  0.3241  0.0294
19835SOL    HW164352   8.264   3.641   8.594 -0.4378  0.1162 -1.5966
19835SOL    HW264353   8.343   3.664   8.467  0.2493 -2.9631 -1.8206
19836SOL     OW64354   5.703   2.603   6.266  0.1536 -0.5573 -0.5405
19836SOL    HW164355   5.717   2.513   6.238 -1.2560 -1.0242  0.1979
19836SOL    HW264356   5.617   2.626   6.231  0.1438  0.2220 -0.0257
19837SOL     OW64357   6.163   4.118   6.163 -0.0872 -0.4697  0.8765
19837SOL    HW164358   6.122   4.103   6.248  0.8064 -0.9882  1.2321
19837SOL    HW264359   6.250   4.078   6.171 -0.0871 -0.7605 -0.3703
19838SOL     OW64360   6.501   2.224   7.604  0.1325 -0.1814 -0.5511
19838SOL    HW164361   6.502   2.129   7.617  0.4947 -0.0380  0.6265
19838SOL    HW264362   6.414   2.251   7.633  0.7400  0.0711  1.1480
19839SOL     OW64363   4.953   7.801   5.232 -0.4224 -0.6345 -0.7024
19839SOL    HW164364   5.023   7.842   5.181 -1.3459  0.5818 -1.0201
19839SOL    HW264365   4.898   7.758   5.167 -1.6396  0.9762 -0.7965
19840SOL     OW64366   8.535   1.870   7.812 -0.0125 -0.5131 -0.0520
19840SOL    HW164367   8.477   1.943   7.795 -0.0263 -0.2178  1.1762
19840SOL    HW264368   8.613   1.887   7.758 -0.3352 -0.0131 -0.3604
19841SOL     OW64369   6.259   3.564   6.488 -0.4614  0.3633 -0.4045
19841SOL    HW164370   6.165   3.575   6.475 -0.4021  0.0234 -1.2132
19841SOL    HW264371   6.287   3.512   6.412  0.3195  0.1922 -0.0033
19842SOL     OW64372   5.959   4.949   8.088  0.1845 -0.1587 -0.0583
19842SOL    HW164373   5.993   5.037   8.077 -1.7774  0.5296 -1.0862
19842SOL    HW264374   5.889   4.958   8.153 -1.5617 -0.4399 -1.7911
19843SOL     OW64375   5.688   5.692   7.832 -0.2199  0.0981  0.2627
19843SOL    HW164376   5.674   5.772   7.883  0.4793 -0.7147  1.8156
19843SOL    HW264377   5.783   5.678   7.836 -0.2350 -0.3585 -0.7330
19844SOL     OW64378   4.512   3.814   4.571 -0.0910  0.1208 -0.3433
19844SOL    HW164379   4.571   3.837   4.643 -0.3879 -1.3090  0.3977
19844SOL    HW264380   4.528   3.880   4.504  0.5791  1.1866  0.8263
19845SOL     OW64381   8.493   4.778   8.616  0.4486  0.2056  0.0943
19845SOL    HW164382   8.473   4.797   8.525  1.0906  0.3422 -0.0253
19845SOL    HW264383   8.529   4.860   8.650  1.0791 -0.1093  0.2123
19846SOL     OW64384   4.020   7.246   7.111 -0.3573  0.2233 -0.5492
19846SOL    HW164385   4.028   7.184   7.183 -0.0933 -1.1005 -1.6794
19846SOL    HW264386   3.925   7.255   7.098 -0.4158 -1.0959 -1.2871
19847SOL     OW64387   6.271   2.118   6.200  0.7511 -0.2918 -0.2072
19847SOL    HW164388   6.189   2.166   6.189 -0.7861 -2.3885  1.3183
19847SOL    HW264389   6.265   2.046   6.138  0.7629 -1.2257  0.8351
19848SOL     OW64390   7.627   5.257   7.989  0.1784  0.3854  0.2107
19848SOL    HW164391   7.569   5.326   7.958  1.2501  1.2383  0.0303
19848SOL    HW264392   7.576   5.211   8.056 -1.2090  0.1862 -0.9363
19849SOL     OW64393   5.789   3.952   6.513  0.3383  0.3862 -0.2737
19849SOL    HW164394   5.801   3.869   6.466  0.6403  0.2298  0.0774
19849SOL    HW264395   5.863   4.006   6.487  0.7315  0.1507  0.3321
19850SOL     OW64396   7.097   5.970   9.149 -0.0487 -0.6377 -0.0462
19850SOL    HW164397   7.143   5.902   9.100 -1.6025 -0.1489 -2.3270
19850SOL    HW264398   7.005   5.945   9.145 -0.5373  1.0434 -0.0347
19851SOL     OW64399   6.839   3.059   5.342 -0.1986 -0.2804  0.0953
19851SOL    HW164400   6.929   3.088   5.353 -0.8054  1.4579  0.9695
19851SOL    HW264401   6.823   3.062   5.248  0.4749 -0.0567 -0.0145
19852SOL     OW64402   6.437   6.681   5.987 -0.0153 -0.1966 -0.1535
19852SOL    HW164403   6.441   6.720   5.899 -0.2812 -1.8927 -0.9473
19852SOL    HW264404   6.498   6.734   6.039 -0.1246  1.0701 -1.2559
19853SOL     OW64405   7.102   3.611   8.494 -0.0454  0.2183  0.7682
19853SOL    HW164406   7.029   3.590   8.551 -0.0174  0.1427  0.7761
19853SOL    HW264407   7.159   3.667   8.548 -0.1057  0.2928  0.7556
19854SOL     OW64408   6.702   7.114   7.175  0.5539 -0.6487  0.7700
19854SOL    HW164409   6.673   7.187   7.230  1.1856 -0.1359  0.4389
19854SOL    HW264410   6.628   7.053   7.175 -0.1658  0.1989  0.6816
19855SOL     OW64411   4.774   4.975   7.643 -0.3791  0.3313 -0.1971
19855SOL    HW164412   4.858   4.936   7.619 -0.0759  1.7920 -1.7306
19855SOL    HW264413   4.710   4.933   7.585 -0.7439 -0.8200  1.0070
19856SOL     OW64414   7.296   5.003   8.136  0.1553  0.5368 -0.0521
19856SOL    HW164415   7.229   4.977   8.198  0.6819 -0.8838 -0.0442
19856SOL    HW264416   7.255   5.072   8.083 -0.2648  1.8621  1.9026
19857SOL     OW64417   8.382   3.250   6.896 -0.6517  0.1416 -0.6144
19857SOL    HW164418   8.437   3.309   6.844  1.0183  1.8784  2.7520
19857SOL    HW264419   8.416   3.163   6.877  2.2611  1.0054  0.0261
19858SOL     OW64420   8.897   5.094   6.949 -0.1569  0.2696  0.1503
19858SOL    HW164421   8.877   5.002   6.966  0.4229  0.3471  1.3736
19858SOL    HW264422   8.827   5.143   6.993  0.4449  0.4369  0.9530
19859SOL     OW64423   4.971   4.827   0.062  0.3743 -0.6464 -0.1992
19859SOL    HW164424   4.938   4.893   0.124 -2.9551 -0.9544 -1.4309
19859SOL    HW264425   5.018   4.878  -0.004 -0.9380  0.4107 -0.3776
19860SOL     OW64426   7.165   6.166   7.345  0.2078 -0.2528 -0.0726
19860SOL    HW164427   7.224   6.177   7.271  0.0441 -1.3251 -0.3763
19860SOL    HW264428   7.100   6.236   7.334 -0.2139 -0.8133 -1.3417
19861SOL     OW64429   7.463   4.888   6.733  0.1986  0.5868  0.4460
19861SOL    HW164430   7.515   4.901   6.813 -0.1605 -0.7950  0.9422
19861SOL    HW264431   7.524   4.847   6.672 -0.4088 -1.8054  1.3029
19862SOL     OW64432   6.978   4.812   5.027 -0.1100 -0.3392  0.1413
19862SOL    HW164433   7.058   4.760   5.023  0.7792  0.9589  0.2181
19862SOL    HW264434   6.978   4.861   4.945 -0.9560 -0.4989  0.0438
19863SOL     OW64435   6.891   3.559   8.289 -0.1304 -0.1196 -0.2047
19863SOL    HW164436   6.915   3.488   8.229  0.9925  1.9059 -2.3246
19863SOL    HW264437   6.967   3.568   8.346  0.1185 -0.0583 -0.5373
19864SOL     OW64438   6.946   4.045   7.207  0.3958  0.2688 -0.9236
19864SOL    HW164439   6.941   3.991   7.285 -1.4293  1.3557 -0.2217
19864SOL    HW264440   6.996   3.993   7.144 -1.8231 -2.5562 -0.5339
19865SOL     OW64441   7.723   4.862   3.792  0.8722 -0.2191  0.0139
19865SOL    HW164442   7.631   4.839   3.785  0.6694  0.6489 -0.1519
19865SOL    HW264443   7.725   4.944   3.842  1.6068 -0.6220  0.6899
19866SOL     OW64444   7.106   3.687   6.943 -0.2914  0.1096  0.6895
19866SOL    HW164445   7.182   3.694   6.886  0.6445 -0.3168  1.8385
19866SOL    HW264446   7.031   3.691   6.884  0.6263 -2.8188 -0.8645
19867SOL     OW64447   5.573   3.396   6.535  0.3206 -0.7581  0.4384
19867SOL    HW164448   5.481   3.383   6.509 -0.1470  3.4596 -0.7018
19867SOL    HW264449   5.619   3.410   6.452  1.5482 -0.4523  1.1531
19868SOL     OW64450   8.014   3.989   6.386  0.4249  0.2862  0.0362
19868SOL    HW164451   8.063   4.043   6.324  0.9532  0.1513  0.3330
19868SOL    HW264452   7.936   4.041   6.406  0.1664  0.2612 -0.8588
19869SOL     OW64453   7.591   5.555   7.659  0.6290 -0.3830 -0.0697
19869SOL    HW164454   7.564   5.486   7.719  2.9234 -0.9938  0.3511
19869SOL    HW264455   7.662   5.600   7.704  1.1791  0.3398 -1.5831
19870SOL     OW64456   6.051   5.826   7.378 -0.3829 -0.2831 -0.1814
19870SOL    HW164457   6.056   5.915   7.343  0.6815  0.1648  1.0334
19870SOL    HW264458   5.957   5.808   7.382 -0.6587  1.0977  0.2875
19871SOL     OW64459   6.846   6.516   6.369 -0.6246 -0.0448  0.4049
19871SOL    HW164460   6.802   6.446   6.320 -0.9832  2.4417 -3.1799
19871SOL    HW264461   6.934   6.520   6.332 -0.1883  0.6210  1.4598
19872SOL     OW64462   5.420   3.234   5.223 -0.0866 -0.4893 -0.0559
19872SOL    HW164463   5.463   3.261   5.304  1.3580 -0.9316 -0.6524
19872SOL    HW264464   5.365   3.160   5.248 -0.5068  0.0701  0.7165
19873SOL     OW64465   4.358   3.887   7.361 -0.4941 -0.3066 -0.3930
19873SOL    HW164466   4.328   3.952   7.425 -0.3737 -0.1302 -0.5122
19873SOL    HW264467   4.426   3.933   7.311 -0.1877 -0.6249 -0.2774
19874SOL     OW64468   5.103   1.897   5.851  0.4332 -0.1110 -0.0632
19874SOL    HW164469   5.011   1.888   5.824 -0.0276  2.8250  0.2177
19874SOL    HW264470   5.136   1.807   5.854 -2.2093 -1.2027 -0.9053
19875SOL     OW64471   6.438   4.619   8.437 -0.4288 -0.3888 -0.3151
19875SOL    HW164472   6.472   4.531   8.422  0.3610 -0.0287 -0.6613
19875SOL    HW264473   6.472   4.671   8.365 -1.4046  0.0712 -0.4656
19876SOL     OW64474   5.679   8.282   8.561 -0.4316  0.0203  0.6136
19876SOL    HW164475   5.657   8.248   8.648  0.2543 -1.2611  0.3130
19876SOL    HW264476   5.658   8.375   8.566 -1.7918 -0.3022  1.6835
19877SOL     OW64477   7.301   4.261   7.111 -0.3208  0.5425 -0.6570
19877SOL    HW164478   7.370   4.249   7.177  0.5381 -0.5344 -1.6992
19877SOL    HW264479   7.273   4.351   7.122 -0.9371  0.1090  1.8627
19878SOL     OW64480   7.183   4.159   4.219 -0.5274 -0.9212  0.3930
19878SOL    HW164481   7.275   4.185   4.226 -0.6876 -0.4238  0.7576
19878SOL    HW264482   7.179   4.103   4.142 -0.3874  1.2414 -1.2774
19879SOL     OW64483   9.350   4.570   5.673  0.6103 -0.0662  0.6234
19879SOL    HW164484   9.444   4.553   5.663  0.2488 -1.6233 -0.6733
19879SOL    HW264485   9.332   4.552   5.765  1.7149  1.0789  1.0844
19880SOL     OW64486   6.845   2.435   3.353 -0.3895  0.4044  0.1325
19880SOL    HW164487   6.840   2.350   3.309 -2.6835 -0.5591  2.0678
19880SOL    HW264488   6.914   2.423   3.418  1.0126  0.9022 -1.1985
19881SOL     OW64489   7.186   5.974   5.737  0.3408 -0.6806  0.0827
19881SOL    HW164490   7.268   5.928   5.721 -0.1582 -1.6667  0.2822
19881SOL    HW264491   7.119   5.906   5.735 -0.7227  0.3145 -1.8197
19882SOL     OW64492   5.815   4.555   7.882 -0.1533 -0.2013 -0.2797
19882SOL    HW164493   5.808   4.645   7.913 -0.0882 -0.4462  0.4648
19882SOL    HW264494   5.791   4.560   7.789  0.8003  0.7308 -0.4943
19883SOL     OW64495   4.873   7.298   8.271  0.1060 -0.3267 -0.2319
19883SOL    HW164496   4.854   7.385   8.234  1.7071  0.6495  1.0644
19883SOL    HW264497   4.877   7.313   8.366  0.6943 -1.7512 -0.0107
19884SOL     OW64498   7.716   4.629   9.782  0.4505 -0.7445  0.1581
19884SOL    HW164499   7.737   4.695   9.716  0.7267 -0.1255  0.8499
19884SOL    HW264500   7.748   4.547   9.744 -0.1329 -0.5400 -0.8269
19885SOL     OW64501   7.336   5.375   5.025 -0.4427 -0.2052  0.0661
19885SOL    HW164502   7.346   5.382   5.120  2.0029 -0.6504 -0.0918
19885SOL    HW264503   7.371   5.457   4.990  0.9906 -1.0281 -0.5166
19886SOL     OW64504   5.236   6.844   8.312 -0.1929  0.3753 -0.2936
19886SOL    HW164505   5.242   6.752   8.286 -0.3441  0.8025 -1.9245
19886SOL    HW264506   5.258   6.893   8.233 -1.9603  1.7611  0.0229
19887SOL     OW64507   6.820   2.661   4.792  0.3726  0.0084  0.1038
19887SOL    HW164508   6.817   2.614   4.875  0.6169  0.6332  0.4736
19887SOL    HW264509   6.853   2.596   4.730  0.1851 -0.4660  0.4874
19888SOL     OW64510   5.559   2.471   7.208 -0.2171 -0.6144  0.2158
19888SOL    HW164511   5.473   2.507   7.230  0.6404  2.3913 -0.8689
19888SOL    HW264512   5.576   2.503   7.119  1.9518 -1.2653  0.3421
19889SOL     OW64513   7.386   2.668   5.412  0.0729 -0.7633 -0.6536
19889SOL    HW164514   7.309   2.718   5.439 -2.0913 -3.6774 -0.8892
19889SOL    HW264515   7.429   2.642   5.493  0.3584  0.1842 -0.4935
19890SOL     OW64516   7.400   1.951   6.828 -0.1607 -0.8395  0.5882
19890SOL    HW164517   7.479   1.942   6.774  0.3439  0.3454  1.0950
19890SOL    HW264518   7.361   2.033   6.798 -2.0403 -2.1058 -0.6797
19891SOL     OW64519   7.264   5.272   6.246  0.9405 -0.2483  0.3751
19891SOL    HW164520   7.359   5.281   6.246  0.7754  2.1543  0.7233
19891SOL    HW264521   7.235   5.329   6.175 -0.2944 -0.2960  0.8216
19892SOL     OW64522   7.336   4.998   5.857 -0.6641  0.6327 -0.2834
19892SOL    HW164523   7.377   5.060   5.796 -1.3861  0.3486 -1.0724
19892SOL    HW264524   7.249   5.034   5.873 -0.6799  0.4101  0.1523
19893SOL     OW64525   6.404   3.907   7.035  0.3137  0.0813  0.3652
19893SOL    HW164526   6.318   3.892   7.075 -0.7442  0.6076 -1.5922
19893SOL    HW264527   6.465   3.911   7.110 -1.1972 -1.1743  1.7466
19894SOL     OW64528   5.326   3.631   6.385 -0.4739 -0.3590  0.2027
19894SOL    HW164529   5.254   3.694   6.383  0.0341  0.2029 -0.4675
19894SOL    HW264530   5.396   3.675   6.433 -0.1612 -0.4669 -0.1526
19895SOL     OW64531   4.936   3.628   8.672 -0.0498  0.2809  0.2217
19895SOL    HW164532   4.866   3.693   8.675  0.6795  1.0766  0.3295
19895SOL    HW264533   4.931   3.583   8.757 -1.8600 -1.2433 -0.6201
19896SOL     OW64534   7.001   7.697   5.147  0.0157 -0.1843  0.1688
19896SOL    HW164535   6.956   7.780   5.165  0.4787  0.1539 -0.1976
19896SOL    HW264536   6.953   7.632   5.197  0.9575  0.6298  2.2440
19897SOL     OW64537   7.799   5.099   8.545  0.1632  0.0918 -0.7791
19897SOL    HW164538   7.816   5.024   8.487  2.7282  0.5425 -0.7444
19897SOL    HW264539   7.785   5.173   8.486 -0.8199 -0.1029 -0.8045
19898SOL     OW64540   7.429   4.621   7.045  0.3677  0.6230 -0.0590
19898SOL    HW164541   7.509   4.592   7.088 -0.0176 -0.5055 -0.0804
19898SOL    HW264542   7.448   4.616   6.951  0.0467 -0.3609 -0.0835
19899SOL     OW64543   8.141   3.075   8.172 -0.0566  0.0088  1.0279
19899SOL    HW164544   8.084   3.128   8.226  0.1120  0.0883  1.1277
19899SOL    HW264545   8.083   3.038   8.105  0.4594  3.8647 -1.8954
19900SOL     OW64546   6.284   2.168   2.494  0.6599  0.3638  0.0643
19900SOL    HW164547   6.204   2.149   2.544  0.3095  0.8900 -0.2949
19900SOL    HW264548   6.354   2.129   2.547  0.1947  0.0882  0.4923
19901SOL     OW64549   7.535   3.216   5.647 -1.4177 -0.3225 -0.3767
19901SOL    HW164550   7.565   3.263   5.570 -1.7674 -1.0479 -0.9679
19901SOL    HW264551   7.488   3.282   5.699 -0.8850  0.2458 -0.6067
19902SOL     OW64552   5.900   4.034   9.222 -0.6007 -0.5625  0.9332
19902SOL    HW164553   5.833   4.080   9.273 -0.8477 -0.2985  0.3710
19902SOL    HW264554   5.920   4.093   9.150  2.4380  0.7604  2.6962
19903SOL     OW64555   7.790   3.312   5.751  0.6078 -0.2748 -0.2161
19903SOL    HW164556   7.772   3.377   5.819  0.4648  0.8000 -1.2601
19903SOL    HW264557   7.705   3.289   5.716  0.6481 -1.1201  0.1959
19904SOL     OW64558   4.240   4.939   7.499 -0.2580 -0.4966 -0.3345
19904SOL    HW164559   4.231   4.936   7.404 -2.1922  0.7939 -0.2594
19904SOL    HW264560   4.332   4.919   7.516  0.9528  2.4286 -2.7117
19905SOL     OW64561   9.479   2.742   5.656 -0.1929  0.2212 -0.1603
19905SOL    HW164562   9.570   2.744   5.626  0.2751  0.5164  1.2320
19905SOL    HW264563   9.453   2.650   5.650  0.5147 -0.0170  0.3507
19906SOL     OW64564   7.270   4.418   4.670  0.3139  0.4816 -0.4250
19906SOL    HW164565   7.341   4.418   4.734  0.7715  0.7769 -0.9293
19906SOL    HW264566   7.256   4.511   4.649 -2.0240  0.7199  1.6283
19907SOL     OW64567   6.419   4.209   1.677  0.0633 -0.0298  0.0846
19907SOL    HW164568   6.474   4.263   1.620  1.6729 -1.0942  0.5691
19907SOL    HW264569   6.452   4.227   1.765  2.1465 -3.3106  0.1303
19908SOL     OW64570   5.830   4.769   7.202 -0.5164 -0.1821 -0.8020
19908SOL    HW164571   5.923   4.751   7.208 -0.6548 -0.8225 -0.5266
19908SOL    HW264572   5.799   4.715   7.130 -1.2110 -2.2921  0.9750
19909SOL     OW64573   8.215   4.465   7.648  0.1537 -0.2016  0.4445
19909SOL    HW164574   8.164   4.492   7.725  1.4811 -0.2974  1.3969
19909SOL    HW264575   8.235   4.373   7.664 -0.1509 -0.4139 -0.3723
19910SOL     OW64576   7.852   1.824   4.892  0.0409  0.2026 -0.1581
19910SOL    HW164577   7.797   1.900   4.912  1.2558  1.2402 -0.6099
19910SOL    HW264578   7.833   1.762   4.962 -2.4076  0.0868 -0.8174
19911SOL     OW64579   7.718   3.819   6.515  0.1744  0.5679  0.0840
19911SOL    HW164580   7.625   3.842   6.522  0.2333  1.8600 -2.3847
19911SOL    HW264581   7.745   3.853   6.430  2.3610 -1.7988 -0.2840
19912SOL     OW64582   5.318   6.643   6.425  0.0614 -0.2389  0.3731
19912SOL    HW164583   5.348   6.637   6.334  0.9528  1.0106  0.5538
19912SOL    HW264584   5.270   6.561   6.440  0.2005 -0.6250 -1.1027
19913SOL     OW64585   5.717   4.980   8.226 -0.5322 -0.3899  0.1893
19913SOL    HW164586   5.641   5.034   8.246  0.0048  0.0738  1.0656
19913SOL    HW264587   5.733   4.932   8.308 -0.4985 -1.2483 -0.3139
19914SOL     OW64588   2.954   2.902   6.617  0.0489 -0.0782 -0.3202
19914SOL    HW164589   2.957   2.810   6.592  1.8597  0.1035 -0.8742
19914SOL    HW264590   2.971   2.903   6.711 -0.9784 -0.3505 -0.1153
19915SOL     OW64591   6.454   1.971   9.436  0.2084  0.1490  0.2755
19915SOL    HW164592   6.495   1.915   9.502 -0.9968  0.7608  1.5671
19915SOL    HW264593   6.515   2.044   9.426 -0.4591  1.0110  2.1256
19916SOL     OW64594   5.943   5.513   7.678 -0.3436 -0.5543 -0.1654
19916SOL    HW164595   5.956   5.579   7.747 -0.7000 -1.0114  0.3450
19916SOL    HW264596   5.978   5.432   7.716  0.1328 -0.6584 -0.8083
19917SOL     OW64597   8.211   4.689   0.342 -0.3962 -0.4428 -0.5664
19917SOL    HW164598   8.288   4.692   0.286 -0.9439  0.7243 -1.2735
19917SOL    HW264599   8.140   4.660   0.285 -0.4479 -1.8255  0.1521
19918SOL     OW64600   6.932   3.368   8.559 -0.3945  0.5873  0.0101
19918SOL    HW164601   6.917   3.286   8.605 -1.0313  0.2254 -0.8360
19918SOL    HW264602   6.912   3.436   8.624  0.1881  0.0945  0.7244
19919SOL     OW64603   4.092   3.668   6.343 -0.0302 -0.2038 -0.3306
19919SOL    HW164604   4.186   3.673   6.359  0.2210  0.9331 -1.9686
19919SOL    HW264605   4.071   3.575   6.354  1.5702 -0.7395 -1.3924
19920SOL     OW64606   3.729   4.921   7.807  0.3716  0.3043 -0.7947
19920SOL    HW164607   3.807   4.926   7.752  0.7773  1.9127 -0.1436
19920SOL    HW264608   3.763   4.915   7.896 -0.2703 -0.7701 -0.6093
19921SOL     OW64609   5.492   5.699   0.878 -0.0776 -0.4162  0.5206
19921SOL    HW164610   5.572   5.667   0.920  1.2915  0.4664 -1.2184
19921SOL    HW264611   5.489   5.792   0.900  0.7133  0.0857 -1.2332
19922SOL     OW64612   5.154   3.872   9.031 -0.0270  0.1457  0.3034
19922SOL    HW164613   5.189   3.875   8.942 -0.4358  1.2828  0.1761
19922SOL    HW264614   5.099   3.950   9.039 -0.5739 -0.3235  1.3162
19923SOL     OW64615   7.657   5.573   0.455 -0.5495 -0.1452 -0.3294
19923SOL    HW164616   7.673   5.560   0.361 -0.8924 -1.7708 -0.1915
19923SOL    HW264617   7.739   5.611   0.488  0.2681 -1.2777 -0.9817
19924SOL     OW64618   5.815   5.825   8.523  0.0221  0.2997 -0.3344
19924SOL    HW164619   5.866   5.893   8.568  0.2281  0.6890 -1.1244
19924SOL    HW264620   5.853   5.822   8.435 -1.7319  1.0740 -1.1645
19925SOL     OW64621   7.313   6.274   8.287  0.3558  0.0798  0.7855
19925SOL    HW164622   7.387   6.312   8.240  0.2193 -0.9650 -0.3218
19925SOL    HW264623   7.259   6.349   8.312 -0.5342  0.6297 -2.3999
19926SOL     OW64624   5.915   3.733   9.254  0.0748 -0.1043 -0.0956
19926SOL    HW164625   5.893   3.827   9.252 -1.0715 -0.3635 -1.1577
19926SOL    HW264626   5.972   3.721   9.177  0.2555 -0.2747  0.0644
19927SOL     OW64627   6.390   3.193   9.378  0.4760 -0.0400  0.0639
19927SOL    HW164628   6.343   3.116   9.409 -0.6058  0.0233 -1.3102
19927SOL    HW264629   6.344   3.267   9.419  0.3696 -0.0580 -0.0203
19928SOL     OW64630   7.824   5.571   8.440 -0.0150 -0.1317 -0.7254
19928SOL    HW164631   7.807   5.616   8.522 -3.5023  0.2326 -1.5038
19928SOL    HW264632   7.916   5.589   8.422  0.5066  0.9063  2.3770
19929SOL     OW64633   6.963   4.333   8.580  0.0187  0.9852 -0.1720
19929SOL    HW164634   6.895   4.384   8.536 -0.2254  0.5658 -0.2939
19929SOL    HW264635   6.966   4.368   8.669 -1.2873  0.1516  0.2334
19930SOL     OW64636   5.554   4.351   9.004 -0.1366  0.4097  0.1552
19930SOL    HW164637   5.594   4.419   9.058 -0.4358  0.5068  0.2626
19930SOL    HW264638   5.535   4.395   8.920 -0.7672  0.6033  0.3871
19931SOL     OW64639   4.925   2.141   7.263  0.6830 -0.1276 -0.0634
19931SOL    HW164640   4.969   2.225   7.252 -0.5664  0.7119  1.0175
19931SOL    HW264641   4.970   2.100   7.337  0.7690 -0.0510 -0.0730
19932SOL     OW64642   6.049   6.232   9.031  0.0735 -0.3467 -0.2068
19932SOL    HW164643   5.978   6.170   9.040  1.3807 -1.7095  1.3640
19932SOL    HW264644   6.106   6.215   9.106 -0.1598  3.7118  1.1621
19933SOL     OW64645   6.423   3.996   8.554  0.4355 -0.4909 -0.0140
19933SOL    HW164646   6.462   3.931   8.613  0.4839  1.0509  1.7608
19933SOL    HW264647   6.495   4.021   8.496  0.5315 -1.6818 -0.4325
19934SOL     OW64648   6.039   4.781   9.640  0.2993  0.2667 -0.6698
19934SOL    HW164649   5.987   4.704   9.615  0.5899  0.0107 -0.4783
19934SOL    HW264650   6.090   4.753   9.715  0.5734  0.5818 -0.7366
19935SOL     OW64651   7.441   3.019   6.299 -0.0634 -0.2014  0.3724
19935SOL    HW164652   7.483   3.013   6.385  0.9726 -1.0863 -0.1707
19935SOL    HW264653   7.496   3.079   6.249 -0.1546 -0.3819  0.0525
19936SOL     OW64654   6.971   5.048   7.963  0.1678 -0.1291  0.3522
19936SOL    HW164655   7.034   4.977   7.960 -0.4909 -0.7322  0.4780
19936SOL    HW264656   6.988   5.098   7.883  0.6904 -0.3768  0.3027
19937SOL     OW64657   5.745   5.364   8.757 -0.2477 -0.0823 -0.2017
19937SOL    HW164658   5.686   5.437   8.736  0.2285  0.0950 -0.9495
19937SOL    HW264659   5.806   5.360   8.683 -0.6791 -1.6698 -0.5036
19938SOL     OW64660   8.763   4.669   9.153  0.0760 -0.1371 -0.0931
19938SOL    HW164661   8.793   4.746   9.104 -2.4775 -0.1125 -1.8030
19938SOL    HW264662   8.723   4.612   9.087 -0.8346 -1.5056  1.5512
19939SOL     OW64663   6.349   3.332   6.782 -0.7162 -0.4837 -0.4483
19939SOL    HW164664   6.272   3.389   6.771 -0.0074  0.9300  1.4384
19939SOL    HW264665   6.415   3.389   6.821  0.7909 -2.0757 -0.5949
19940SOL     OW64666   6.396   3.623   7.709 -0.1221  0.5933 -0.2901
19940SOL    HW164667   6.323   3.615   7.647  1.0168  1.3967 -1.8005
19940SOL    HW264668   6.436   3.536   7.710 -1.2474  0.0607  0.7824
19941SOL     OW64669   8.018   5.714   8.030 -0.5435  0.3759  0.2010
19941SOL    HW164670   8.104   5.716   8.073 -0.2632  0.5573 -0.3616
19941SOL    HW264671   7.982   5.801   8.046 -1.2416 -0.1634  1.6703
19942SOL     OW64672   6.119   6.368   7.451 -0.3096  0.2358  0.0844
19942SOL    HW164673   6.127   6.353   7.545 -1.0634 -1.6088 -0.0938
19942SOL    HW264674   6.209   6.372   7.419 -0.0526  0.9419  0.8804
19943SOL     OW64675   6.488   2.447   7.147  0.2806 -0.2264  0.4447
19943SOL    HW164676   6.555   2.422   7.083  1.6622 -0.7918  2.0563
19943SOL    HW264677   6.527   2.427   7.232 -0.9934  1.7254  1.5542
19944SOL     OW64678   5.513   6.043   0.675 -0.8839 -0.2516  0.5262
19944SOL    HW164679   5.505   5.964   0.621  0.8402  0.0301 -0.1989
19944SOL    HW264680   5.465   6.110   0.626  0.1650 -0.1432 -0.3784
19945SOL     OW64681   9.202   4.180   7.499  0.6304 -0.6897 -0.1482
19945SOL    HW164682   9.204   4.150   7.408  0.3831  1.3988 -0.8991
19945SOL    HW264683   9.280   4.235   7.508  0.2474 -0.2562  0.6598
19946SOL     OW64684   6.517   3.134   8.004 -0.5100 -0.1954  0.3234
19946SOL    HW164685   6.548   3.075   7.936  1.3813 -0.2272  1.1628
19946SOL    HW264686   6.442   3.088   8.043 -0.2578 -1.1519 -0.2931
19947SOL     OW64687   6.597   3.764   7.799  0.2758 -0.5278  0.0480
19947SOL    HW164688   6.593   3.856   7.771 -0.0241  0.0871  1.9494
19947SOL    HW264689   6.511   3.729   7.777 -0.9063  0.6753  2.4071
19948SOL     OW64690   7.498   7.040   8.038  0.0311  0.0714 -0.0426
19948SOL    HW164691   7.476   7.130   8.062 -1.7864 -1.0827  3.2688
19948SOL    HW264692   7.446   7.023   7.959 -0.0344  1.7374 -0.3818
19949SOL     OW64693   7.030   4.582   0.417 -0.0519  0.6832  0.5523
19949SOL    HW164694   6.997   4.503   0.461 -0.8055  1.4716  1.4411
19949SOL    HW264695   7.092   4.620   0.479  2.1184 -0.4077 -0.8228
19950SOL     OW64696   8.226   3.793   7.879  0.4935  0.0936  0.1934
19950SOL    HW164697   8.274   3.824   7.802  0.0432  1.4756  0.4245
19950SOL    HW264698   8.260   3.846   7.951  1.6027 -1.8592  1.1648
19951SOL     OW64699   8.136   6.419   8.664 -0.2064  0.4825  0.5196
19951SOL    HW164700   8.131   6.483   8.735  0.6069  1.5114 -0.3186
19951SOL    HW264701   8.220   6.376   8.676  1.4890  2.9126 -1.5975
19952SOL     OW64702   5.969   7.685   6.806  0.5487  0.1887 -0.5331
19952SOL    HW164703   5.931   7.637   6.732  1.3540 -0.9641 -0.2324
19952SOL    HW264704   6.017   7.757   6.764 -0.2816  0.4612 -1.0308
19953SOL     OW64705   7.804   2.960   8.584 -0.1220  0.2742  0.0725
19953SOL    HW164706   7.771   3.034   8.535  0.5773 -0.0948 -0.9743
19953SOL    HW264707   7.888   2.939   8.545 -0.6042 -1.5118 -0.1370
19954SOL     OW64708   7.960   4.786   1.566 -0.0437 -0.7649 -0.2958
19954SOL    HW164709   7.963   4.743   1.481 -0.8549  1.2725 -1.4206
19954SOL    HW264710   8.005   4.870   1.553 -1.2542  0.1244  0.9213
19955SOL     OW64711   6.968   3.860   9.564 -0.0189  0.3850  0.6085
19955SOL    HW164712   6.919   3.808   9.501  0.9786  0.8515 -0.6008
19955SOL    HW264713   6.970   3.807   9.643 -0.7998 -0.4809  0.0601
19956SOL     OW64714   7.451   1.886   7.246  0.3064 -0.0232 -0.0651
19956SOL    HW164715   7.482   1.869   7.335 -1.8323 -1.6783  0.4598
19956SOL    HW264716   7.417   1.975   7.249  1.5817  0.4646  0.3498
19957SOL     OW64717   9.378   4.697   0.799 -0.0612 -0.2441 -0.3462
19957SOL    HW164718   9.470   4.723   0.804  0.7717 -3.0954  2.5810
19957SOL    HW264719   9.342   4.718   0.885 -1.7665 -0.5528 -0.9355
19958SOL     OW64720   7.416   4.087   6.346 -0.3961 -0.2088  0.3660
19958SOL    HW164721   7.488   4.150   6.346  0.3850 -1.0934  0.6820
19958SOL    HW264722   7.347   4.131   6.295  0.5226  0.4622 -0.3473
19959SOL     OW64723   5.685   4.908   8.743  0.2849  0.0381 -0.2037
19959SOL    HW164724   5.687   4.906   8.647  1.9766 -2.7408 -0.2056
19959SOL    HW264725   5.748   4.977   8.766  2.0496 -1.1690 -1.1518
19960SOL     OW64726   5.532   4.526   8.000  0.4082 -0.4629  0.0938
19960SOL    HW164727   5.544   4.617   7.973  0.0307 -0.6781 -0.8643
19960SOL    HW264728   5.621   4.493   8.014  0.6225 -0.2794 -0.7485
19961SOL     OW64729   5.168   3.944   9.711  0.2991 -0.6019  0.6480
19961SOL    HW164730   5.178   4.033   9.676  1.2360 -0.4860  1.1875
19961SOL    HW264731   5.133   3.894   9.637  1.0349 -0.0724 -0.0825
19962SOL     OW64732   6.823   3.991   0.173 -0.1102 -0.6904 -0.0707
19962SOL    HW164733   6.740   4.017   0.212  0.5530 -1.6241  2.0812
19962SOL    HW264734   6.836   4.054   0.102 -2.2362 -0.0160  0.0612
19963SOL     OW64735   5.129   7.376   9.076  0.2936  0.2103  0.5225
19963SOL    HW164736   5.054   7.371   9.135 -1.6990  1.1576 -1.7914
19963SOL    HW264737   5.151   7.469   9.073 -0.8291  0.4692 -1.5276
19964SOL     OW64738   7.854   2.586   8.027  0.0716 -0.1183 -0.0304
19964SOL    HW164739   7.779   2.595   8.085 -0.8295 -3.2226 -0.5723
19964SOL    HW264740   7.923   2.551   8.083  0.1520 -0.2522 -0.2140
19965SOL     OW64741   7.116   5.451   8.714  0.2197 -0.0271 -0.0834
19965SOL    HW164742   7.066   5.461   8.795 -0.4282  0.0421 -0.4819
19965SOL    HW264743   7.206   5.470   8.739  0.0371 -0.0755  0.6347
19966SOL     OW64744   7.573   2.853   9.508 -0.0706 -0.1996 -0.0770
19966SOL    HW164745   7.621   2.782   9.464  0.1719  0.6145 -1.1719
19966SOL    HW264746   7.484   2.819   9.517  0.2988 -1.0680  0.4315
19967SOL     OW64747   9.111   5.906   0.415  0.0090  0.1221 -0.0060
19967SOL    HW164748   9.089   5.983   0.363 -0.9813  0.4188  0.8246
19967SOL    HW264749   9.125   5.837   0.351 -1.3085  0.4453 -0.6776
19968SOL     OW64750   6.582   4.978   9.403 -0.1300 -0.8095  0.3078
19968SOL    HW164751   6.675   4.999   9.399 -0.1637 -0.8201 -0.7376
19968SOL    HW264752   6.548   5.032   9.474  0.8764 -1.6461  1.4813
19969SOL     OW64753   7.477   6.464   6.117 -0.0115  0.3746 -0.0847
19969SOL    HW164754   7.400   6.461   6.059  1.3773 -2.9902 -2.0405
19969SOL    HW264755   7.545   6.419   6.068  2.5838  1.1760  2.5301
19970SOL     OW64756   6.808   5.108   9.765  0.3068  0.1529 -0.6732
19970SOL    HW164757   6.727   5.104   9.715  0.5215  0.6705 -1.0742
19970SOL    HW264758   6.787   5.162   9.841 -0.1552 -1.0444  0.0659
19971SOL     OW64759   0.750   6.828   9.137 -0.1986  0.2408 -0.2757
19971SOL    HW164760   0.664   6.788   9.121  0.1088 -0.4043 -0.3619
19971SOL    HW264761   0.754   6.902   9.076  0.1063 -0.9176 -1.7171
19972SOL     OW64762   7.896   5.395   6.934  0.0749  0.7220 -0.4831
19972SOL    HW164763   7.930   5.444   6.860 -1.4468  1.1767 -0.9135
19972SOL    HW264764   7.973   5.356   6.975  1.0488  1.4217 -1.6096
19973SOL     OW64765   6.805   1.705   7.676 -1.0017 -0.5922 -0.5948
19973SOL    HW164766   6.831   1.613   7.688 -0.1839 -0.2286  0.6345
19973SOL    HW264767   6.886   1.754   7.689 -1.4219  0.3048 -1.3139
19974SOL     OW64768   4.597   5.642   8.098  0.0859 -0.3380 -0.0294
19974SOL    HW164769   4.554   5.700   8.035  2.4756  2.1327  0.4154
19974SOL    HW264770   4.536   5.637   8.172 -0.3721  1.3237 -0.2569
19975SOL     OW64771   7.085   2.617   0.673 -0.3851 -0.0257  0.0546
19975SOL    HW164772   7.047   2.675   0.607 -2.7820 -0.8967  0.5933
19975SOL    HW264773   7.016   2.607   0.739  1.1899 -0.8298  1.6706
19976SOL     OW64774   1.014   4.254   8.110 -0.1180  0.0983  0.3710
19976SOL    HW164775   0.986   4.258   8.202  0.0417  4.9856  0.4599
19976SOL    HW264776   0.943   4.296   8.061  1.5905  1.4365 -1.0807
19977SOL     OW64777   6.195   2.569   8.238  0.0181 -0.6973  0.4644
19977SOL    HW164778   6.112   2.545   8.196 -0.9983  1.4382  1.1232
19977SOL    HW264779   6.172   2.587   8.329  0.5144  3.0274 -0.0127
19978SOL     OW64780   6.886   4.668   6.312  0.3117 -0.4152 -0.1331
19978SOL    HW164781   6.881   4.750   6.262  1.3589 -0.5778 -0.5293
19978SOL    HW264782   6.941   4.611   6.259 -0.6597 -1.5009 -0.0111
19979SOL     OW64783   8.974   3.972   9.538 -0.0330  0.0050  1.0472
19979SOL    HW164784   9.029   3.993   9.613  1.4353  0.4282 -0.0813
19979SOL    HW264785   8.940   4.057   9.509 -1.6276 -0.2930  1.9544
19980SOL     OW64786   9.711   4.886   8.500 -0.2333  0.1627 -0.2715
19980SOL    HW164787   9.692   4.962   8.554  0.1932  0.1151 -0.0489
19980SOL    HW264788   9.682   4.811   8.552 -1.2960  0.2028 -0.7780
19981SOL     OW64789   5.767   9.232   9.679 -0.0094 -0.0155 -0.5059
19981SOL    HW164790   5.728   9.213   9.593  0.2214 -1.1252 -0.3826
19981SOL    HW264791   5.847   9.180   9.681 -1.4177 -2.3058  1.4623
19982SOL     OW64792   8.029   3.437   9.210 -0.1526 -0.5364 -0.0986
19982SOL    HW164793   8.007   3.361   9.157  0.1654 -0.8975  0.2802
19982SOL    HW264794   8.097   3.406   9.269  0.5459  0.2624 -0.4728
19983SOL     OW64795   9.528   5.415   7.032  0.4456  0.1912 -0.3571
19983SOL    HW164796   9.474   5.374   6.965  0.0167  1.4029 -0.7671
19983SOL    HW264797   9.468   5.434   7.104  0.5931  0.3265 -0.2670
19984SOL     OW64798   5.607   1.274   0.043  0.1340 -0.7433 -0.1266
19984SOL    HW164799   5.622   1.200  -0.016 -0.8455 -2.0074  1.1243
19984SOL    HW264800   5.633   1.242   0.129  0.7515  0.7804  0.2897
19985SOL     OW64801   5.706   4.011   9.582  0.6052  0.0459 -0.0178
19985SOL    HW164802   5.765   4.086   9.575  1.9698 -1.1302 -2.3961
19985SOL    HW264803   5.619   4.049   9.597  1.2698  2.1021 -1.1019
19986SOL     OW64804   6.308   4.994   9.841 -0.1715  0.3324 -1.0199
19986SOL    HW164805   6.213   4.996   9.834 -0.1970 -0.7595 -1.0198
19986SOL    HW264806   6.330   5.074   9.890 -1.0135  0.9740 -1.6485
19987SOL     OW64807   8.356   6.172   8.494  0.1847 -0.2336 -0.0065
19987SOL    HW164808   8.374   6.236   8.425  0.4943 -0.7868 -0.4424
19987SOL    HW264809   8.261   6.171   8.501  0.0755 -1.1388 -1.3530
19988SOL     OW64810   4.092   3.111   9.019 -0.7715  0.3532  0.0184
19988SOL    HW164811   4.035   3.186   9.003  0.9351  1.4997 -1.0903
19988SOL    HW264812   4.098   3.067   8.934 -1.2570 -0.6895  0.5091
19989SOL     OW64813   7.213   5.740   8.155 -0.0443 -0.1982 -0.0548
19989SOL    HW164814   7.121   5.733   8.131  0.0141 -1.9234  0.1207
19989SOL    HW264815   7.254   5.787   8.082 -0.7425 -1.0462 -1.0217
19990SOL     OW64816   6.958   3.542   8.759 -0.9044 -0.1090  0.3539
19990SOL    HW164817   6.963   3.623   8.810  0.2542 -0.1019  0.2657
19990SOL    HW264818   7.041   3.497   8.777 -1.1271 -0.8206 -0.3309
19991SOL     OW64819   7.008   4.432   7.603  0.2246  0.2469  0.3405
19991SOL    HW164820   7.012   4.513   7.552  0.2661  0.2114  0.2871
19991SOL    HW264821   7.053   4.453   7.685  1.2454 -0.0511 -0.1234
19992SOL     OW64822   7.176   4.416   0.676  1.2693 -0.0830  0.5535
19992SOL    HW164823   7.238   4.434   0.606 -0.4392 -0.5545 -1.1557
19992SOL    HW264824   7.102   4.375   0.633 -1.4269  2.7960  2.0612
19993SOL     OW64825   7.045   4.564   6.867  0.5471 -0.8056  0.3549
19993SOL    HW164826   7.135   4.590   6.851  0.2760 -0.1936 -0.2434
19993SOL    HW264827   7.003   4.567   6.781 -0.2978 -0.0445  0.7643
19994SOL     OW64828   9.152   1.658   8.648  0.1056  0.2305  0.6891
19994SOL    HW164829   9.155   1.699   8.734  0.2122  0.3768  0.6148
19994SOL    HW264830   9.243   1.658   8.618  0.0882  0.0609  0.6329
19995SOL     OW64831   6.333   3.924   0.200  0.2182  0.0057  0.1745
19995SOL    HW164832   6.317   3.967   0.117 -2.7807  0.3017  0.7815
19995SOL    HW264833   6.369   3.838   0.177 -1.1337 -0.1550 -1.4703
19996SOL     OW64834   7.776   3.539   9.261 -0.6508  0.0699 -0.5843
19996SOL    HW164835   7.717   3.464   9.269  1.1054 -1.2523  1.0106
19996SOL    HW264836   7.863   3.499   9.248  0.6107  1.6523  2.0201
19997SOL     OW64837   4.875   3.882   8.195 -0.8793  0.6206 -0.1193
19997SOL    HW164838   4.872   3.956   8.135  1.5998  0.3910 -0.6544
19997SOL    HW264839   4.920   3.916   8.273  0.0071 -0.2066 -0.2464
19998SOL     OW64840   8.464   8.127   8.472  0.6557 -0.6480  0.0208
19998SOL    HW164841   8.371   8.125   8.448  0.7423 -1.6713 -0.2921
19998SOL    HW264842   8.505   8.182   8.405  0.3997 -0.8881 -0.3423
19999SOL     OW64843   5.084   3.171   6.970 -0.1643  0.3597 -0.1960
19999SOL    HW164844   5.130   3.245   6.930 -0.7721 -0.0164 -1.6696
19999SOL    HW264845   4.992   3.186   6.948 -0.8583  1.1541  2.7600
20000SOL     OW64846   7.061   1.676   7.973  0.2025  0.5262 -0.1289
20000SOL    HW164847   7.031   1.602   8.027 -1.9953  1.5153  0.1171
20000SOL    HW264848   7.050   1.645   7.883  1.1462 -0.1115 -0.0384
20001SOL     OW64849   6.445   4.516   8.989 -0.1658  0.7090  0.8392
20001SOL    HW164850   6.386   4.442   8.975  1.2964 -0.3289 -0.1532
20001SOL    HW264851   6.454   4.556   8.902  1.1171  0.3999  0.8066
20002SOL     OW64852   6.129   4.715   8.711 -0.0594 -0.2755  0.3844
20002SOL    HW164853   6.107   4.623   8.693 -0.2819 -0.0772 -0.3963
20002SOL    HW264854   6.115   4.760   8.627 -0.3003  0.5358  0.8488
20003SOL     OW64855   7.611   6.651   8.854  0.3956 -0.0341  0.0761
20003SOL    HW164856   7.634   6.566   8.891 -1.8165 -0.3823  0.7790
20003SOL    HW264857   7.607   6.710   8.930  0.8051  0.4633 -0.2752
20004SOL     OW64858   7.947   7.080   7.590 -0.2581  0.0035  0.3589
20004SOL    HW164859   8.040   7.103   7.581  0.1901 -1.9794 -0.7319
20004SOL    HW264860   7.946   7.013   7.658 -1.2790  1.7752  2.1910
20005SOL     OW64861   4.419   3.891   0.377  0.6496  0.4147  0.3921
20005SOL    HW164862   4.371   3.919   0.299  0.5900 -3.8549 -1.3737
20005SOL    HW264863   4.511   3.906   0.354  0.5726  0.3808  0.0532
20006SOL     OW64864   6.298   4.140   7.897  0.9108 -0.0604 -0.6924
20006SOL    HW164865   6.293   4.209   7.830  0.1066 -0.5424 -1.1424
20006SOL    HW264866   6.221   4.086   7.881  0.6049 -0.0754  0.7636
20007SOL     OW64867   3.589   4.867   6.947 -0.3349 -0.4968 -0.2081
20007SOL    HW164868   3.521   4.850   6.882  1.2287 -0.5937 -1.8922
20007SOL    HW264869   3.645   4.934   6.907 -2.0510  3.3498  3.0974
20008SOL     OW64870   4.354   5.519   8.639 -0.8334 -0.2436  0.4676
20008SOL    HW164871   4.316   5.606   8.624 -0.1628  0.2817  1.6016
20008SOL    HW264872   4.313   5.489   8.720 -0.0077 -0.3462  0.8592
20009SOL     OW64873   8.837   6.380   1.608  0.0734  0.1723  0.3107
20009SOL    HW164874   8.867   6.368   1.699  0.8499 -0.9146 -0.0717
20009SOL    HW264875   8.755   6.332   1.604 -0.0749  0.4027  0.4807
20010SOL     OW64876   8.361   2.990   8.888  0.1393 -0.6765 -0.1548
20010SOL    HW164877   8.428   3.001   8.956 -1.4439  0.3620  1.3278
20010SOL    HW264878   8.356   2.895   8.875  0.3228 -0.9251  1.3943
20011SOL     OW64879   5.447   2.301   8.352 -0.5343 -0.5573 -0.3309
20011SOL    HW164880   5.525   2.263   8.393  0.4499  0.6111 -1.0526
20011SOL    HW264881   5.381   2.231   8.357  1.2438 -2.4856 -1.7720
20012SOL     OW64882   5.736   4.221   8.523 -0.0911  0.0039 -0.0428
20012SOL    HW164883   5.825   4.244   8.551 -0.1218  0.1809 -0.0850
20012SOL    HW264884   5.746   4.138   8.478 -0.0750 -0.3965  0.6859
20013SOL     OW64885   6.769   3.043   0.503 -0.7174 -0.1256 -0.0584
20013SOL    HW164886   6.748   3.122   0.454 -2.0207 -0.3979  0.0231
20013SOL    HW264887   6.782   2.975   0.436 -1.3064 -0.2268 -0.0723
20014SOL     OW64888   7.505   3.732   8.990 -0.1743 -0.2643 -0.7335
20014SOL    HW164889   7.439   3.673   9.026  0.1540 -1.1993 -1.6102
20014SOL    HW264890   7.553   3.765   9.066 -0.6687 -0.7653 -0.1999
20015SOL     OW64891   8.451   5.032   9.750  0.0465 -0.3062  0.1046
20015SOL    HW164892   8.459   4.942   9.783 -1.4684 -0.6980 -0.4892
20015SOL    HW264893   8.541   5.058   9.730  0.5991 -1.4030  1.0056
20016SOL     OW64894   6.979   4.238   9.575  0.4783 -0.1414  0.4217
20016SOL    HW164895   6.985   4.259   9.668  1.0229 -0.8162  0.5465
20016SOL    HW264896   6.901   4.182   9.569  0.9547 -0.8339  0.6180
20017SOL     OW64897   5.907   5.779   0.333  0.3938  0.5398 -0.5657
20017SOL    HW164898   6.000   5.793   0.311  0.1618 -0.2254 -2.1368
20017SOL    HW264899   5.864   5.763   0.249 -1.1040  0.4657  0.1814
20018SOL     OW64900   6.374   4.627   2.354  0.0212  0.6834 -0.6987
20018SOL    HW164901   6.351   4.700   2.411  0.5410  0.3229 -0.0051
20018SOL    HW264902   6.428   4.570   2.410  0.4974  0.2986 -1.5392
20019SOL     OW64903   8.151   6.739   5.985 -0.1481  0.2035 -0.1170
20019SOL    HW164904   8.083   6.806   5.982  1.5995  2.3440  2.6176
20019SOL    HW264905   8.224   6.776   5.936 -0.2887 -1.3818 -1.6632
20020SOL     OW64906   3.743   3.251   8.813 -0.0143  0.1729  0.4504
20020SOL    HW164907   3.757   3.169   8.764  0.5378 -0.3391  1.4363
20020SOL    HW264908   3.736   3.318   8.745 -2.3940 -0.9160 -0.4727
20021SOL     OW64909   7.351   6.046   6.577 -0.0938  0.1234  0.5236
20021SOL    HW164910   7.375   6.132   6.541  0.2989 -0.3801 -0.4561
20021SOL    HW264911   7.340   6.061   6.671  2.0230  0.8213  0.6952
20022SOL     OW64912   6.486   3.329   8.901 -0.2077 -0.1050  0.4218
20022SOL    HW164913   6.493   3.422   8.881 -0.6824  0.2961  1.9632
20022SOL    HW264914   6.469   3.287   8.816 -2.3010  1.4711 -0.0242
20023SOL     OW64915   7.279   5.888   0.636 -0.2589  0.0890 -0.1928
20023SOL    HW164916   7.315   5.834   0.565 -1.5781 -1.0294 -0.0530
20023SOL    HW264917   7.194   5.849   0.655 -0.0894  0.5708  1.7737
20024SOL     OW64918   6.762   3.420   5.250 -0.2980  0.2486 -0.3317
20024SOL    HW164919   6.693   3.464   5.201  0.6766  1.1502 -0.9383
20024SOL    HW264920   6.786   3.345   5.197 -1.4050 -0.5908  0.3129
20025SOL     OW64921   7.000   3.752   9.834  0.1419 -0.4027  0.2589
20025SOL    HW164922   7.040   3.763   9.920 -1.1750 -1.5244  1.0552
20025SOL    HW264923   6.912   3.789   9.843  0.0189 -0.4444 -0.6374
20026SOL     OW64924   5.635   5.119   6.860  0.4835  0.3006 -0.1895
20026SOL    HW164925   5.626   5.134   6.766 -4.4719 -1.3205 -0.3011
20026SOL    HW264926   5.691   5.041   6.867 -0.1928 -0.4096 -1.9761
20027SOL     OW64927   7.144   3.603   9.623  0.3272 -0.0180  0.2872
20027SOL    HW164928   7.110   3.661   9.691  0.5486  1.3289 -0.7211
20027SOL    HW264929   7.073   3.540   9.608 -0.4129  0.7400  0.5380
20028SOL     OW64930   9.441   3.795   7.621  0.0907  0.3680  0.1935
20028SOL    HW164931   9.452   3.858   7.692  1.3134  0.9402 -0.4730
20028SOL    HW264932   9.527   3.754   7.611 -0.4240 -0.6843 -0.0555
20029SOL     OW64933   4.628   6.538   9.420  0.3568  0.1639 -0.2603
20029SOL    HW164934   4.578   6.466   9.459  1.0095 -0.4254 -0.4886
20029SOL    HW264935   4.626   6.607   9.486 -0.6062  0.0836 -0.1969
20030SOL     OW64936   8.157   6.138   7.427  0.4251 -0.2748 -0.5974
20030SOL    HW164937   8.216   6.070   7.393 -0.0438 -1.0528  0.1061
20030SOL    HW264938   8.187   6.152   7.517 -0.6265 -0.8776 -0.1406
20031SOL     OW64939   6.525   6.489   8.726  0.5865 -0.6079 -0.4374
20031SOL    HW164940   6.435   6.519   8.741  0.8392 -0.5447  1.1145
20031SOL    HW264941   6.573   6.569   8.703  0.2828 -0.6204 -1.1372
20032SOL     OW64942   0.072   3.529   9.624 -0.6942  0.2930  0.1316
20032SOL    HW164943   0.096   3.466   9.692  1.5976  0.0638 -0.8130
20032SOL    HW264944   0.146   3.589   9.619 -1.8779  1.7690 -0.5138
20033SOL     OW64945   8.761   4.426   5.720  0.2756 -0.2315  0.2369
20033SOL    HW164946   8.810   4.385   5.791  2.9844  0.3129 -1.1645
20033SOL    HW264947   8.823   4.488   5.681 -0.4277 -1.6796 -3.6316
20034SOL     OW64948   5.925   1.990   4.930 -0.3989 -0.1189 -0.2709
20034SOL    HW164949   5.880   2.054   4.984 -0.1945  0.8098 -1.1707
20034SOL    HW264950   5.856   1.928   4.905 -1.2546  1.3351 -1.7085
20035SOL     OW64951   6.629   3.369   8.074  0.0148  0.5809  0.1826
20035SOL    HW164952   6.709   3.332   8.112  0.5741  1.9899  0.4604
20035SOL    HW264953   6.581   3.293   8.040  1.0603 -0.3828  0.7709
20036SOL     OW64954   4.639   2.029   7.892 -0.1535  0.2244  0.5244
20036SOL    HW164955   4.705   1.986   7.947  1.0793  1.0097 -0.2775
20036SOL    HW264956   4.689   2.063   7.817 -1.2954  1.7391  0.3933
20037SOL     OW64957   5.394   7.243   7.416 -0.2132 -0.0380 -0.0369
20037SOL    HW164958   5.356   7.281   7.337 -0.6352 -1.7688 -0.7096
20037SOL    HW264959   5.406   7.318   7.475 -1.2075  1.0877 -1.1983
20038SOL     OW64960   8.314   3.356   7.817  0.0123 -0.2765 -0.0822
20038SOL    HW164961   8.316   3.437   7.868 -2.5007  0.3560 -0.8885
20038SOL    HW264962   8.331   3.384   7.727  0.7536 -0.9099 -0.1546
20039SOL     OW64963   6.887   3.123   7.540 -0.1343  0.1671 -0.1530
20039SOL    HW164964   6.818   3.087   7.484  1.0804 -0.9871 -0.9666
20039SOL    HW264965   6.944   3.049   7.558  0.8593  1.0769  0.5680
20040SOL     OW64966   7.128   5.298   7.174  0.1777  0.2708  0.3724
20040SOL    HW164967   7.035   5.277   7.165  0.2952 -0.2332  0.3222
20040SOL    HW264968   7.163   5.231   7.232  0.8106 -0.4118 -0.7661
20041SOL     OW64969   7.531   4.229   9.107  0.7286 -0.2664 -0.6166
20041SOL    HW164970   7.584   4.152   9.088  0.5942 -0.6962  0.6577
20041SOL    HW264971   7.442   4.203   9.084  0.4780 -0.9876  1.0508
20042SOL     OW64972   8.811   3.880   6.462  0.0582  0.0504 -0.0394
20042SOL    HW164973   8.756   3.837   6.527  1.3866 -1.8642 -0.0945
20042SOL    HW264974   8.894   3.894   6.507  0.3631  0.5320 -0.7321
20043SOL     OW64975   5.535   3.957   7.462  0.0168  0.3314 -0.0428
20043SOL    HW164976   5.573   4.014   7.395  1.1862 -0.9133 -0.4980
20043SOL    HW264977   5.490   3.888   7.413 -3.1808  1.8571  0.4819
20044SOL     OW64978   6.788   5.361   7.701  0.3793 -0.4535  0.2451
20044SOL    HW164979   6.725   5.371   7.773  0.3892  1.0116  0.0774
20044SOL    HW264980   6.809   5.451   7.675  1.6552 -0.9392 -0.4837
20045SOL     OW64981   6.029   4.102   8.561 -0.4055 -0.2190  0.4656
20045SOL    HW164982   6.061   4.068   8.477 -0.4780 -1.7385  1.0291
20045SOL    HW264983   6.089   4.066   8.626 -0.5525  0.6743  1.1111
20046SOL     OW64984   5.948   4.716   8.238  0.1272 -0.6884 -0.0772
20046SOL    HW164985   6.010   4.748   8.304 -0.8674  1.1507  0.0264
20046SOL    HW264986   5.945   4.785   8.172 -2.6160 -0.1349  0.4775
20047SOL     OW64987   4.205   5.542   9.841  0.0756 -0.9452  0.1606
20047SOL    HW164988   4.266   5.505   9.905 -1.1062 -0.6188  1.5238
20047SOL    HW264989   4.163   5.614   9.887 -2.3569 -2.0121 -0.2125
20048SOL     OW64990   6.728   3.577   9.709  0.4125  0.1411  0.8353
20048SOL    HW164991   6.651   3.522   9.726  2.0566 -1.7018  2.9823
20048SOL    HW264992   6.706   3.661   9.750 -0.5358 -0.2700  1.2209
20049SOL     OW64993   6.872   2.566   8.278  0.3541 -0.5295  0.1995
20049SOL    HW164994   6.783   2.561   8.312  1.4275  0.5816  3.5800
20049SOL    HW264995   6.926   2.523   8.344  2.4751 -0.0299 -1.1049
20050SOL     OW64996   8.124   5.298   7.043 -0.4598 -0.0000  0.2187
20050SOL    HW164997   8.128   5.207   7.075  0.6523  0.4760  1.5192
20050SOL    HW264998   8.155   5.350   7.116  0.7891  1.2846 -1.1624
20051SOL     OW64999   5.681   4.580   9.443 -0.2433  0.3775  0.1769
20051SOL    HW165000   5.746   4.519   9.408  0.3294  1.3265 -0.4460
20051SOL    HW265001   5.698   4.580   9.537 -0.4245 -0.6080  0.2258
20052SOL     OW65002   7.159   5.430   7.526  0.3357  0.1059 -0.1088
20052SOL    HW165003   7.131   5.345   7.559  1.1777  0.3156  1.2508
20052SOL    HW265004   7.199   5.473   7.602  1.3071  1.1063 -1.1473
20053SOL     OW65005   6.315   5.103   6.955 -0.1285 -0.1514 -0.2364
20053SOL    HW165006   6.353   5.038   7.014 -2.7460 -1.3885  0.2306
20053SOL    HW265007   6.251   5.150   7.008 -1.8841 -0.6493 -1.7784
20054SOL     OW65008   3.357   4.521   5.178 -0.0063  0.2468 -0.3034
20054SOL    HW165009   3.286   4.582   5.196 -0.7493 -0.5309 -0.5325
20054SOL    HW265010   3.406   4.561   5.106 -0.2505  0.7571 -0.1843
20055SOL     OW65011   4.163   5.550   7.099  0.1866 -0.1605 -0.4553
20055SOL    HW165012   4.242   5.597   7.126 -0.2308  0.2745  0.0507
20055SOL    HW265013   4.190   5.459   7.090  0.4765 -0.2277  0.9117
20056SOL     OW65014   7.842   4.936   8.298 -1.1332  0.2604  0.7246
20056SOL    HW165015   7.892   4.988   8.236 -0.5120 -1.1584  0.0108
20056SOL    HW265016   7.759   4.918   8.254 -0.1164 -2.0289 -0.3850
20057SOL     OW65017   6.764   3.801   6.343 -0.1428  0.2890 -0.2131
20057SOL    HW165018   6.819   3.765   6.273 -0.2832  0.0919 -0.2211
20057SOL    HW265019   6.682   3.824   6.299 -0.8376 -1.3350  0.1845
20058SOL     OW65020   9.543   7.057   7.254 -0.7922  0.4824 -0.1677
20058SOL    HW165021   9.578   7.022   7.172 -1.2548 -0.8561  0.1794
20058SOL    HW265022   9.454   7.084   7.232 -0.6550  0.8526 -0.2792
20059SOL     OW65023   7.824   5.510   9.818  0.3953  0.2440 -0.2225
20059SOL    HW165024   7.917   5.526   9.800  0.3647  0.5923 -0.0591
20059SOL    HW265025   7.798   5.447   9.750  1.6889 -2.8522  1.9097
20060SOL     OW65026   5.781   7.388   8.207 -0.1283  0.3966 -0.0483
20060SOL    HW165027   5.850   7.383   8.273  0.3469 -0.2283 -0.5884
20060SOL    HW265028   5.701   7.405   8.258  0.3560  0.7824  0.6067
20061SOL     OW65029   5.539   4.699   7.575  0.3861 -0.0082  0.0700
20061SOL    HW165030   5.490   4.774   7.610 -0.2651 -0.2575 -0.2905
20061SOL    HW265031   5.504   4.623   7.622  2.0976  0.0413  1.5489
20062SOL     OW65032   3.976   3.840   7.103  0.1446  0.7757  0.5779
20062SOL    HW165033   4.063   3.802   7.116  0.6685  1.7680  0.0705
20062SOL    HW265034   3.916   3.766   7.108  0.9126  0.1984  1.9704
20063SOL     OW65035   9.336   6.710   8.490  0.1906 -0.2635 -0.1876
20063SOL    HW165036   9.256   6.665   8.464  0.4795  0.5593 -2.7926
20063SOL    HW265037   9.406   6.648   8.469  0.3410 -0.3818  0.6298
20064SOL     OW65038   7.844   5.009   7.662 -0.4831  0.3833  0.2961
20064SOL    HW165039   7.870   5.060   7.739 -1.4530  1.5819 -0.1199
20064SOL    HW265040   7.924   4.966   7.633  0.0422  0.4485  1.5819
20065SOL     OW65041   7.783   5.026   0.345 -0.4094 -0.1185  0.1835
20065SOL    HW165042   7.784   4.971   0.266 -0.8167 -1.1153  0.8472
20065SOL    HW265043   7.823   4.971   0.412 -0.5191  0.5358  0.7902
20066SOL     OW65044   8.206   9.703   8.069 -0.6619  0.0788 -0.3022
20066SOL    HW165045   8.282   9.661   8.107 -0.5046  1.6764  1.2994
20066SOL    HW265046   8.131   9.665   8.116 -0.7433 -0.3750 -0.7899
20067SOL     OW65047   6.679   6.748   8.398 -0.3541 -0.1435  0.2035
20067SOL    HW165048   6.697   6.842   8.389  1.6801 -0.2888  1.9438
20067SOL    HW265049   6.680   6.733   8.493 -1.8197 -1.7558  0.0084
20068SOL     OW65050   6.379   4.063   8.150  0.0380 -0.2271  0.5400
20068SOL    HW165051   6.406   3.972   8.148  1.7778  0.2722  0.2520
20068SOL    HW265052   6.350   4.082   8.061  1.9006  0.1231 -0.0162
20069SOL     OW65053   5.092   3.410   8.128  0.5505  0.1764  0.1780
20069SOL    HW165054   5.179   3.414   8.168 -0.2034  0.0849  1.9239
20069SOL    HW265055   5.097   3.336   8.067  1.7387  0.2830  0.1205
20070SOL     OW65056   6.643   4.053   7.243  0.3275  0.4459  0.0632
20070SOL    HW165057   6.683   3.985   7.297 -0.7349  0.8448  1.4096
20070SOL    HW265058   6.713   4.118   7.231  0.8497 -0.0870  0.1617
20071SOL     OW65059   8.072   3.376   6.403 -0.0441 -0.1022 -0.0171
20071SOL    HW165060   8.152   3.394   6.452  0.3538 -0.5619 -0.4827
20071SOL    HW265061   8.099   3.378   6.311  0.0569 -2.9066 -0.1561
20072SOL     OW65062   4.139   3.527   8.624 -0.0022 -0.1362  0.0735
20072SOL    HW165063   4.160   3.591   8.692  1.8017  2.7102 -2.8746
20072SOL    HW265064   4.196   3.452   8.643  0.9221  0.8402  1.3379
20073SOL     OW65065   6.365   2.649   8.026  0.0918 -0.2000 -0.2308
20073SOL    HW165066   6.305   2.627   8.098  0.6238  0.3633  0.3940
20073SOL    HW265067   6.447   2.605   8.048  0.0041 -0.7674 -0.9646
20074SOL     OW65068   3.999   5.563   8.042 -0.3473  0.4418  0.7521
20074SOL    HW165069   4.028   5.524   7.960  0.9326 -1.8426  2.1560
20074SOL    HW265070   4.016   5.495   8.108  0.4759  2.8038  3.2002
20075SOL     OW65071   6.326   5.065   9.541 -0.2140 -0.0297 -0.1226
20075SOL    HW165072   6.347   5.120   9.616 -0.0688  2.9397 -2.1899
20075SOL    HW265073   6.231   5.050   9.548 -0.1409 -0.1544  0.8224
20076SOL     OW65074   5.938   3.274   5.640 -0.3952  0.0510 -0.0472
20076SOL    HW165075   5.854   3.233   5.657 -0.9982  0.8205 -1.0677
20076SOL    HW265076   5.975   3.291   5.727 -0.7982 -1.2547  0.3968
20077SOL     OW65077   8.919   4.674   0.189  0.5240  0.5364 -0.4329
20077SOL    HW165078   8.995   4.660   0.133 -0.9648  2.2442 -3.0745
20077SOL    HW265079   8.849   4.624   0.148  0.2172 -1.5254  2.2984
20078SOL     OW65080   7.733   0.056   6.115  0.2408 -0.2293  0.3501
20078SOL    HW165081   7.727   0.150   6.102  0.7520 -0.5388 -2.8442
20078SOL    HW265082   7.827   0.038   6.119  0.1605 -0.6992  0.2045
20079SOL     OW65083   4.207   3.466   9.049  0.8508  0.4002  0.1311
20079SOL    HW165084   4.175   3.546   9.090  1.4263  0.4252  0.5438
20079SOL    HW265085   4.132   3.406   9.053  0.5003  0.8254  0.0527
20080SOL     OW65086   7.967   4.879   9.107 -0.3256  0.0966  0.0173
20080SOL    HW165087   7.951   4.800   9.056 -1.0652 -0.3257  0.8788
20080SOL    HW265088   8.044   4.920   9.066 -0.4125 -0.6572 -0.9050
20081SOL     OW65089   7.837   3.778   7.648  0.4150  0.4384 -0.6715
20081SOL    HW165090   7.757   3.745   7.691  0.4282 -1.1931 -1.8110
20081SOL    HW265091   7.905   3.765   7.714  0.1169 -0.2904 -0.4851
20082SOL     OW65092   4.840   5.493   9.089  0.1300  0.3400 -0.2546
20082SOL    HW165093   4.867   5.503   9.181 -0.3962  0.2652 -0.0879
20082SOL    HW265094   4.746   5.512   9.090 -0.2262 -1.2811 -0.5071
20083SOL     OW65095   9.228   2.990   7.982 -0.0792  0.4076 -0.3668
20083SOL    HW165096   9.206   2.951   8.067 -0.4418 -0.1965 -0.7354
20083SOL    HW265097   9.323   2.982   7.976 -0.0022  0.8292  0.1614
20084SOL     OW65098   3.031   5.625   0.473  0.4095 -0.5848  0.7023
20084SOL    HW165099   3.001   5.710   0.504  4.9850  1.0280  1.4460
20084SOL    HW265100   2.997   5.618   0.384 -2.3430  0.6454  1.5685
20085SOL     OW65101   5.326   6.697   9.437  0.3320  0.4409 -0.3944
20085SOL    HW165102   5.409   6.691   9.485 -0.0512 -3.6007  0.1540
20085SOL    HW265103   5.340   6.642   9.359 -1.7435 -0.2396 -0.3440
20086SOL     OW65104   6.195   2.061   9.021  0.2693 -0.2196 -0.2237
20086SOL    HW165105   6.220   2.099   9.105  0.3233  0.1464 -0.4032
20086SOL    HW265106   6.221   2.127   8.956 -0.8676  0.0392 -0.4376
20087SOL     OW65107   6.991   6.272   8.645 -0.2085 -0.7195  0.1031
20087SOL    HW165108   7.002   6.270   8.740  0.6512  2.6778  0.2053
20087SOL    HW265109   6.921   6.210   8.627 -1.0223 -0.7973  3.0674
20088SOL     OW65110   7.606   2.428   0.847  0.1323 -0.5166  0.0324
20088SOL    HW165111   7.690   2.382   0.854 -0.1348 -0.9289  0.6569
20088SOL    HW265112   7.568   2.396   0.765 -0.2066 -1.7091  0.6248
20089SOL     OW65113   8.023   3.314   8.538 -0.4330 -0.0330  0.3699
20089SOL    HW165114   7.936   3.297   8.576 -1.7682  1.0534 -1.9901
20089SOL    HW265115   8.023   3.408   8.521  0.5861 -0.2675 -1.0758
20090SOL     OW65116   5.522   5.589   9.576  0.1493  0.4284  0.0021
20090SOL    HW165117   5.581   5.518   9.550  1.4287  1.3994  0.1161
20090SOL    HW265118   5.497   5.631   9.494  1.8339  1.6745  0.0603
20091SOL     OW65119   5.962   3.072   0.396  0.2739 -1.0422  0.0518
20091SOL    HW165120   6.013   3.150   0.418 -0.5031 -0.5583  0.1737
20091SOL    HW265121   6.024   2.999   0.408  0.7336 -0.5395  0.8973
20092SOL     OW65122   6.463   4.591   6.868 -0.4057  0.0586 -0.3257
20092SOL    HW165123   6.499   4.509   6.902 -2.0297  0.2405  2.0744
20092SOL    HW265124   6.514   4.659   6.912 -0.0870  0.3381 -1.1215
20093SOL     OW65125   6.237   6.092   8.534  0.2671  0.5291  0.4512
20093SOL    HW165126   6.152   6.135   8.525  1.2432  2.6198  0.8363
20093SOL    HW265127   6.240   6.064   8.626  0.0370  0.5075  0.4530
20094SOL     OW65128   6.790   3.643   0.151  0.3440 -0.5861  0.7166
20094SOL    HW165129   6.731   3.716   0.132 -1.3524 -2.3633 -1.4007
20094SOL    HW265130   6.755   3.604   0.231  0.5269  0.1676  1.1722
20095SOL     OW65131   6.949   5.182   8.551  0.6214  0.1541 -0.2965
20095SOL    HW165132   6.885   5.248   8.577  2.5495  1.8517  0.4335
20095SOL    HW265133   6.982   5.147   8.633  0.0966 -1.2832 -0.6735
20096SOL     OW65134   6.572   4.009   8.333  0.3778  0.3408  0.3342
20096SOL    HW165135   6.630   3.946   8.291  0.7708  0.0910  1.2343
20096SOL    HW265136   6.528   4.053   8.261  1.2431  0.1149 -0.3372
20097SOL     OW65137   5.380   4.089   7.635 -0.1891 -0.0777  0.0085
20097SOL    HW165138   5.449   4.030   7.604  0.2454 -0.9387  2.4096
20097SOL    HW265139   5.347   4.048   7.715 -3.4317  0.3974 -0.9547
20098SOL     OW65140   8.377   4.803   1.106  0.4291 -0.2102 -0.1977
20098SOL    HW165141   8.463   4.834   1.134  1.2032 -2.2553 -0.1145
20098SOL    HW265142   8.316   4.837   1.171  1.7389 -2.0507  2.1344
20099SOL     OW65143   7.083   5.838   8.432 -0.0016 -0.1680  0.1708
20099SOL    HW165144   7.165   5.816   8.388  1.2779  1.2801  1.6761
20099SOL    HW265145   7.057   5.922   8.393 -0.5713 -0.4462 -0.0505
20100SOL     OW65146   8.043   6.301   6.005 -0.4586 -0.3072  0.2767
20100SOL    HW165147   7.996   6.355   5.941  0.4319  0.7767  0.5146
20100SOL    HW265148   8.095   6.364   6.056  2.1591 -1.5372 -0.7090
20101SOL     OW65149   6.778   4.179   1.177 -0.2582  0.5655 -0.0894
20101SOL    HW165150   6.728   4.146   1.102 -0.3444 -0.6928  0.4892
20101SOL    HW265151   6.804   4.268   1.152 -0.7125  0.3508 -1.3915
20102SOL     OW65152   5.195   5.544   7.768 -0.2305  0.0866 -0.6325
20102SOL    HW165153   5.238   5.550   7.853 -2.0619  2.0444  0.2663
20102SOL    HW265154   5.218   5.626   7.724  2.2669 -1.6929 -2.9338
20103SOL     OW65155   6.650   5.968   7.132 -0.1916  0.5042 -0.5278
20103SOL    HW165156   6.640   5.885   7.085  1.6913 -0.1421  0.1471
20103SOL    HW265157   6.692   6.026   7.069  0.2225  0.3515 -0.3945
20104SOL     OW65158   7.575   2.304   8.412  0.1638  0.3303  0.0585
20104SOL    HW165159   7.643   2.365   8.382  1.1757 -0.1578  1.2286
20104SOL    HW265160   7.602   2.219   8.376 -0.3976  0.3056 -0.3115
20105SOL     OW65161   7.331   3.113   8.487 -0.3048 -0.5117 -0.3586
20105SOL    HW165162   7.378   3.136   8.568  1.5409 -0.7015 -1.3362
20105SOL    HW265163   7.263   3.181   8.479  0.0822  0.0460  0.8535
20106SOL     OW65164   7.286   5.047   9.032 -0.5819  0.3849  0.0508
20106SOL    HW165165   7.222   5.118   9.041 -0.2803  0.6703 -0.0268
20106SOL    HW265166   7.355   5.069   9.095 -0.8388 -0.2275  0.5501
20107SOL     OW65167   5.717   3.750   9.709 -0.2005  0.6688 -0.9109
20107SOL    HW165168   5.697   3.839   9.682 -1.2405  0.5705 -0.5007
20107SOL    HW265169   5.637   3.700   9.692  0.0508  0.0190 -0.2616
20108SOL     OW65170   4.443   8.769   6.615  0.3952 -0.2433 -0.9634
20108SOL    HW165171   4.500   8.737   6.684 -0.7439 -0.5267 -0.1365
20108SOL    HW265172   4.500   8.823   6.560  0.5157  3.8665  2.6726
20109SOL     OW65173   9.435   4.346   7.197 -0.0305 -0.3365 -0.3941
20109SOL    HW165174   9.422   4.440   7.181 -0.0364 -0.2586  0.0509
20109SOL    HW265175   9.503   4.343   7.265  1.8165 -0.7047 -2.1609
20110SOL     OW65176   7.751   3.347   7.666 -0.1828  0.0360  0.2814
20110SOL    HW165177   7.778   3.319   7.754  1.4535 -1.7457 -0.7120
20110SOL    HW265178   7.809   3.420   7.645  0.2317 -0.3055  0.2337
20111SOL     OW65179   5.594   4.116   0.127 -0.4548  0.1585  0.1330
20111SOL    HW165180   5.524   4.166   0.085 -0.5923 -1.6987 -2.0060
20111SOL    HW265181   5.553   4.033   0.151  0.2058  0.3234  2.0586
20112SOL     OW65182   5.698   6.637   9.409  0.0399  0.5400  0.4390
20112SOL    HW165183   5.648   6.718   9.410  1.6543  1.5818 -0.2137
20112SOL    HW265184   5.757   6.644   9.484  0.2777  0.0217  0.3050
20113SOL     OW65185   8.077   4.216   9.659  0.2846  0.3674  0.0440
20113SOL    HW165186   8.164   4.187   9.632  0.8535 -0.1354  2.2084
20113SOL    HW265187   8.027   4.135   9.670 -0.3105  0.6252 -0.6524
20114SOL     OW65188   8.237   4.352   1.112  0.0841  0.2492  0.3046
20114SOL    HW165189   8.284   4.270   1.100 -0.4628 -0.0026 -0.2278
20114SOL    HW265190   8.303   4.420   1.101  0.7496 -0.1297  1.8104
20115SOL     OW65191   6.420   1.602   8.645 -0.0572  0.0427 -1.1100
20115SOL    HW165192   6.343   1.634   8.692  1.1360 -2.0315  2.6674
20115SOL    HW265193   6.395   1.515   8.615  0.2234  0.1250 -1.5893
20116SOL     OW65194   6.711   5.595   7.982  0.4599  0.2860  0.0474
20116SOL    HW165195   6.662   5.558   8.055 -0.4963 -0.7449 -1.0786
20116SOL    HW265196   6.725   5.522   7.922 -0.5944  1.4862 -1.7561
20117SOL     OW65197   5.140   5.778   6.957  0.3940  0.1559  0.0317
20117SOL    HW165198   5.129   5.696   7.005  2.6755  1.0092  2.2214
20117SOL    HW265199   5.052   5.816   6.955 -0.3048 -1.3019  0.9746
20118SOL     OW65200   5.919   5.944   9.183 -0.1141 -0.0806  0.4234
20118SOL    HW165201   5.919   6.004   9.258  0.9890 -0.2336  0.5632
20118SOL    HW265202   5.961   5.865   9.215  1.2894  0.2026 -0.6018
20119SOL     OW65203   6.405   2.671   0.497  0.0101 -0.0834  0.0146
20119SOL    HW165204   6.396   2.716   0.413  1.8908 -1.7345 -1.1908
20119SOL    HW265205   6.499   2.675   0.516  0.4412 -3.8750 -0.5304
20120SOL     OW65206   6.385   3.877   0.743  0.4258 -0.3003 -0.4624
20120SOL    HW165207   6.311   3.869   0.802  0.2781  1.2425 -0.4148
20120SOL    HW265208   6.362   3.947   0.683  1.3677 -0.5697 -1.1756
20121SOL     OW65209   7.517   3.270   0.976  0.6689 -0.2534 -0.0775
20121SOL    HW165210   7.427   3.242   0.990  0.8474 -0.1799  1.3736
20121SOL    HW265211   7.554   3.203   0.918  0.4341 -1.8291  1.5047
20122SOL     OW65212   4.011   3.993   9.275  0.2021 -0.3350  0.1877
20122SOL    HW165213   4.027   3.923   9.339  3.7521 -0.3474 -0.5103
20122SOL    HW265214   4.095   4.004   9.230 -0.3314  3.9491 -0.1868
20123SOL     OW65215   7.734   7.138   0.707  0.4432 -0.0274  0.4823
20123SOL    HW165216   7.724   7.054   0.663 -1.5348  0.5710 -0.3353
20123SOL    HW265217   7.676   7.132   0.783 -0.3016  0.8233  0.0087
20124SOL     OW65218   5.084   4.155   9.326  0.4661 -0.5610  0.1991
20124SOL    HW165219   5.142   4.110   9.264  0.3077 -0.6279  0.1010
20124SOL    HW265220   5.144   4.205   9.382  0.8177 -2.3940  1.5594
20125SOL     OW65221   5.526   3.857   0.264  0.1124  0.0332  0.5036
20125SOL    HW165222   5.468   3.781   0.269  0.8392 -0.4578  2.3678
20125SOL    HW265223   5.507   3.907   0.344  3.1513 -0.8748  1.9398
20126SOL     OW65224   6.843   5.348   9.504  1.2253  0.2105 -0.4558
20126SOL    HW165225   6.828   5.405   9.580 -1.3189  0.1821 -0.8248
20126SOL    HW265226   6.916   5.293   9.529  0.5246  0.2683  1.9783
20127SOL     OW65227   4.924   3.129   5.691  0.5499  0.6197  0.7848
20127SOL    HW165228   4.849   3.099   5.639  1.1640 -3.3298  1.8268
20127SOL    HW265229   4.885   3.155   5.775  0.1894 -0.2238  0.8918
20128SOL     OW65230   8.247   5.025   8.200 -0.2190  0.4052 -0.1260
20128SOL    HW165231   8.273   5.078   8.276  0.6306  0.8855 -0.7362
20128SOL    HW265232   8.263   5.082   8.125  0.2434 -0.5484 -0.7656
20129SOL     OW65233   4.957   3.966   8.434  0.5515  0.2569 -0.6248
20129SOL    HW165234   4.947   4.023   8.510 -0.7091  0.0019 -0.5780
20129SOL    HW265235   4.991   3.884   8.470 -1.6284 -0.4436 -0.0580
20130SOL     OW65236   7.279   5.586   8.910  0.2602 -0.6489  0.0009
20130SOL    HW165237   7.302   5.627   8.994 -1.8162 -0.4317  0.5223
20130SOL    HW265238   7.277   5.659   8.848 -1.4877 -0.2111  0.5141
20131SOL     OW65239   5.484   5.295   1.589  0.1652  0.0182 -0.7577
20131SOL    HW165240   5.416   5.362   1.587  1.2858  1.3215  1.0430
20131SOL    HW265241   5.438   5.215   1.613 -0.6018  1.2802  2.6447
20132SOL     OW65242   5.880   5.081   8.763  0.0316  0.3905 -0.3392
20132SOL    HW165243   5.940   5.079   8.837 -0.4581 -2.6078  0.1048
20132SOL    HW265244   5.912   5.153   8.708  2.2340  0.7485  1.2773
20133SOL     OW65245   5.749   5.348   1.190  0.1556  0.0933  0.2164
20133SOL    HW165246   5.658   5.321   1.199 -0.6512  2.6782  0.6009
20133SOL    HW265247   5.795   5.303   1.260 -1.2164  0.2511  1.2462
20134SOL     OW65248   7.677   4.934   8.073 -0.5461  0.0032 -0.0056
20134SOL    HW165249   7.746   4.951   8.009  0.0472 -2.8291 -0.2565
20134SOL    HW265250   7.596   4.932   8.021 -0.2410 -0.8706 -0.4718
20135SOL     OW65251   5.639   1.732   0.170  0.0544 -0.5782  0.1675
20135SOL    HW165252   5.653   1.736   0.264  0.3929  0.0040  0.0931
20135SOL    HW265253   5.565   1.671   0.160 -0.1485 -0.4525  0.8227
20136SOL     OW65254   4.731   3.119   2.201  0.8405 -0.4065 -0.4147
20136SOL    HW165255   4.683   3.156   2.275 -1.3856 -3.2189 -0.2702
20136SOL    HW265256   4.780   3.046   2.239  1.2852 -0.6302 -1.4013
20137SOL     OW65257   6.462   4.331   6.433  0.6193 -0.3164  0.2272
20137SOL    HW165258   6.479   4.239   6.454 -0.2246 -0.4027  0.6024
20137SOL    HW265259   6.428   4.330   6.344  1.3666 -0.2755 -0.0640
20138SOL     OW65260   6.721   4.788   1.018 -0.4608 -0.6228 -0.4121
20138SOL    HW165261   6.812   4.777   0.992 -0.9303 -1.7050 -1.7550
20138SOL    HW265262   6.691   4.864   0.968  0.3665  1.4883  2.0747
20139SOL     OW65263   5.061   7.020   0.645 -0.3740  0.0797  0.5949
20139SOL    HW165264   5.021   7.101   0.612 -1.4912 -0.2472  1.0945
20139SOL    HW265265   4.991   6.976   0.693  0.1014 -1.3941 -0.0042
20140SOL     OW65266   5.970   4.519   8.585  0.3919 -0.3428 -0.0420
20140SOL    HW165267   6.033   4.476   8.527 -2.2026 -1.3407 -2.3256
20140SOL    HW265268   5.932   4.588   8.531 -0.8490 -0.1114  1.0822
20141SOL     OW65269   5.661   5.026   0.109 -0.0366 -0.1836 -0.0856
20141SOL    HW165270   5.649   5.005   0.201  1.5521 -0.1727  0.1557
20141SOL    HW265271   5.685   4.943   0.068  0.8798  0.1087 -0.1642
20142SOL     OW65272   6.332   5.209   8.342  0.1956  0.4884 -0.2576
20142SOL    HW165273   6.325   5.281   8.405  1.0323 -0.4034  0.9146
20142SOL    HW265274   6.420   5.220   8.304  0.4627 -0.0815  0.1744
20143SOL     OW65275   6.768   4.056   9.549 -0.5683  0.0496  0.0158
20143SOL    HW165276   6.767   4.070   9.455 -2.6296  0.3707  0.0354
20143SOL    HW265277   6.829   3.983   9.562  0.4332  0.5744 -1.4371
20144SOL     OW65278   9.304   6.120   8.403  0.4340 -0.5260  0.1933
20144SOL    HW165279   9.377   6.079   8.450  1.6020  1.3474  0.1271
20144SOL    HW265280   9.270   6.185   8.464  0.9518  0.8475 -0.9251
20145SOL     OW65281   5.454   3.637   9.696 -0.2176  0.2433 -0.2348
20145SOL    HW165282   5.478   3.545   9.685 -0.7050  0.2252 -1.2777
20145SOL    HW265283   5.363   3.635   9.726  0.9721  0.3003  4.0208
20146SOL     OW65284   6.206   4.343   7.686  0.0870  0.2666  0.4323
20146SOL    HW165285   6.130   4.306   7.732  0.9405 -0.1514  1.5507
20146SOL    HW265286   6.208   4.435   7.712 -0.6698  0.5653 -0.4949
20147SOL     OW65287   6.011   4.275   0.624 -0.1919 -0.0494 -0.0634
20147SOL    HW165288   5.940   4.306   0.680  0.9639 -1.6102  2.4618
20147SOL    HW265289   6.061   4.353   0.602 -2.2660  0.9923 -1.3961
20148SOL     OW65290   7.610   3.980   9.676 -0.3444 -0.4274 -0.4937
20148SOL    HW165291   7.692   3.944   9.710 -0.4549  0.5725  0.9089
20148SOL    HW265292   7.555   3.903   9.662 -0.7509 -0.8890  2.8731
20149SOL     OW65293   6.934   4.682   7.993 -0.0867  0.5807  0.2516
20149SOL    HW165294   6.937   4.596   8.037  1.8162  0.8741  0.8086
20149SOL    HW265295   6.866   4.673   7.926 -0.3598 -1.1543  0.7127
20150SOL     OW65296   7.886   4.856   0.568 -0.5055 -0.1110 -0.2663
20150SOL    HW165297   7.930   4.783   0.611  1.3653  0.9360 -0.2686
20150SOL    HW265298   7.798   4.857   0.606  0.3756 -0.5427  1.9834
20151SOL     OW65299   8.276   1.982   9.785  0.7621  0.1768 -0.2462
20151SOL    HW165300   8.279   2.058   9.727  0.1072  0.3556 -0.0464
20151SOL    HW265301   8.359   1.986   9.834  0.9003  0.5425 -0.5055
20152SOL     OW65302   3.687   5.754   9.394 -0.9011 -0.2238  0.0830
20152SOL    HW165303   3.781   5.740   9.379 -0.9355  0.1035 -0.4574
20152SOL    HW265304   3.676   5.849   9.393 -1.4559 -0.2730 -1.3336
20153SOL     OW65305   6.657   6.258   8.220  0.5591 -0.6701 -0.2179
20153SOL    HW165306   6.674   6.320   8.291  1.2694 -1.1514  0.0396
20153SOL    HW265307   6.673   6.309   8.140 -2.3017  0.5218 -0.1660
20154SOL     OW65308   2.490   4.042   1.790  0.1258 -0.0365  0.3677
20154SOL    HW165309   2.400   4.021   1.766  0.6399 -1.0077 -0.7732
20154SOL    HW265310   2.523   3.963   1.831  1.0260 -0.3581 -0.9129
20155SOL     OW65311   6.804   5.442   9.778 -0.0828  0.2801 -0.8737
20155SOL    HW165312   6.751   5.511   9.737 -0.7137 -0.1653 -0.8110
20155SOL    HW265313   6.777   5.442   9.870  0.2859  0.2957 -0.7657
20156SOL     OW65314   7.018   3.011   6.493  0.2754  0.0481 -0.4571
20156SOL    HW165315   7.091   2.965   6.535 -0.1132 -0.6758 -0.5715
20156SOL    HW265316   6.998   3.083   6.553  0.2585 -0.4937  0.1969
20157SOL     OW65317   9.060   4.393   7.997  0.3711 -0.1412 -0.2899
20157SOL    HW165318   9.025   4.477   7.967  1.7348  0.2207 -0.9319
20157SOL    HW265319   9.041   4.332   7.926  1.8140  0.2621 -1.0482
20158SOL     OW65320   5.057   4.987   2.442 -0.0963 -0.2045 -0.0963
20158SOL    HW165321   5.090   4.978   2.352  1.3256  1.6215  0.1904
20158SOL    HW265322   5.131   5.021   2.491 -1.5832  1.2383  1.2376
20159SOL     OW65323   6.155   2.443   9.079  0.1738 -0.0950 -1.1187
20159SOL    HW165324   6.166   2.527   9.035 -1.8912  1.1531  0.5588
20159SOL    HW265325   6.226   2.439   9.143  0.5331  0.1453 -1.4996
20160SOL     OW65326   8.755   2.194   7.477 -0.0690  0.2381  0.0779
20160SOL    HW165327   8.679   2.212   7.423 -0.8841  1.3057  1.5218
20160SOL    HW265328   8.824   2.252   7.442 -0.2283  0.0535 -0.5476
20161SOL     OW65329   6.365   2.799   0.251  0.2017  0.0201 -0.7041
20161SOL    HW165330   6.302   2.808   0.180  0.8034 -1.4407 -1.4642
20161SOL    HW265331   6.449   2.827   0.214  0.3895 -0.0933 -0.3780
20162SOL     OW65332   9.341   5.097   0.282  0.0780  0.2387 -0.7150
20162SOL    HW165333   9.320   5.166   0.219 -2.4895  0.6012  0.4113
20162SOL    HW265334   9.388   5.143   0.352  0.2537  0.4172 -0.9453
20163SOL     OW65335   7.590   3.910   0.261 -0.5188 -0.0799  0.2856
20163SOL    HW165336   7.576   4.005   0.257 -0.1834 -0.0382  0.0387
20163SOL    HW265337   7.517   3.877   0.312 -0.1497  0.4174  1.1593
20164SOL     OW65338   3.014   3.736   9.226  0.3564  0.1053 -0.2136
20164SOL    HW165339   3.050   3.755   9.312  0.0627  1.5540 -0.3844
20164SOL    HW265340   2.920   3.752   9.235  0.5509  2.2672 -1.2515
20165SOL     OW65341   8.008   3.114   9.657  0.0971  0.7229  0.6427
20165SOL    HW165342   8.028   3.179   9.591  1.5597 -1.7034 -1.5047
20165SOL    HW265343   7.938   3.152   9.709 -1.8619  2.4140 -2.9065
20166SOL     OW65344   7.570   4.821   0.636  0.5605  0.0453 -0.3592
20166SOL    HW165345   7.505   4.822   0.706  3.3557  0.3254  2.4481
20166SOL    HW265346   7.537   4.757   0.573 -2.0055 -0.3743  1.2881
20167SOL     OW65347   9.105   6.060   8.160 -0.2253  0.8894  0.0051
20167SOL    HW165348   9.020   6.073   8.202 -0.5108  2.0037 -0.8757
20167SOL    HW265349   9.169   6.071   8.231 -0.8114 -1.3301  0.9799
20168SOL     OW65350   5.994   5.543   0.090 -0.0543  0.1842 -0.1881
20168SOL    HW165351   6.022   5.455   0.065  0.7810  0.0822  1.0015
20168SOL    HW265352   5.930   5.568   0.023 -1.8879 -2.1373  0.5511
20169SOL     OW65353   7.222   5.574   7.730 -0.5808  0.5561  0.1550
20169SOL    HW165354   7.132   5.599   7.751 -0.2146  0.9115  1.3653
20169SOL    HW265355   7.274   5.652   7.750  0.1133  0.0521  0.3492
20170SOL     OW65356   5.452   4.440   0.772  0.1567 -0.2119 -0.6572
20170SOL    HW165357   5.433   4.347   0.786 -1.5290  0.3005  0.7386
20170SOL    HW265358   5.480   4.472   0.857  1.2273  0.4812 -1.2444
20171SOL     OW65359   7.649   3.422   8.112  0.0747  0.4976 -0.0282
20171SOL    HW165360   7.662   3.421   8.207  0.6476 -0.2550 -0.1008
20171SOL    HW265361   7.647   3.514   8.088 -0.6096  0.7036  0.7818
20172SOL     OW65362   5.946   5.688   2.804  0.4474 -0.6900 -0.0166
20172SOL    HW165363   5.919   5.684   2.712 -0.3089 -2.0160  0.2431
20172SOL    HW265364   5.990   5.773   2.812  1.1050 -0.8230 -1.7459
20173SOL     OW65365   5.972   3.492   6.521 -0.1530  0.4550 -0.2539
20173SOL    HW165366   5.988   3.552   6.593  1.9240 -0.3866  0.0603
20173SOL    HW265367   5.954   3.408   6.563  1.6097 -0.1664 -0.6481
20174SOL     OW65368   5.283   2.742   0.116  0.1650  0.0893 -0.0562
20174SOL    HW165369   5.250   2.680   0.182 -1.8263  0.2622 -0.8007
20174SOL    HW265370   5.327   2.810   0.167 -1.4169  0.2842  1.1341
20175SOL     OW65371   5.740   2.905   8.843  0.6249 -0.0300  0.1577
20175SOL    HW165372   5.796   2.865   8.910  0.7621  0.9181  0.6233
20175SOL    HW265373   5.652   2.878   8.866  0.5171  1.3080  1.5041
20176SOL     OW65374   7.719   4.815   0.150 -0.8784 -0.0789 -0.7091
20176SOL    HW165375   7.753   4.817   0.061  0.9650 -1.6109 -0.1160
20176SOL    HW265376   7.737   4.726   0.181 -3.5244 -0.2820  0.4664
20177SOL     OW65377   8.747   4.720   8.705  0.8075 -0.4077 -0.4709
20177SOL    HW165378   8.656   4.715   8.676 -0.7495  3.6949  2.6542
20177SOL    HW265379   8.794   4.753   8.628 -0.7777 -0.4600 -1.5194
20178SOL     OW65380   8.504   5.400   8.040  0.3983 -0.1872  0.0933
20178SOL    HW165381   8.500   5.452   8.120 -1.5485 -0.4602  0.2207
20178SOL    HW265382   8.561   5.450   7.982  0.7870  0.6814  1.1859
20179SOL     OW65383   4.884   4.986   1.321  0.0649 -0.2292  0.2574
20179SOL    HW165384   4.873   4.930   1.244 -1.6675 -0.7282  0.8167
20179SOL    HW265385   4.840   4.939   1.392 -0.0986  1.1339  1.1043
20180SOL     OW65386   5.514   3.295   8.377  0.0086  0.4796  0.2701
20180SOL    HW165387   5.428   3.309   8.337  1.1733 -0.0015 -2.7187
20180SOL    HW265388   5.573   3.353   8.328  1.8415 -1.3169  0.1975
20181SOL     OW65389   7.375   4.055   6.749  0.6472 -0.0824 -0.3317
20181SOL    HW165390   7.466   4.080   6.730  0.5111  0.1367 -0.7098
20181SOL    HW265391   7.335   4.043   6.662  0.3771 -0.4064 -0.1643
20182SOL     OW65392   6.474   4.598   7.616  0.3237 -0.2542  0.2441
20182SOL    HW165393   6.528   4.569   7.543  0.3221  1.4575 -0.4992
20182SOL    HW265394   6.387   4.609   7.578  0.0508 -0.4878  0.7960
20183SOL     OW65395   4.796   5.687   0.492 -0.6054  0.4455  0.3151
20183SOL    HW165396   4.880   5.672   0.534 -1.1420  0.5995  1.4688
20183SOL    HW265397   4.743   5.611   0.514 -1.0346  0.7316  0.2950
20184SOL     OW65398   5.052   5.880   4.445  0.6849 -0.4111 -0.0994
20184SOL    HW165399   5.006   5.795   4.450  0.9130 -0.5172  0.2768
20184SOL    HW265400   5.061   5.897   4.352 -2.5647  0.9415 -0.3155
20185SOL     OW65401   6.295   6.779   1.348  0.1606  0.1216  0.4930
20185SOL    HW165402   6.274   6.686   1.340 -0.0194  0.3061 -2.8084
20185SOL    HW265403   6.213   6.824   1.326  1.0033  0.9465 -1.2079
20186SOL     OW65404   6.238   5.812   0.381 -0.7962  0.7283  0.2835
20186SOL    HW165405   6.210   5.723   0.359 -1.0608  0.0658  2.9833
20186SOL    HW265406   6.279   5.804   0.467  2.0593  2.7404 -0.7330
20187SOL     OW65407   5.095   8.085   0.958  0.0246 -0.1327  0.4419
20187SOL    HW165408   5.033   8.115   1.025 -2.5800  0.1944 -1.9190
20187SOL    HW265409   5.122   7.998   0.988 -1.8261 -0.4183  1.4612
20188SOL     OW65410   6.023   7.841   9.678  0.2594 -0.0035 -0.9565
20188SOL    HW165411   5.976   7.776   9.730  0.8852  0.7759  0.6625
20188SOL    HW265412   6.102   7.796   9.649  1.4915  0.4338  1.5139
20189SOL     OW65413   5.518   6.468   3.234  0.4575 -0.3259  0.5058
20189SOL    HW165414   5.584   6.422   3.181  1.0560 -1.8563  2.4764
20189SOL    HW265415   5.569   6.518   3.297 -0.2655  0.7160  0.2909
20190SOL     OW65416   8.060   3.974   0.212  0.0507  0.3016  0.4200
20190SOL    HW165417   8.091   4.034   0.281 -4.3585  3.3024  0.1948
20190SOL    HW265418   8.119   3.991   0.138  0.8505  2.0322  1.3763
20191SOL     OW65419   5.457   4.482   8.336 -0.0620  0.2841 -0.3938
20191SOL    HW165420   5.514   4.538   8.283 -0.7117  0.1882 -1.2303
20191SOL    HW265421   5.513   4.408   8.360  0.9522  1.5041  1.1656
20192SOL     OW65422   7.910   7.096   1.623 -0.3252  0.0926 -0.1254
20192SOL    HW165423   7.898   7.003   1.641 -0.0732  0.0057 -0.3879
20192SOL    HW265424   8.003   7.103   1.598 -0.0168  0.6098  1.1036
20193SOL     OW65425   5.470   5.924   9.590  0.9515  0.1470  0.4179
20193SOL    HW165426   5.556   5.883   9.591  0.8389 -0.1604 -0.8088
20193SOL    HW265427   5.425   5.888   9.667  1.6074 -0.3611  0.5716
20194SOL     OW65428   4.814   9.082   0.621 -0.0864 -0.2400 -0.0471
20194SOL    HW165429   4.887   9.041   0.667 -1.2478 -0.2548  1.8955
20194SOL    HW265430   4.770   9.010   0.576 -0.1696 -0.6115  0.6116
20195SOL     OW65431   6.036   7.581   0.750 -0.0903  0.5204  0.3076
20195SOL    HW165432   6.027   7.591   0.655  0.8084 -1.4726 -0.0220
20195SOL    HW265433   5.948   7.598   0.784 -0.9938 -1.0025 -1.1270
20196SOL     OW65434   9.125   7.248   1.875 -0.0406  0.0381 -0.4161
20196SOL    HW165435   9.195   7.219   1.817 -0.2126 -1.6030  0.1485
20196SOL    HW265436   9.053   7.270   1.817  0.4410  0.3167 -0.9183
20197SOL     OW65437   4.854   6.207   8.937  0.1005 -0.0628 -0.2178
20197SOL    HW165438   4.835   6.269   8.866 -0.2013  1.1769  0.9054
20197SOL    HW265439   4.932   6.160   8.908  0.1879  0.6743 -1.2124
20198SOL     OW65440   6.739   3.847   9.791  0.0783 -0.6562  0.3656
20198SOL    HW165441   6.684   3.885   9.722  1.3969 -0.6343 -0.7047
20198SOL    HW265442   6.756   3.921   9.850  1.3960  0.1250 -0.9098
20199SOL     OW65443   6.849   7.339   9.401  1.0207 -0.1412 -0.5369
20199SOL    HW165444   6.771   7.306   9.446  0.9969  0.3644 -0.1916
20199SOL    HW265445   6.824   7.426   9.370  1.7230  0.4125  0.3781
20200SOL     OW65446   7.971   6.473   2.485 -0.2284  0.7174  0.5739
20200SOL    HW165447   7.878   6.482   2.508 -0.9170 -1.1055 -1.1126
20200SOL    HW265448   7.992   6.382   2.507  0.4132  0.3580 -1.3109
20201SOL     OW65449   6.493   6.229   8.575 -0.2009 -0.2767 -0.3245
20201SOL    HW165450   6.491   6.297   8.642  0.6564 -0.5473 -0.0027
20201SOL    HW265451   6.401   6.205   8.562 -0.5104  0.8949 -0.4140
20202SOL     OW65452   3.447   6.283   9.543 -0.2632  0.2168 -0.1764
20202SOL    HW165453   3.372   6.304   9.600  0.4458  0.8677  0.5373
20202SOL    HW265454   3.435   6.338   9.466  0.3012  1.5264  0.6293
20203SOL     OW65455   5.808   8.736   1.925  0.0889  0.5193  0.1492
20203SOL    HW165456   5.799   8.810   1.985  0.4277  0.1658  0.6416
20203SOL    HW265457   5.864   8.674   1.972  1.9183  1.0270 -1.2501
20204SOL     OW65458   8.320   5.376   1.393 -0.1357  0.2939  0.7913
20204SOL    HW165459   8.288   5.426   1.318 -0.2904  2.3642  2.1416
20204SOL    HW265460   8.415   5.370   1.380  0.0875  2.1772  1.2130
20205SOL     OW65461   3.270   7.184   7.391 -0.1096 -0.3892  0.1610
20205SOL    HW165462   3.181   7.217   7.405 -0.5176 -1.2926 -0.1969
20205SOL    HW265463   3.266   7.142   7.304  0.8028  0.0113 -0.0775
20206SOL     OW65464   8.277   7.031   0.188  0.1463 -0.1551 -0.2881
20206SOL    HW165465   8.368   7.050   0.211  0.1513 -0.5170  0.0093
20206SOL    HW265466   8.232   7.027   0.273  0.4872 -3.2582 -0.1476
20207SOL     OW65467   6.534   8.503   8.048  0.0093 -0.1166  0.6108
20207SOL    HW165468   6.446   8.477   8.019  0.7871 -0.9719 -1.1632
20207SOL    HW265469   6.530   8.499   8.143 -1.8272 -0.3038  0.5664
20208SOL     OW65470   7.257   5.852   9.531  0.6557 -0.4912 -0.0925
20208SOL    HW165471   7.305   5.770   9.519  1.1784 -0.1472 -0.4256
20208SOL    HW265472   7.168   5.825   9.551  0.7738 -1.1395 -0.3967
20209SOL     OW65473   6.046   5.611   2.422  0.6962 -0.3158  0.4237
20209SOL    HW165474   6.124   5.636   2.373  0.7167 -0.0817  0.5725
20209SOL    HW265475   6.036   5.680   2.488 -1.2347  1.2213 -1.3478
20210SOL     OW65476   7.018   7.566   0.307  0.1283 -0.3912 -0.3446
20210SOL    HW165477   6.957   7.614   0.363  2.1179 -0.7071  2.3251
20210SOL    HW265478   6.997   7.474   0.322  1.6218 -0.5384  1.2231
20211SOL     OW65479   9.399   5.622   2.084  0.4698 -0.7045  0.0296
20211SOL    HW165480   9.458   5.666   2.023 -0.2846 -1.5846 -1.3754
20211SOL    HW265481   9.455   5.560   2.132  0.8451 -0.9029 -0.6628
20212SOL     OW65482   7.108   6.488   2.375 -0.2278  0.7409  0.0028
20212SOL    HW165483   7.019   6.470   2.405 -2.0888  2.8848 -3.5590
20212SOL    HW265484   7.117   6.583   2.378  1.8833  0.5991  0.0303
20213SOL     OW65485   7.055   7.479   3.515  0.1760  0.1916  0.5590
20213SOL    HW165486   7.099   7.459   3.433  0.9865  0.2825  0.9600
20213SOL    HW265487   7.108   7.434   3.582 -0.4126  0.1969  1.0370
20214SOL     OW65488   5.299   7.379   9.714 -0.6722  0.0217  0.7333
20214SOL    HW165489   5.339   7.293   9.719 -0.0807  0.2291 -0.0939
20214SOL    HW265490   5.324   7.423   9.795  2.0144  0.6369 -0.3119
20215SOL     OW65491   6.716   6.289   1.121  0.3292  0.0547  0.3888
20215SOL    HW165492   6.723   6.300   1.026  1.0974 -0.7213  0.3463
20215SOL    HW265493   6.802   6.313   1.155 -0.6246  2.7411  1.1724
20216SOL     OW65494   7.683   6.030   1.175  0.3937 -0.2245  0.0427
20216SOL    HW165495   7.728   6.114   1.171  0.2958 -0.2111 -1.2664
20216SOL    HW265496   7.591   6.053   1.186  0.5151 -0.2169  1.1959
20217SOL     OW65497   4.391   6.754   7.969  0.0240  0.2066 -0.0829
20217SOL    HW165498   4.405   6.719   8.057  0.9710 -3.2908 -1.4565
20217SOL    HW265499   4.352   6.840   7.983 -0.6643 -0.5671  3.7146
20218SOL     OW65500   6.839   4.112   1.615 -0.0990  0.1124 -0.3207
20218SOL    HW165501   6.798   4.176   1.673 -0.8962 -2.3729  2.0712
20218SOL    HW265502   6.776   4.101   1.544  0.0380  1.8918 -0.7487
20219SOL     OW65503   6.632   7.893   1.478  0.2126  0.7555  0.0780
20219SOL    HW165504   6.619   7.932   1.391  2.0482 -2.9416 -2.1213
20219SOL    HW265505   6.564   7.826   1.485  1.1459 -0.1830  0.6112
20220SOL     OW65506   7.229   6.144   0.768  0.0040 -0.5887  0.3086
20220SOL    HW165507   7.150   6.131   0.821 -0.5768 -0.1914 -0.4286
20220SOL    HW265508   7.219   6.081   0.696  0.5783 -0.8370  0.4409
20221SOL     OW65509   6.649   6.567   2.918  0.0925 -0.4926  0.1243
20221SOL    HW165510   6.571   6.583   2.972  0.2797 -1.6853  0.7845
20221SOL    HW265511   6.614   6.555   2.829 -0.2205  1.4530 -0.0604
20222SOL     OW65512   7.269   8.030   2.102  0.1173  0.5093  0.6548
20222SOL    HW165513   7.326   8.101   2.075 -0.8203  1.3516  0.8247
20222SOL    HW265514   7.206   8.071   2.162 -1.4212 -0.1156 -0.4724
20223SOL     OW65515   6.983   6.376   1.158  0.4788 -0.9999  0.0007
20223SOL    HW165516   6.957   6.417   1.076  1.2175  0.5105  0.4888
20223SOL    HW265517   7.076   6.397   1.167  0.4915 -1.4537  1.0521
20224SOL     OW65518   7.694   6.915   0.547 -0.4057  0.3567 -1.0210
20224SOL    HW165519   7.737   6.832   0.523  0.3904  0.8672 -1.3920
20224SOL    HW265520   7.623   6.924   0.484  0.8659  1.0331 -2.4235
20225SOL     OW65521   5.731   6.848   1.213 -0.3804  0.3469 -0.1813
20225SOL    HW165522   5.665   6.782   1.195 -1.3786  0.5385  2.4489
20225SOL    HW265523   5.814   6.803   1.198 -1.0449 -1.2992  0.8461
20226SOL     OW65524   7.463   5.763   0.474  0.0718 -0.5419  0.1127
20226SOL    HW165525   7.519   5.834   0.443 -0.0348 -1.4914 -2.4724
20226SOL    HW265526   7.512   5.683   0.456 -1.7378 -1.3660 -1.6497
20227SOL     OW65527   8.935   7.600   0.583  0.8938  0.7715 -0.7880
20227SOL    HW165528   8.989   7.599   0.662 -0.5660  0.0937  0.2559
20227SOL    HW265529   8.993   7.567   0.514  1.7860 -0.0208  0.3017
20228SOL     OW65530   7.318   6.012   0.245 -0.1877  0.0421  0.2162
20228SOL    HW165531   7.359   6.071   0.308 -1.4374  2.3376 -0.9520
20228SOL    HW265532   7.391   5.967   0.202  0.7807  0.1779  1.6725
20229SOL     OW65533   3.440   4.950   1.863 -0.3295 -0.4254  0.5544
20229SOL    HW165534   3.398   4.884   1.919 -1.3518  1.6198  2.3274
20229SOL    HW265535   3.394   5.031   1.883  2.3487  1.3232  0.1221
20230SOL     OW65536   6.404   9.014   2.445  0.5004 -0.0843 -0.7749
20230SOL    HW165537   6.340   8.991   2.378  0.2300  2.6014 -1.5268
20230SOL    HW265538   6.358   8.998   2.528  0.3011 -1.9315 -1.1855
20231SOL     OW65539   5.593   8.616   0.141 -0.0897  0.3298  0.4063
20231SOL    HW165540   5.590   8.554   0.068 -1.8061  0.4654  0.3120
20231SOL    HW265541   5.608   8.562   0.218 -0.2530 -0.0530  0.1732
20232SOL     OW65542   5.866   5.280   9.687  0.1197 -0.5750 -0.2443
20232SOL    HW165543   5.791   5.275   9.627 -0.8864 -1.7426  1.0351
20232SOL    HW265544   5.827   5.301   9.772  1.2486 -1.1602  0.4388
20233SOL     OW65545   8.478   8.402   1.238  0.5609 -0.3745  0.0954
20233SOL    HW165546   8.441   8.314   1.225  2.9268 -1.3520 -0.7150
20233SOL    HW265547   8.506   8.428   1.150 -0.1852  1.2629  0.3194
20234SOL     OW65548   5.941   6.504   1.761  0.4373 -0.2498 -0.0569
20234SOL    HW165549   5.862   6.552   1.735  0.2719 -1.1853 -1.4053
20234SOL    HW265550   6.009   6.572   1.769 -0.3952  0.5166  0.7669
20235SOL     OW65551   6.393   6.214   1.837 -0.3353 -0.3036  0.2905
20235SOL    HW165552   6.307   6.201   1.798 -0.4685 -0.5155  0.6515
20235SOL    HW265553   6.428   6.126   1.851 -1.4496 -0.4039  3.1958
20236SOL     OW65554   6.693   5.099   2.070 -0.2678  0.6719 -0.3703
20236SOL    HW165555   6.643   5.099   1.988 -3.0766  1.3289  1.1956
20236SOL    HW265556   6.675   5.185   2.108  2.2698  0.9957  0.2563
20237SOL     OW65557   5.332   8.180   9.788  0.4380  0.1785  0.4546
20237SOL    HW165558   5.261   8.148   9.843 -0.5483  0.5204 -0.5925
20237SOL    HW265559   5.353   8.106   9.730 -1.4840  1.1149 -1.6040
20238SOL     OW65560   6.472   4.749   2.765  0.3539 -0.8206 -0.8373
20238SOL    HW165561   6.556   4.735   2.810  0.3010  0.7215 -0.1943
20238SOL    HW265562   6.408   4.701   2.818  0.6067 -0.7419 -0.4572
20239SOL     OW65563   4.092   6.284   8.148  0.0582  0.3594 -0.2648
20239SOL    HW165564   4.178   6.292   8.107  0.0645  0.3715 -0.2492
20239SOL    HW265565   4.075   6.190   8.150 -0.3321  0.4052 -1.1135
20240SOL     OW65566   5.149   8.148   1.816  0.0939  0.8939  0.0848
20240SOL    HW165567   5.112   8.220   1.868  0.8513  2.0496 -0.9333
20240SOL    HW265568   5.104   8.153   1.732  1.7571  1.6838 -0.8148
20241SOL     OW65569   8.343   7.563   8.779 -0.4068 -0.4025  0.3224
20241SOL    HW165570   8.281   7.591   8.846 -0.5809  1.0486 -0.3910
20241SOL    HW265571   8.429   7.574   8.819 -0.5660 -1.3003  0.9182
20242SOL     OW65572   6.387   8.684   3.737  0.3928 -0.4527  0.1245
20242SOL    HW165573   6.341   8.681   3.822 -0.3472 -0.4799 -0.2674
20242SOL    HW265574   6.362   8.768   3.699  1.8364  0.1799  0.5266
20243SOL     OW65575   5.021   4.436   9.598  0.0179 -0.4473  0.2272
20243SOL    HW165576   5.057   4.518   9.631  0.7053 -0.9199  0.6848
20243SOL    HW265577   5.095   4.392   9.557 -0.7245 -0.0734 -1.6159
20244SOL     OW65578   5.788   8.198   0.676 -0.1958  0.1037 -0.3945
20244SOL    HW165579   5.801   8.106   0.700 -0.1570  0.0625 -0.5652
20244SOL    HW265580   5.871   8.240   0.696 -0.1336  0.0508 -0.5361
20245SOL     OW65581   6.668   4.309   8.906 -0.2943  0.2668 -0.1287
20245SOL    HW165582   6.718   4.385   8.877 -0.0673  0.3077  0.3591
20245SOL    HW265583   6.601   4.297   8.838  0.1737  0.4042 -0.6208
20246SOL     OW65584   7.510   7.394   0.909 -0.0294  0.0249 -0.4388
20246SOL    HW165585   7.473   7.461   0.966  2.5856  1.0735  0.1575
20246SOL    HW265586   7.457   7.399   0.829 -2.5038 -0.1357  1.0784
20247SOL     OW65587   6.345   6.138   0.892  0.0072  0.1885 -0.5947
20247SOL    HW165588   6.372   6.088   0.815  0.9588  1.1908 -0.9320
20247SOL    HW265589   6.279   6.083   0.935 -1.3642  0.0677 -2.7111
20248SOL     OW65590   7.805   3.939   1.343 -0.2976  0.3712 -0.0635
20248SOL    HW165591   7.752   3.964   1.267 -0.0400  0.1927 -0.3061
20248SOL    HW265592   7.831   3.849   1.326 -0.2730  0.3155  0.2592
20249SOL     OW65593   3.807   5.685   0.520 -0.2376 -0.0418 -0.7675
20249SOL    HW165594   3.839   5.604   0.557 -1.4382  0.4491  1.5298
20249SOL    HW265595   3.722   5.662   0.481  0.0545 -0.1358 -1.3635
20250SOL     OW65596   5.111   8.453   2.472 -0.5828  0.2039  0.0306
20250SOL    HW165597   5.103   8.359   2.486  3.2111 -0.8041 -2.9160
20250SOL    HW265598   5.028   8.478   2.431 -1.1009 -2.2232 -0.5393
20251SOL     OW65599   5.428   5.696   2.615  0.3645 -0.0721  0.3310
20251SOL    HW165600   5.506   5.751   2.624  1.8207 -1.8772 -0.4758
20251SOL    HW265601   5.386   5.728   2.535  1.7188 -0.6877 -0.6630
20252SOL     OW65602   8.812   6.201   0.958 -0.3568  0.8310 -0.4410
20252SOL    HW165603   8.777   6.142   1.025 -0.0454  0.3481 -0.6986
20252SOL    HW265604   8.900   6.168   0.940 -0.3431  1.1054 -0.9092
20253SOL     OW65605   7.078   7.423   0.749 -0.3841 -0.5762  0.3368
20253SOL    HW165606   7.122   7.388   0.672 -0.7702 -0.6923  0.1640
20253SOL    HW265607   7.146   7.470   0.797  0.2248 -1.8760  0.7728
20254SOL     OW65608   5.195   7.691   1.388 -0.1476 -0.0909  0.2808
20254SOL    HW165609   5.274   7.667   1.340  0.9876  1.9832  0.9898
20254SOL    HW265610   5.158   7.765   1.341 -0.9135 -0.1575  0.7418
20255SOL     OW65611   5.371   6.531   1.291 -0.2284 -0.2068  0.4148
20255SOL    HW165612   5.309   6.510   1.361 -0.3750 -2.0400 -0.2081
20255SOL    HW265613   5.382   6.449   1.243  2.1240  0.2483  0.0381
20256SOL     OW65614   6.022   5.379   2.267 -0.1943  0.6980  0.1050
20256SOL    HW165615   6.020   5.472   2.288 -0.2142  0.7573 -0.1673
20256SOL    HW265616   6.102   5.346   2.308 -0.1441  0.8494  0.1263
20257SOL     OW65617   4.809   5.982   0.710  0.5697  0.3924 -0.1326
20257SOL    HW165618   4.734   6.038   0.689 -0.9927 -1.1567  1.0138
20257SOL    HW265619   4.844   5.957   0.624 -1.4686 -0.4120 -0.8034
20258SOL     OW65620   5.226   5.501   0.394  0.1958 -0.3358 -0.1547
20258SOL    HW165621   5.143   5.456   0.408  0.3816 -0.8061 -0.5533
20258SOL    HW265622   5.202   5.590   0.371 -0.1847 -0.3448  0.1867
20259SOL     OW65623   4.097   6.794   1.000 -0.5443 -0.3845  0.1503
20259SOL    HW165624   4.049   6.791   0.917 -1.1938 -0.2970  0.5188
20259SOL    HW265625   4.137   6.881   1.001  1.7294 -1.3069 -1.3060
20260SOL     OW65626   4.942   6.605   9.066 -0.3362 -0.3096 -0.1075
20260SOL    HW165627   4.900   6.520   9.052 -1.7054  0.5611 -1.7122
20260SOL    HW265628   4.869   6.666   9.077  0.5956  0.8004  0.0751
20261SOL     OW65629   6.520   7.431   1.670  0.1773 -0.2077 -0.1579
20261SOL    HW165630   6.578   7.495   1.628 -0.7773  1.3931  0.8360
20261SOL    HW265631   6.445   7.483   1.699 -1.1254 -1.9819 -0.1960
20262SOL     OW65632   7.297   6.112   8.887 -0.5129  0.0970 -0.2189
20262SOL    HW165633   7.228   6.069   8.836 -1.2071  0.0669  0.7106
20262SOL    HW265634   7.249   6.166   8.951  0.3191  1.7665 -0.9335
20263SOL     OW65635   5.976   6.921   9.105  0.0998 -0.0577 -0.0926
20263SOL    HW165636   5.963   6.926   9.199 -1.0735  1.0762 -0.2810
20263SOL    HW265637   6.062   6.960   9.090 -0.3590  1.1916  0.3933
20264SOL     OW65638   6.793   5.993   7.369  0.0544 -0.4226 -0.0392
20264SOL    HW165639   6.872   5.956   7.330  0.2940 -0.5260  0.5331
20264SOL    HW265640   6.727   5.987   7.300  0.7818  0.5118 -0.8401
20265SOL     OW65641   7.993   6.989   0.255  0.4871  0.2849 -0.4238
20265SOL    HW165642   7.900   7.003   0.272  0.4836  0.7340 -0.7816
20265SOL    HW265643   8.039   7.043   0.319  0.5103 -0.2428  0.0106
20266SOL     OW65644   6.232   7.267   9.749 -0.1140  0.5685  0.1982
20266SOL    HW165645   6.145   7.275   9.787 -1.6195 -3.2057 -1.9474
20266SOL    HW265646   6.284   7.224   9.816 -1.6007 -2.3217 -0.3588
20267SOL     OW65647   7.215   4.867   9.346 -0.0316 -0.0185 -0.0804
20267SOL    HW165648   7.304   4.902   9.350 -1.0562  2.6714  2.5587
20267SOL    HW265649   7.209   4.811   9.424 -0.7488  0.1573 -0.0059
20268SOL     OW65650   8.536   4.785   3.024  0.0733  0.3078 -0.0488
20268SOL    HW165651   8.568   4.848   3.088 -1.7890  1.6740 -0.3722
20268SOL    HW265652   8.457   4.749   3.064 -1.0709  1.1210 -1.4686
20269SOL     OW65653   6.206   5.691   9.623 -0.4769  0.3974  0.1485
20269SOL    HW165654   6.158   5.608   9.621 -0.1443  0.2173 -0.3232
20269SOL    HW265655   6.254   5.694   9.541  0.1251  0.6998  0.5041
20270SOL     OW65656   5.040   6.733   1.151 -0.8436 -0.0402 -0.6551
20270SOL    HW165657   5.022   6.644   1.183  1.2319 -0.6143 -0.9376
20270SOL    HW265658   4.996   6.737   1.066 -1.2198 -0.6955 -0.4952
20271SOL     OW65659   7.490   7.712   9.322 -0.0138  0.0062 -0.2452
20271SOL    HW165660   7.536   7.628   9.328  0.2872  0.2603  1.5882
20271SOL    HW265661   7.557   7.777   9.345  0.1851  0.9516 -3.1208
20272SOL     OW65662   7.772   6.352   3.991  0.2164 -0.3906 -0.3863
20272SOL    HW165663   7.742   6.285   4.053  0.7475  0.2604  0.6066
20272SOL    HW265664   7.854   6.318   3.957 -0.1766 -0.8431 -0.9049
20273SOL     OW65665   6.392   8.889   3.457 -0.3913  0.2497  0.3892
20273SOL    HW165666   6.456   8.888   3.385 -1.1995  1.3720 -0.3945
20273SOL    HW265667   6.439   8.926   3.531  0.7810 -1.9462  0.8077
20274SOL     OW65668   6.806   6.849   3.578 -0.3619 -0.5795  0.1507
20274SOL    HW165669   6.783   6.761   3.609 -0.8657 -0.8807 -0.9919
20274SOL    HW265670   6.898   6.843   3.554 -1.1001 -1.7484 -2.8203
20275SOL     OW65671   7.729   6.901   0.092 -0.3509 -0.7949  0.4909
20275SOL    HW165672   7.796   6.890   0.025  1.2365  1.4912  1.5795
20275SOL    HW265673   7.718   6.813   0.130 -0.2094 -1.8102 -1.7047
20276SOL     OW65674   7.049   6.945   0.268  0.0202  0.0888 -0.0901
20276SOL    HW165675   7.114   6.883   0.299  0.0413  0.1839  0.0596
20276SOL    HW265676   7.047   7.013   0.336  0.1406  0.3492 -0.3492
20277SOL     OW65677   6.631   4.110   1.394  0.4448  0.2838  0.3755
20277SOL    HW165678   6.588   4.191   1.420 -4.3742 -1.8894  0.3233
20277SOL    HW265679   6.684   4.134   1.317 -2.6526  3.0827 -1.1551
20278SOL     OW65680   1.741   5.869   0.833 -0.1397  0.0226 -0.1231
20278SOL    HW165681   1.671   5.906   0.887 -0.6962 -0.0309 -0.8036
20278SOL    HW265682   1.708   5.874   0.744  0.0048 -1.6375 -0.2848
20279SOL     OW65683   4.385   3.823   1.347  0.1761 -0.3086 -0.6123
20279SOL    HW165684   4.447   3.752   1.328 -0.3131 -1.0214  0.3824
20279SOL    HW265685   4.344   3.842   1.262  2.6061  1.0734 -1.6046
20280SOL     OW65686   5.257   6.017   7.106 -0.0823  0.5476 -0.5587
20280SOL    HW165687   5.213   5.937   7.076 -0.5808  1.0223 -1.1047
20280SOL    HW265688   5.237   6.022   7.200  0.0129 -0.0053 -0.5057
20281SOL     OW65689   7.170   6.381   0.550 -0.0510 -0.5049 -0.6604
20281SOL    HW165690   7.244   6.432   0.519  0.1999  1.4651  2.7118
20281SOL    HW265691   7.209   6.312   0.604 -0.5739  0.7882  1.4733
20282SOL     OW65692   4.496   6.700   0.078 -0.2353  0.7597  0.5501
20282SOL    HW165693   4.403   6.680   0.076  0.0472 -0.6015 -1.0707
20282SOL    HW265694   4.525   6.672   0.165 -0.6850 -2.2339 -0.1813
20283SOL     OW65695   8.551   5.460   1.908  0.0277 -0.2898  0.9132
20283SOL    HW165696   8.458   5.453   1.930  0.2109  0.7953  2.1757
20283SOL    HW265697   8.552   5.465   1.812 -1.0944 -1.6418  0.7939
20284SOL     OW65698   5.507   6.476   0.757  0.2088  0.0758 -0.4210
20284SOL    HW165699   5.457   6.556   0.741  1.7300  1.2128  0.3074
20284SOL    HW265700   5.597   6.498   0.731  0.4784 -1.7582 -1.2441
20285SOL     OW65701   4.908   6.819   1.471  0.2222  0.1083  0.2234
20285SOL    HW165702   4.849   6.829   1.396  0.6181  0.3785 -0.0506
20285SOL    HW265703   4.987   6.866   1.446  0.8010 -0.8040  0.3281
20286SOL     OW65704   7.969   5.370   1.296 -0.0526 -0.7241  0.7533
20286SOL    HW165705   8.045   5.321   1.264  1.5367  0.5906  2.3649
20286SOL    HW265706   7.968   5.354   1.390 -0.5589  0.9272  1.0466
20287SOL     OW65707   7.242   5.548   2.541  0.3801  0.1909 -0.2118
20287SOL    HW165708   7.173   5.552   2.607  0.4425  1.6707 -0.2195
20287SOL    HW265709   7.322   5.566   2.590  0.6656 -0.5442 -0.3830
20288SOL     OW65710   6.864   6.736   0.356  0.4359  0.1870  0.3109
20288SOL    HW165711   6.955   6.765   0.351  0.3061  0.8205  1.2815
20288SOL    HW265712   6.826   6.761   0.273  1.3867 -0.9723 -0.5109
20289SOL     OW65713   6.220   4.459   0.763  0.1019  0.0943  0.3405
20289SOL    HW165714   6.215   4.437   0.855  1.2284  1.2860  0.7228
20289SOL    HW265715   6.218   4.555   0.760  0.1103  0.0821 -0.8656
20290SOL     OW65716   8.523   6.337   4.768  0.1389 -0.7818 -0.7145
20290SOL    HW165717   8.447   6.355   4.712 -0.1804 -0.8061 -0.2882
20290SOL    HW265718   8.517   6.243   4.786  0.3893 -0.8246 -0.8521
20291SOL     OW65719   6.744   5.511   2.678 -0.2977 -0.2650 -0.1773
20291SOL    HW165720   6.674   5.518   2.612 -0.0645  0.6638 -0.3424
20291SOL    HW265721   6.771   5.420   2.674 -1.5079 -0.6489 -0.1058
20292SOL     OW65722   5.555   4.501   8.761  0.3061  0.2496  0.2818
20292SOL    HW165723   5.514   4.581   8.729 -0.5599 -0.4756 -0.4825
20292SOL    HW265724   5.649   4.514   8.746  0.2630  1.4499  0.9525
20293SOL     OW65725   5.545   7.479   1.497 -0.1927  0.3971 -0.2771
20293SOL    HW165726   5.615   7.534   1.464  2.1846 -1.5724  1.1207
20293SOL    HW265727   5.524   7.516   1.583  1.6563 -0.9002  0.8228
20294SOL     OW65728   6.394   6.549   3.656  0.4680  0.2611 -0.3840
20294SOL    HW165729   6.313   6.577   3.613  1.4793  2.1977 -1.1545
20294SOL    HW265730   6.443   6.630   3.669  0.5832 -0.3039  3.8161
20295SOL     OW65731   7.606   7.098   1.572 -0.1525  0.4188 -0.5612
20295SOL    HW165732   7.629   7.165   1.636 -1.2969  1.7979 -1.5254
20295SOL    HW265733   7.612   7.015   1.620  0.8430  1.2369  0.7905
20296SOL     OW65734   4.789   4.277   2.354  0.5453  0.3074  0.0208
20296SOL    HW165735   4.834   4.353   2.316 -0.7403  0.8018 -0.5636
20296SOL    HW265736   4.848   4.204   2.336  1.2277  0.9596 -0.5164
20297SOL     OW65737   5.897   7.730   0.517  0.4662 -0.1610  0.0785
20297SOL    HW165738   5.973   7.760   0.466 -0.8691  1.0301 -1.3046
20297SOL    HW265739   5.827   7.792   0.495 -1.2446 -1.8893  0.4141
20298SOL     OW65740   6.509   7.338   3.313  0.2335  0.1196  0.3109
20298SOL    HW165741   6.448   7.281   3.267  0.0785  0.6417 -0.1366
20298SOL    HW265742   6.595   7.296   3.301 -0.0139 -0.5792  0.8865
20299SOL     OW65743   9.183   7.584   0.973  0.0584 -0.2101  0.0135
20299SOL    HW165744   9.253   7.631   1.018  0.3971  0.0575 -0.7713
20299SOL    HW265745   9.103   7.631   0.995  0.3851  0.7225 -0.7148
20300SOL     OW65746   8.306   6.543   9.074  0.0095 -0.0176 -0.1754
20300SOL    HW165747   8.257   6.618   9.038 -3.5640 -2.2209 -0.3560
20300SOL    HW265748   8.281   6.540   9.166  0.3422 -0.7736 -0.1036
20301SOL     OW65749   5.640   4.652   0.153  0.1071 -0.6700 -0.5793
20301SOL    HW165750   5.677   4.687   0.072 -1.1387  0.2963 -0.7765
20301SOL    HW265751   5.558   4.701   0.165 -0.8500 -2.3490  0.0859
20302SOL     OW65752   8.088   5.777   0.818  0.5708 -0.2780 -0.1146
20302SOL    HW165753   8.079   5.830   0.897  0.7120  0.7260 -0.7566
20302SOL    HW265754   8.110   5.690   0.850 -0.1330 -0.0753  0.9857
20303SOL     OW65755   6.052   6.800   2.783 -0.1857 -0.0781  0.2808
20303SOL    HW165756   5.970   6.751   2.781 -0.5509  0.5191  0.2152
20303SOL    HW265757   6.089   6.790   2.695 -0.3412 -0.0921  0.2168
20304SOL     OW65758   5.753   7.276   0.669  0.0450 -0.7063  0.5818
20304SOL    HW165759   5.755   7.366   0.701  2.9476 -0.5611  0.2641
20304SOL    HW265760   5.695   7.279   0.593  0.0680  0.8923  0.5962
20305SOL     OW65761   5.832   4.933   0.475 -0.1256 -0.2712  0.4297
20305SOL    HW165762   5.896   5.004   0.462  1.2964 -1.5060  0.4057
20305SOL    HW265763   5.885   4.856   0.495 -1.6623 -1.2085  1.1111
20306SOL     OW65764   7.367   6.383   2.410  0.2874  0.1171 -0.2214
20306SOL    HW165765   7.381   6.433   2.490  1.0502  0.3621 -0.5069
20306SOL    HW265766   7.298   6.431   2.363  0.0758  0.1550  0.1267
20307SOL     OW65767   5.755   6.389   0.977 -0.3237 -0.3324  0.0040
20307SOL    HW165768   5.744   6.339   0.896 -1.7240  0.9013 -0.6058
20307SOL    HW265769   5.849   6.403   0.985 -0.2695  0.8825 -2.2579
20308SOL     OW65770   4.549   8.126   0.473  0.1729 -0.0746 -0.0791
20308SOL    HW165771   4.593   8.047   0.444 -0.0212 -0.3337  0.3166
20308SOL    HW265772   4.582   8.141   0.562  2.3093  1.8443 -1.0879
20309SOL     OW65773   5.621   6.659   8.669 -0.3718 -0.0331 -0.0920
20309SOL    HW165774   5.526   6.644   8.671 -0.8716  2.4706  2.6610
20309SOL    HW265775   5.630   6.751   8.646  1.2250  0.2550  1.4060
20310SOL     OW65776   5.967   6.828   7.537 -0.1041 -0.1423 -0.1219
20310SOL    HW165777   5.894   6.771   7.560  1.3425 -2.3829 -0.7736
20310SOL    HW265778   6.005   6.855   7.620 -0.8216 -0.0760  0.1915
20311SOL     OW65779   6.552   6.123   0.374 -0.6566  0.2248 -0.1322
20311SOL    HW165780   6.562   6.054   0.439 -0.7616  1.1732  0.9124
20311SOL    HW265781   6.602   6.092   0.298 -1.0324 -1.1712  0.1567
20312SOL     OW65782   5.740   8.157   0.080  0.1121 -0.3812  0.2856
20312SOL    HW165783   5.727   8.099   0.005  1.3417 -1.6599  1.0215
20312SOL    HW265784   5.759   8.099   0.153 -1.6018  0.8001  1.7718
20313SOL     OW65785   2.571   4.693   0.843  0.2089  0.5791  0.4748
20313SOL    HW165786   2.615   4.768   0.883  0.5358  2.0545 -2.3731
20313SOL    HW265787   2.641   4.631   0.823  0.2071  0.4004  1.0106
20314SOL     OW65788   6.549   9.412   2.655  0.0312 -0.4067  0.6838
20314SOL    HW165789   6.538   9.398   2.561  1.1803  1.8302  0.1502
20314SOL    HW265790   6.477   9.471   2.678  1.6192  1.7481  0.4310
20315SOL     OW65791   5.586   9.794   2.935 -0.1148  0.3752 -0.2750
20315SOL    HW165792   5.607   9.884   2.959 -1.5389  0.0911  2.4628
20315SOL    HW265793   5.491   9.794   2.924 -0.3491 -1.0321  1.2843
20316SOL     OW65794   9.645   6.881   1.111  0.0156  0.3132  0.2945
20316SOL    HW165795   9.567   6.843   1.152  0.8304  0.9206  2.4972
20316SOL    HW265796   9.714   6.816   1.126 -0.4580 -1.4891 -3.9140
20317SOL     OW65797   6.669   6.558   4.057 -0.1337 -0.4030  0.4290
20317SOL    HW165798   6.705   6.482   4.012  2.0957  0.8747 -0.1214
20317SOL    HW265799   6.574   6.547   4.051  0.1026 -2.0314 -1.5671
20318SOL     OW65800   6.008   6.443   1.014  0.1535 -0.1582 -0.4182
20318SOL    HW165801   6.044   6.524   0.978  1.4668 -0.3341  0.4137
20318SOL    HW265802   6.084   6.399   1.052 -0.7221 -1.2866  0.0735
20319SOL     OW65803   5.245   7.870   1.613  0.2044  0.1247  0.2749
20319SOL    HW165804   5.194   7.940   1.573  0.5709  0.1425 -0.1827
20319SOL    HW265805   5.215   7.790   1.570 -1.0965 -0.1719  1.6844
20320SOL     OW65806   6.265   6.345   7.744  1.2196 -0.3867 -0.0221
20320SOL    HW165807   6.336   6.327   7.683  0.8814  1.6311 -1.1012
20320SOL    HW265808   6.294   6.421   7.794  0.7951 -1.0067  1.2228
20321SOL     OW65809   4.005   7.075   0.761 -0.0290  0.0710 -0.5529
20321SOL    HW165810   4.086   7.025   0.768 -0.3611 -0.4571 -0.3631
20321SOL    HW265811   3.952   7.044   0.835  0.0907  1.3408  0.0808
20322SOL     OW65812   7.193   5.350   9.369 -0.5092 -0.1453 -0.5038
20322SOL    HW165813   7.231   5.372   9.283  0.4151 -0.5799 -0.2184
20322SOL    HW265814   7.164   5.434   9.404 -0.9986  0.0260 -1.2824
20323SOL     OW65815   6.698   7.505   0.382  0.0432 -0.5591  0.2287
20323SOL    HW165816   6.637   7.475   0.450 -0.6838 -1.6277 -0.8468
20323SOL    HW265817   6.738   7.584   0.419 -2.1014  0.2859  0.9432
20324SOL     OW65818   5.988   6.702   0.193 -0.1307  0.3163 -0.1098
20324SOL    HW165819   5.998   6.756   0.115  0.1636  0.6508  0.1548
20324SOL    HW265820   5.923   6.748   0.246  0.0122  0.3337  0.0507
20325SOL     OW65821   7.836   8.529   2.415  0.0457 -0.4751 -0.6445
20325SOL    HW165822   7.860   8.595   2.480  0.0681  0.6268 -1.7425
20325SOL    HW265823   7.792   8.460   2.466  0.8118 -0.0464  0.6406
20326SOL     OW65824   6.147   4.751   2.190 -0.9719 -0.2627 -0.5282
20326SOL    HW165825   6.083   4.713   2.250 -0.6121  1.5023  1.0356
20326SOL    HW265826   6.227   4.701   2.205 -1.1709 -0.5200 -0.3207
20327SOL     OW65827   7.400   7.024   3.493 -0.3391  0.5655  0.1376
20327SOL    HW165828   7.492   7.024   3.519 -0.1126  1.1739 -0.6123
20327SOL    HW265829   7.395   6.963   3.419 -0.7374 -0.2148  0.7934
20328SOL     OW65830   5.999   6.658   3.138 -0.1139 -0.4735 -0.1013
20328SOL    HW165831   6.092   6.665   3.117  0.8216 -0.0848  3.4783
20328SOL    HW265832   5.963   6.745   3.121  0.3113 -0.4457 -0.8934
20329SOL     OW65833   5.762   5.977   3.845  0.3343  0.0516  0.2695
20329SOL    HW165834   5.774   5.917   3.918 -2.0961 -2.0553 -0.8692
20329SOL    HW265835   5.849   5.986   3.806  1.6205  0.9488  3.0818
20330SOL     OW65836   6.370   8.728   0.331 -0.2492 -0.0101  0.1948
20330SOL    HW165837   6.313   8.714   0.255 -1.2096  3.0768  0.1711
20330SOL    HW265838   6.311   8.718   0.406  0.3615 -1.6101  0.4848
20331SOL     OW65839   8.061   8.348   0.478  0.2208  0.2184  0.5736
20331SOL    HW165840   7.981   8.395   0.458 -0.0961 -0.0633  1.1549
20331SOL    HW265841   8.105   8.338   0.393  0.0979  1.1852  0.3857
20332SOL     OW65842   6.810   4.301   9.166 -0.3874  0.4688 -0.3498
20332SOL    HW165843   6.782   4.215   9.198 -0.0035  0.6922  0.6271
20332SOL    HW265844   6.767   4.310   9.081  1.1215 -1.5137 -1.4131
20333SOL     OW65845   3.548   9.002   3.346 -0.0935 -0.3246  0.1216
20333SOL    HW165846   3.622   9.025   3.402 -1.1536 -1.6044  2.1881
20333SOL    HW265847   3.485   9.073   3.360 -0.0387 -0.2355 -0.0868
20334SOL     OW65848   4.321   6.469   9.471 -0.1294  0.2179 -0.1132
20334SOL    HW165849   4.232   6.469   9.504  0.7463  0.2310  2.4537
20334SOL    HW265850   4.369   6.527   9.531  1.5270  0.5533 -1.6722
20335SOL     OW65851   5.001   8.792   2.681 -0.7241 -0.1605  0.3401
20335SOL    HW165852   4.990   8.866   2.741  1.1705  0.9411 -0.5740
20335SOL    HW265853   5.006   8.716   2.738 -1.8964  0.4957  1.3676
20336SOL     OW65854   6.714   3.271   1.464 -0.3292  0.1984  0.2143
20336SOL    HW165855   6.623   3.272   1.494 -0.1648 -3.3865  1.2759
20336SOL    HW265856   6.720   3.193   1.409  1.8924  0.9973 -0.7999
20337SOL     OW65857   6.146   7.094   9.211 -0.3128 -0.4081  0.3444
20337SOL    HW165858   6.092   7.111   9.288  0.0143 -0.3035  0.5553
20337SOL    HW265859   6.232   7.130   9.234 -0.0085 -1.0404  0.2282
20338SOL     OW65860   8.403   6.996   9.798  0.3631 -0.2847 -0.0810
20338SOL    HW165861   8.357   6.942   9.733  1.1705 -0.4727 -0.5187
20338SOL    HW265862   8.351   6.988   9.877 -1.4734  1.1536 -1.0840
20339SOL     OW65863   6.319   6.795   4.713  0.3615 -0.3200  0.4189
20339SOL    HW165864   6.243   6.850   4.696 -0.3254 -1.7906 -1.6273
20339SOL    HW265865   6.389   6.856   4.735 -0.6129  1.3042 -0.7781
20340SOL     OW65866   7.699   4.895   9.175  0.0200 -0.0268  0.2336
20340SOL    HW165867   7.665   4.925   9.091  0.9250 -0.1035 -0.1794
20340SOL    HW265868   7.794   4.908   9.168  0.0577  0.4508  1.4484
20341SOL     OW65869   6.612   8.664   8.915  0.3446 -0.0539 -0.6141
20341SOL    HW165870   6.689   8.659   8.973  1.3751  1.3737 -1.7676
20341SOL    HW265871   6.555   8.593   8.945  1.3431 -0.1101  1.3750
20342SOL     OW65872   4.716   6.851   2.278 -0.4477 -0.3950  0.1549
20342SOL    HW165873   4.753   6.935   2.251  1.8590 -1.5594 -0.6376
20342SOL    HW265874   4.712   6.800   2.197 -0.1638 -1.5884  0.8618
20343SOL     OW65875   8.105   6.140   0.824  0.6996  0.4986 -0.7372
20343SOL    HW165876   8.083   6.077   0.891 -0.8557  2.1461  0.4129
20343SOL    HW265877   8.047   6.119   0.751 -0.9830  1.5086  0.2510
20344SOL     OW65878   5.942   6.031   8.653 -0.5545 -0.9205 -0.7025
20344SOL    HW165879   6.005   6.101   8.672 -1.7545  0.4571 -1.6048
20344SOL    HW265880   5.880   6.036   8.726 -0.7792 -0.8905 -0.8979
20345SOL     OW65881   6.944   4.742   8.887  0.0468  0.0881 -0.6036
20345SOL    HW165882   6.976   4.758   8.976 -1.2498  1.6278 -0.3590
20345SOL    HW265883   7.016   4.771   8.831  0.8381 -0.8012 -0.0771
20346SOL     OW65884   6.133   6.545   2.052  0.0980  0.1848  0.2606
20346SOL    HW165885   6.131   6.608   1.980  0.8989 -0.4056 -0.2977
20346SOL    HW265886   6.128   6.599   2.131 -2.3691  0.7699 -0.1999
20347SOL     OW65887   0.402   6.264   1.202  0.5080  0.2375 -0.1643
20347SOL    HW165888   0.431   6.292   1.115 -0.8393  3.3571  0.2641
20347SOL    HW265889   0.313   6.231   1.188  0.3827  0.5037  0.0106
20348SOL     OW65890   6.397   7.425   9.071  0.6300 -0.3369 -0.1107
20348SOL    HW165891   6.323   7.453   9.123  0.5554 -1.0743  0.2009
20348SOL    HW265892   6.470   7.419   9.133  0.7494 -0.3851 -0.2539
20349SOL     OW65893   3.579   7.424   3.367 -0.0782 -0.3435 -0.3509
20349SOL    HW165894   3.595   7.514   3.339  1.8550 -0.6569 -0.3793
20349SOL    HW265895   3.518   7.389   3.302  0.5202  0.4133 -1.3487
20350SOL     OW65896   6.693   5.037   0.319  0.0294  0.0157 -0.1557
20350SOL    HW165897   6.714   5.116   0.269  0.0258 -0.7754 -1.4491
20350SOL    HW265898   6.775   4.989   0.324 -0.2628 -0.5416 -0.5779
20351SOL     OW65899   4.780   3.100   0.034 -0.9007  0.3395 -0.0299
20351SOL    HW165900   4.756   3.072  -0.055 -0.3943  1.0662 -0.4081
20351SOL    HW265901   4.787   3.196   0.027  0.3075  0.2984  0.5076
20352SOL     OW65902   5.182   5.656   1.233  0.3765 -0.0860  0.5042
20352SOL    HW165903   5.262   5.681   1.186 -0.4759  2.1977  0.1204
20352SOL    HW265904   5.208   5.581   1.287  2.1087 -0.9910 -1.4571
20353SOL     OW65905   2.986   5.988   2.354  0.1183  0.1195 -0.0438
20353SOL    HW165906   2.985   6.083   2.338  0.2877 -0.2491 -2.6908
20353SOL    HW265907   3.065   5.974   2.406  0.3391  1.3618  0.0024
20354SOL     OW65908   4.932   6.997   8.479  0.1008 -0.2325 -0.1321
20354SOL    HW165909   4.927   6.901   8.480 -2.4192 -0.1789 -0.6458
20354SOL    HW265910   4.927   7.020   8.386 -1.1536  0.4333  0.0857
20355SOL     OW65911   7.305   6.389   0.855  1.0774 -0.2015 -0.6485
20355SOL    HW165912   7.296   6.391   0.951 -0.1823  2.3598 -0.7189
20355SOL    HW265913   7.262   6.307   0.829 -1.1583  0.3802  0.8530
20356SOL     OW65914   6.694   8.628   1.737  0.2276 -0.4782  0.4297
20356SOL    HW165915   6.627   8.628   1.805 -0.2802 -0.9234 -0.0579
20356SOL    HW265916   6.709   8.720   1.717 -0.8500 -0.3951 -0.0424
20357SOL     OW65917   7.356   6.085   1.621  0.4259 -0.1647 -0.2405
20357SOL    HW165918   7.418   6.138   1.571  0.1163 -0.4488 -0.9462
20357SOL    HW265919   7.330   6.140   1.695  0.0504  0.7013 -0.9985
20358SOL     OW65920   6.360   5.681   1.675 -0.6471  0.2536  0.0706
20358SOL    HW165921   6.324   5.593   1.689  0.4263 -0.0179  1.2842
20358SOL    HW265922   6.376   5.685   1.581 -0.9468 -0.7584 -0.0392
20359SOL     OW65923   4.971   8.140   2.153  0.2991  0.1106  0.0150
20359SOL    HW165924   5.030   8.151   2.228 -0.8780  0.6385  0.8888
20359SOL    HW265925   4.901   8.085   2.186 -0.0374  0.0325 -0.8178
20360SOL     OW65926   4.094   8.557   2.442  0.2252  0.1560  0.4620
20360SOL    HW165927   4.010   8.556   2.396  1.3208  0.1471 -1.6986
20360SOL    HW265928   4.127   8.467   2.433 -0.8209 -0.7650  4.0625
20361SOL     OW65929   6.681   5.277   5.503  0.3258 -0.2282  0.2377
20361SOL    HW165930   6.677   5.228   5.421 -0.7103  0.3086 -0.0496
20361SOL    HW265931   6.623   5.230   5.562  1.2910 -0.7802  0.7779
20362SOL     OW65932   8.177   6.643   0.949  0.1338 -0.0746  0.0995
20362SOL    HW165933   8.237   6.667   0.879  0.2338  0.4564  0.3657
20362SOL    HW265934   8.195   6.705   1.019  1.1500 -1.5527  1.2209
20363SOL     OW65935   4.979   4.820   0.416  0.1428  0.7304  0.0979
20363SOL    HW165936   4.893   4.847   0.382  0.7076  0.8211 -1.3347
20363SOL    HW265937   4.995   4.735   0.376 -0.2143 -0.3163  2.0840
20364SOL     OW65938   3.609   6.363   9.750  0.0974  0.0854  0.2003
20364SOL    HW165939   3.555   6.428   9.795 -0.7742  0.4446 -1.2865
20364SOL    HW265940   3.554   6.333   9.677  1.1963 -0.9486 -0.2300
20365SOL     OW65941   4.627   7.308   1.762  0.7963 -0.0035 -0.2375
20365SOL    HW165942   4.623   7.364   1.685  1.1253  2.8430  1.6442
20365SOL    HW265943   4.543   7.320   1.806  0.0406 -2.6986 -0.7503
20366SOL     OW65944   6.968   5.744   1.640  0.2720 -0.6897 -0.1945
20366SOL    HW165945   6.969   5.740   1.735 -0.7946  0.1694 -0.1242
20366SOL    HW265946   7.055   5.775   1.616 -0.2422  1.6980  0.6892
20367SOL     OW65947   4.758   5.226   9.001  0.0730 -0.5311  0.1178
20367SOL    HW165948   4.841   5.200   8.959  1.4263 -1.2167  2.9844
20367SOL    HW265949   4.775   5.314   9.034 -1.1979  0.2561 -1.2105
20368SOL     OW65950   8.362   6.792   2.301 -0.2485 -0.4516  0.3450
20368SOL    HW165951   8.408   6.825   2.378  1.3565 -0.7335 -0.4644
20368SOL    HW265952   8.369   6.861   2.236  0.7269 -1.2413 -0.4245
20369SOL     OW65953   4.225   6.450   4.989 -0.1796 -0.1049  0.1876
20369SOL    HW165954   4.288   6.453   5.062 -0.0107  0.2452  0.0316
20369SOL    HW265955   4.222   6.541   4.957  0.4043 -0.4177 -0.7903
20370SOL     OW65956   5.165   6.361   8.957 -0.1541  0.7953 -0.2618
20370SOL    HW165957   5.139   6.368   9.049 -1.8395 -1.7950 -0.4568
20370SOL    HW265958   5.258   6.337   8.961 -0.6567 -1.1682  0.8851
20371SOL     OW65959   5.564   1.035   4.195  0.0856 -0.0863  0.3560
20371SOL    HW165960   5.641   1.017   4.142  0.7755 -0.0467  1.3128
20371SOL    HW265961   5.588   1.113   4.246 -1.0517  0.6705 -0.2234
20372SOL     OW65962   8.191   6.971   9.387  0.3798  0.2339  0.5282
20372SOL    HW165963   8.105   6.950   9.351 -0.2550  1.9961  0.9067
20372SOL    HW265964   8.252   6.955   9.315 -0.5910  1.5156 -0.6136
20373SOL     OW65965   7.213   4.176   8.290 -0.0458 -0.0524 -0.0856
20373SOL    HW165966   7.152   4.102   8.293 -1.2780  0.9575  1.3406
20373SOL    HW265967   7.245   4.185   8.379  0.9718  0.4481 -0.4859
20374SOL     OW65968   8.639   7.111   1.759  0.0875 -0.0355  0.1178
20374SOL    HW165969   8.588   7.144   1.686  0.1825  0.3994  0.2463
20374SOL    HW265970   8.591   7.138   1.837  1.9382  3.0128  0.3942
20375SOL     OW65971   8.939   4.656   0.659  0.0072  0.2537  0.1399
20375SOL    HW165972   8.895   4.666   0.744  0.4188  3.6931  0.0752
20375SOL    HW265973   8.868   4.657   0.595 -0.1793 -0.3804  0.3302
20376SOL     OW65974   5.883   6.083   9.431 -0.2741  1.0331  0.1916
20376SOL    HW165975   5.850   6.123   9.512 -1.0081  1.6282 -0.3906
20376SOL    HW265976   5.963   6.133   9.411 -0.3308  1.1738  0.3160
20377SOL     OW65977   7.227   5.755   3.564  0.1656 -0.2024 -0.3766
20377SOL    HW165978   7.305   5.771   3.511 -0.4726  0.1127 -1.2326
20377SOL    HW265979   7.247   5.795   3.649  0.8127  0.1320 -0.6839
20378SOL     OW65980   7.143   6.774   1.505  0.1299 -0.0303 -0.0646
20378SOL    HW165981   7.171   6.742   1.591  0.1507 -0.2768 -0.1637
20378SOL    HW265982   7.172   6.865   1.503  1.9432 -0.5865 -0.6105
20379SOL     OW65983   6.932   7.094   0.076 -0.2221  0.1026 -0.7527
20379SOL    HW165984   6.942   7.045  -0.006 -0.7207 -0.7232 -0.3432
20379SOL    HW265985   6.978   7.041   0.141  0.7409  1.0893 -0.6034
20380SOL     OW65986   4.486   7.866   0.124  0.3841  0.1619  0.4590
20380SOL    HW165987   4.413   7.850   0.064  1.2892  0.4840 -0.7753
20380SOL    HW265988   4.532   7.783   0.128  0.9221  0.4239 -0.1416
20381SOL     OW65989   4.763   6.263   1.805  0.3548 -0.0340 -0.6278
20381SOL    HW165990   4.705   6.217   1.866  0.2047 -0.0376 -0.7751
20381SOL    HW265991   4.761   6.354   1.835  0.1929 -0.0151 -0.6961
20382SOL     OW65992   6.271   5.246   1.201  0.2545  0.3799  0.9609
20382SOL    HW165993   6.350   5.295   1.179  0.5249  0.9914  3.0624
20382SOL    HW265994   6.216   5.252   1.123  2.0289  0.4158 -0.3440
20383SOL     OW65995   7.487   6.125   3.234  0.6034  0.0613  0.0410
20383SOL    HW165996   7.559   6.085   3.284  1.5325  2.3331  0.6766
20383SOL    HW265997   7.440   6.177   3.299 -1.5344 -1.1762 -0.4275
20384SOL     OW65998   4.371   7.137   0.383  0.1414 -0.7989 -0.2798
20384SOL    HW165999   4.287   7.092   0.374  0.0956 -0.9373  0.7684
20384SOL    HW266000   4.349   7.223   0.420  0.4862 -0.9360  0.2521
20385SOL     OW66001   6.112   5.928   0.935  0.1749  0.1106 -0.2052
20385SOL    HW166002   6.096   5.969   0.850  0.6165  0.3000 -0.1987
20385SOL    HW266003   6.200   5.890   0.927 -0.2706 -0.9388 -0.2554
20386SOL     OW66004   3.681   5.452   3.793 -0.0908  0.1289  0.0515
20386SOL    HW166005   3.715   5.397   3.864 -1.6218 -0.9220  0.0360
20386SOL    HW266006   3.609   5.500   3.834 -1.3251 -0.8652 -0.8618
20387SOL     OW66007   5.544   5.260   2.046  0.2247  0.0344  0.0466
20387SOL    HW166008   5.600   5.209   1.988  0.2119 -1.4568  1.2861
20387SOL    HW266009   5.604   5.312   2.099  0.4492 -1.2717  1.1087
20388SOL     OW66010   7.625   5.515   3.522 -0.7857  0.4512 -0.1840
20388SOL    HW166011   7.591   5.455   3.456 -0.8603 -0.8603  0.9938
20388SOL    HW266012   7.708   5.477   3.548 -0.3340  1.4388 -0.1481
20389SOL     OW66013   7.414   7.054   2.443 -0.3638  0.3925  0.0261
20389SOL    HW166014   7.432   7.043   2.536  1.8426  1.0730 -0.2611
20389SOL    HW266015   7.457   6.979   2.402 -1.2084  0.1687 -0.4664
20390SOL     OW66016   8.878   5.354   2.213 -0.0549  0.0589  0.2563
20390SOL    HW166017   8.950   5.398   2.258  0.2325 -0.5552  0.4092
20390SOL    HW266018   8.901   5.261   2.216  0.5524  0.0712 -2.2075
20391SOL     OW66019   7.822   4.569   3.954  0.3216  0.0369  0.2043
20391SOL    HW166020   7.906   4.549   3.911 -0.6687  0.7766 -2.2676
20391SOL    HW266021   7.807   4.662   3.934 -0.9140  0.0060  0.9198
20392SOL     OW66022   7.349   5.633   1.982  0.1559  0.2978  0.1542
20392SOL    HW166023   7.300   5.556   1.950  1.3997 -0.5050  0.1371
20392SOL    HW266024   7.335   5.632   2.076  0.7988 -0.4101  0.2496
20393SOL     OW66025   6.745   6.430   0.302 -0.1112  0.1631  0.2227
20393SOL    HW166026   6.729   6.436   0.396 -1.7068  1.1726 -0.0691
20393SOL    HW266027   6.675   6.482   0.263 -0.4132 -1.4893 -1.5958
20394SOL     OW66028   7.258   8.727   2.118  0.7559 -0.0847  0.3435
20394SOL    HW166029   7.352   8.719   2.132  0.9638  2.3979  0.7610
20394SOL    HW266030   7.237   8.817   2.143 -1.6240 -0.3697 -0.3582
20395SOL     OW66031   3.668   6.753   4.416 -0.5089 -0.1645 -0.1512
20395SOL    HW166032   3.640   6.671   4.376 -1.0604 -0.8542  1.5569
20395SOL    HW266033   3.673   6.815   4.343 -0.3407 -1.6293 -1.4383
20396SOL     OW66034   8.588   6.691   9.836 -0.5011 -0.0761  0.0099
20396SOL    HW166035   8.673   6.696   9.881  0.1902  0.5419 -1.2840
20396SOL    HW266036   8.532   6.751   9.884  0.3050  0.7923 -0.1001
20397SOL     OW66037   6.966   7.108   1.217 -0.2090 -0.1096 -0.2755
20397SOL    HW166038   6.980   7.025   1.263 -0.3617  1.0376  1.9435
20397SOL    HW266039   6.967   7.083   1.124  2.7114 -2.1508  0.1547
20398SOL     OW66040   8.214   6.519   6.135 -0.4749 -0.6699 -0.0777
20398SOL    HW166041   8.192   6.591   6.075 -1.6661 -1.6129 -0.8256
20398SOL    HW266042   8.304   6.496   6.112 -0.6927 -0.5889 -1.0801
20399SOL     OW66043   3.511   6.759   6.032  0.1522  0.0494 -0.2448
20399SOL    HW166044   3.533   6.774   5.940 -2.7900 -0.9842 -1.2163
20399SOL    HW266045   3.539   6.839   6.076  0.5467  1.0868 -2.2328
20400SOL     OW66046   7.771   8.429   4.352 -0.3667  0.4758  0.3786
20400SOL    HW166047   7.687   8.474   4.339 -0.4585  0.4254  0.7829
20400SOL    HW266048   7.780   8.373   4.275  0.2618  1.9578 -0.6677
20401SOL     OW66049   9.471   4.491   2.810  0.9461  0.3877 -0.0655
20401SOL    HW166050   9.391   4.541   2.825 -0.9474 -2.5173  0.3766
20401SOL    HW266051   9.481   4.488   2.715  0.2448  0.3916 -0.1427
20402SOL     OW66052   5.368   7.397   1.312 -0.1385 -0.4382  0.0255
20402SOL    HW166053   5.415   7.441   1.383 -0.1039 -0.4935  0.0371
20402SOL    HW266054   5.382   7.454   1.236  1.0570 -1.1201 -0.2896
20403SOL     OW66055   5.829   0.088   2.260 -0.5530 -0.3686 -0.5042
20403SOL    HW166056   5.881   0.009   2.244  0.3402  0.1824 -0.3820
20403SOL    HW266057   5.844   0.143   2.183  2.9943  1.8807  1.5058
20404SOL     OW66058   4.054   5.571   1.451  0.0684 -0.2020 -0.5362
20404SOL    HW166059   4.026   5.503   1.513  2.9787 -0.4144  0.6909
20404SOL    HW266060   4.015   5.651   1.485  1.5920 -0.3145  1.6581
20405SOL     OW66061   7.639   4.734   1.708 -0.4337  0.2873  0.2767
20405SOL    HW166062   7.666   4.650   1.744  1.1868  1.1575  1.2214
20405SOL    HW266063   7.544   4.725   1.694 -0.4740 -1.3254  1.3475
20406SOL     OW66064   4.737   7.544   0.914 -0.4156 -0.0799 -0.0724
20406SOL    HW166065   4.711   7.635   0.906  0.1989  0.0492 -0.7008
20406SOL    HW266066   4.777   7.537   1.001  1.7135  0.8343 -0.9044
20407SOL     OW66067   7.024   6.477   0.287  0.5800  0.2721  0.7379
20407SOL    HW166068   6.931   6.454   0.286  0.5165 -0.2578 -4.3011
20407SOL    HW266069   7.066   6.404   0.332 -1.2485 -0.4262  1.3970
20408SOL     OW66070   5.675   7.842   1.230 -0.5251 -0.1244 -0.0607
20408SOL    HW166071   5.645   7.886   1.150  1.2788  4.0096  1.2682
20408SOL    HW266072   5.618   7.877   1.299  0.5977 -0.2842  0.9919
20409SOL     OW66073   5.384   7.665   3.372  0.2795 -0.5050 -0.0821
20409SOL    HW166074   5.372   7.625   3.286  0.1707 -2.3856  0.7603
20409SOL    HW266075   5.459   7.724   3.361 -0.0367 -0.3436 -1.5672
20410SOL     OW66076   5.721   6.455   6.708  0.0763 -0.3445  0.3180
20410SOL    HW166077   5.756   6.514   6.641  0.3378 -0.5291  0.2920
20410SOL    HW266078   5.791   6.390   6.722  0.0532 -0.2587  0.8272
20411SOL     OW66079   4.386   4.406   1.817 -0.1903  0.3143 -0.1834
20411SOL    HW166080   4.452   4.369   1.876  0.6436  2.1140  0.0841
20411SOL    HW266081   4.312   4.344   1.822  0.2334 -0.1221  1.9784
20412SOL     OW66082   6.121   4.191   2.584  0.5597 -0.7047  0.2503
20412SOL    HW166083   6.170   4.142   2.650  1.7570 -1.2314 -0.9729
20412SOL    HW266084   6.179   4.192   2.507 -0.5327  0.3947 -0.6051
20413SOL     OW66085   7.240   8.998   2.125  0.1911  0.1759  0.2500
20413SOL    HW166086   7.158   9.037   2.096  0.7913  1.3927  0.1215
20413SOL    HW266087   7.308   9.058   2.094  1.1487 -0.8684  0.2371
20414SOL     OW66088   6.148   6.959   4.248  0.4702  0.3886 -0.2039
20414SOL    HW166089   6.076   6.911   4.289 -0.0354  2.4347  1.4398
20414SOL    HW266090   6.125   6.962   4.156  0.5368 -2.4512 -0.4157
20415SOL     OW66091   3.174   5.947   1.437 -0.2299  0.1340  0.4766
20415SOL    HW166092   3.110   6.017   1.448 -1.1737 -0.3712 -1.4309
20415SOL    HW266093   3.143   5.877   1.494 -1.2868 -0.0266 -0.2747
20416SOL     OW66094   8.154   7.194   1.726  0.1718  0.6098  0.1005
20416SOL    HW166095   8.214   7.260   1.760  0.2869  1.1650 -1.1258
20416SOL    HW266096   8.201   7.111   1.736  1.2103  1.0443 -0.9408
20417SOL     OW66097   8.804   0.419   2.374  0.3366 -0.0621 -0.0608
20417SOL    HW166098   8.755   0.425   2.456 -0.9538  0.0325 -0.8093
20417SOL    HW266099   8.887   0.462   2.393  0.7104 -1.4492  1.6497
20418SOL     OW66100   3.289   7.407   2.210 -0.2108  0.0180 -0.3477
20418SOL    HW166101   3.355   7.428   2.144 -0.6259 -1.9768 -1.4890
20418SOL    HW266102   3.207   7.404   2.161 -0.7035 -0.3340  0.4871
20419SOL     OW66103   5.910   6.604   5.761  0.1108 -0.0803 -0.0244
20419SOL    HW166104   5.901   6.627   5.853 -0.2095  0.6893 -0.2401
20419SOL    HW266105   5.821   6.587   5.731  0.2526 -0.7564 -0.0984
20420SOL     OW66106   6.109   4.941   3.011  0.4941 -0.2549  0.2807
20420SOL    HW166107   6.130   4.885   3.085 -1.1036 -1.2016  0.0550
20420SOL    HW266108   6.104   4.882   2.936  0.1401  0.3859 -0.2181
20421SOL     OW66109   5.440   6.434   2.874  0.0544  0.4663 -0.3817
20421SOL    HW166110   5.357   6.481   2.869 -0.3318 -0.3234 -2.7056
20421SOL    HW266111   5.418   6.353   2.919  0.0678  1.1877  0.9573
20422SOL     OW66112   6.248   7.590   1.447  0.3061 -0.0144 -0.0866
20422SOL    HW166113   6.163   7.630   1.465  0.6034  1.5371 -1.8225
20422SOL    HW266114   6.227   7.508   1.403 -0.2845 -0.8603  1.6743
20423SOL     OW66115   6.614   7.736   2.323  0.5648 -0.2521  0.1712
20423SOL    HW166116   6.544   7.773   2.269 -1.1374 -0.8282  1.8801
20423SOL    HW266117   6.672   7.810   2.342 -0.2123  0.4885 -0.2966
20424SOL     OW66118   5.065   7.486   3.008  0.0686 -0.1407 -0.1271
20424SOL    HW166119   5.004   7.414   2.990  0.9203 -0.5347 -1.5075
20424SOL    HW266120   5.151   7.445   3.012  0.4156  0.6169  0.4314
20425SOL     OW66121   7.523   6.217   2.982  0.6127  0.1666  0.3551
20425SOL    HW166122   7.545   6.195   3.073  2.1983  0.6023  0.1085
20425SOL    HW266123   7.545   6.310   2.974  0.4332  0.1446 -0.4730
20426SOL     OW66124   5.278   8.400   0.082  0.0246 -0.1746  0.0244
20426SOL    HW166125   5.275   8.359   0.169 -1.4726 -0.5724 -0.1890
20426SOL    HW266126   5.291   8.326   0.022 -2.4481 -0.3945 -0.3440
20427SOL     OW66127   7.127   6.082   3.792  0.2260  0.1748 -1.0696
20427SOL    HW166128   7.199   6.020   3.781  1.4776  1.3041  0.2853
20427SOL    HW266129   7.066   6.037   3.852  0.5312 -0.2076 -1.0397
20428SOL     OW66130   6.687   6.934   0.885  0.0157  0.0395 -0.6204
20428SOL    HW166131   6.672   6.994   0.958  0.5983 -0.5122 -0.0345
20428SOL    HW266132   6.647   6.978   0.810  0.5542  1.2319 -0.2397
20429SOL     OW66133   6.506   5.511   3.454  0.5073  0.5227  0.3254
20429SOL    HW166134   6.486   5.545   3.541 -0.8758  0.8449 -0.0831
20429SOL    HW266135   6.505   5.416   3.464  1.5049  0.5665  0.8902
20430SOL     OW66136   3.958   7.960   2.097 -0.0833  0.5177  0.0642
20430SOL    HW166137   3.949   8.047   2.058  2.5390  1.0208  0.3406
20430SOL    HW266138   3.992   7.976   2.185  3.6967 -0.6957 -0.9671
20431SOL     OW66139   3.442   5.898   3.752  0.7950  0.0650  0.1812
20431SOL    HW166140   3.449   5.987   3.784 -0.2857 -0.4333  1.9452
20431SOL    HW266141   3.417   5.907   3.660 -2.7895  1.6535  1.1519
20432SOL     OW66142   4.871   7.812   4.732  0.8460  0.7610  0.5969
20432SOL    HW166143   4.808   7.851   4.793 -0.8262  0.7588 -1.0485
20432SOL    HW266144   4.895   7.885   4.674 -1.6682 -0.2733 -1.9829
20433SOL     OW66145   6.267   7.839   2.246  0.0384 -0.0462  0.6035
20433SOL    HW166146   6.181   7.818   2.282 -0.2613  1.4469  0.8456
20433SOL    HW266147   6.299   7.910   2.302  1.2403 -0.2912  0.2464
20434SOL     OW66148   8.716   5.709   1.853  0.8852 -0.7501  0.4855
20434SOL    HW166149   8.691   5.644   1.918  0.1492 -3.0878 -1.9513
20434SOL    HW266150   8.811   5.716   1.860  0.9988 -2.2729  0.6928
20435SOL     OW66151   6.809   7.273   1.385 -0.8457  0.3996  0.5457
20435SOL    HW166152   6.840   7.231   1.465  0.7963  1.0949  0.3259
20435SOL    HW266153   6.847   7.220   1.314 -1.4060  0.3998  0.2428
20436SOL     OW66154   6.948   6.378   4.300 -0.3915  0.1877 -0.6019
20436SOL    HW166155   6.877   6.314   4.294 -1.6635  1.5144 -0.2486
20436SOL    HW266156   6.903   6.462   4.309  1.2247  0.8710  1.8809
20437SOL     OW66157   5.924   6.385   3.175 -0.2371  0.3825  0.2013
20437SOL    HW166158   5.923   6.479   3.194 -0.3938  0.0166  2.1395
20437SOL    HW266159   5.844   6.370   3.123  0.3344  1.4575 -1.0536
20438SOL     OW66160   6.110   9.345   8.868  0.0076  0.3780 -0.0219
20438SOL    HW166161   6.183   9.284   8.870 -0.6710 -0.4554 -0.3987
20438SOL    HW266162   6.136   9.411   8.803 -0.2025 -0.7403 -1.2910
20439SOL     OW66163   6.888   7.163   4.450  0.6164  0.5297 -0.6281
20439SOL    HW166164   6.846   7.206   4.524  0.3456 -0.0832 -0.4226
20439SOL    HW266165   6.981   7.184   4.460  0.8999 -1.1915  1.0459
20440SOL     OW66166   7.611   6.665   1.221  0.1549 -0.4267  0.2457
20440SOL    HW166167   7.569   6.593   1.267  1.3524 -0.6801  1.0045
20440SOL    HW266168   7.672   6.701   1.285  0.9447  0.0449 -0.7464
20441SOL     OW66169   5.082   7.243   0.269 -0.9590  0.0483  0.0814
20441SOL    HW166170   4.989   7.222   0.274 -0.7884 -0.3759  2.1295
20441SOL    HW266171   5.116   7.182   0.203 -2.1870  0.5541 -1.0740
20442SOL     OW66172   6.366   6.240   3.429 -0.2451 -0.0100 -0.0291
20442SOL    HW166173   6.418   6.250   3.509 -2.4730  0.8557  1.4092
20442SOL    HW266174   6.310   6.164   3.446 -1.5267  0.8547 -0.2841
20443SOL     OW66175   6.791   9.598   1.873 -0.4292 -0.1684 -0.2585
20443SOL    HW166176   6.844   9.605   1.953 -1.0662 -1.9383  0.3813
20443SOL    HW266177   6.776   9.688   1.846  2.1636  0.4298  0.0268
20444SOL     OW66178   5.254   5.415   2.332 -0.0505 -0.0356 -0.1159
20444SOL    HW166179   5.232   5.336   2.282  0.9116 -0.4410  0.0870
20444SOL    HW266180   5.275   5.480   2.266 -0.4839 -0.0506 -0.2744
20445SOL     OW66181   8.055   4.491   3.847 -0.3358 -0.4920 -0.7911
20445SOL    HW166182   8.106   4.555   3.898 -0.1280 -1.5330  0.3758
20445SOL    HW266183   8.111   4.413   3.845 -1.0283 -0.9833 -1.2655
20446SOL     OW66184   4.527   7.099   2.341 -0.0257 -0.2953 -0.2126
20446SOL    HW166185   4.522   7.194   2.337 -1.7983 -0.3577 -0.3740
20446SOL    HW266186   4.572   7.074   2.260 -0.2649  0.3657 -0.5557
20447SOL     OW66187   4.454   6.587   3.047 -0.2532  0.6911  1.0495
20447SOL    HW166188   4.485   6.511   3.098 -0.2576  0.0032  0.0595
20447SOL    HW266189   4.490   6.572   2.960 -2.3950  0.4728  0.1471
20448SOL     OW66190   7.349   5.443   3.090 -0.3311 -0.0339  0.2072
20448SOL    HW166191   7.305   5.409   3.168  1.5364  0.6535  1.6204
20448SOL    HW266192   7.383   5.528   3.116 -0.2167  0.5117 -1.5810
20449SOL     OW66193   7.729   8.258   4.553 -0.0845  0.3920 -0.9953
20449SOL    HW166194   7.709   8.304   4.634 -2.0106 -0.4530 -0.9190
20449SOL    HW266195   7.743   8.328   4.489 -0.1011  1.0730 -0.2733
20450SOL     OW66196   7.039   6.736   0.086 -0.8992 -0.3962 -0.3809
20450SOL    HW166197   6.994   6.660   0.049 -0.0291 -1.1482  0.0766
20450SOL    HW266198   7.011   6.810   0.031 -2.3304 -0.9014 -0.3907
20451SOL     OW66199   5.513   7.572   0.843 -0.8614  0.2806 -0.3569
20451SOL    HW166200   5.601   7.553   0.811 -0.3835 -1.9826  1.9450
20451SOL    HW266201   5.524   7.650   0.899  0.3122 -1.4305  1.9600
20452SOL     OW66202   7.152   6.937   3.201  0.4470 -0.0821  0.1059
20452SOL    HW166203   7.122   6.849   3.178  0.8821 -0.0013 -0.8113
20452SOL    HW266204   7.241   6.942   3.166  0.3339  0.8146 -0.0804
20453SOL     OW66205   6.404   6.279   3.703 -0.1576  0.3849 -0.0299
20453SOL    HW166206   6.398   6.374   3.698  3.8184  0.7299 -1.1865
20453SOL    HW266207   6.424   6.260   3.794  1.0289  0.8867 -0.1722
20454SOL     OW66208   6.070   7.332   5.003 -0.0750 -0.4387  0.2097
20454SOL    HW166209   5.995   7.277   5.026  0.9260 -3.2776 -2.5317
20454SOL    HW266210   6.045   7.373   4.920 -0.1710  2.1511  1.4266
20455SOL     OW66211   6.062   5.755   2.021  0.2745 -0.1216  0.3212
20455SOL    HW166212   6.016   5.786   2.099 -0.9577 -0.2684 -0.3137
20455SOL    HW266213   6.003   5.690   1.983  0.8010  0.0268 -0.7902
20456SOL     OW66214   6.983   6.948   2.144 -0.3528 -0.3831 -0.1183
20456SOL    HW166215   7.020   6.870   2.185  0.4548 -1.0620 -2.0403
20456SOL    HW266216   7.059   7.004   2.127 -0.8362  0.4985  0.5282
20457SOL     OW66217   6.539   8.943   3.698  0.0225 -0.1021  0.2838
20457SOL    HW166218   6.624   8.902   3.685  0.0635  0.1261 -0.1885
20457SOL    HW266219   6.519   8.928   3.790  0.1173 -1.0238  0.1588
20458SOL     OW66220   6.707   8.078   2.052  0.6417 -0.0332 -0.1833
20458SOL    HW166221   6.696   8.124   2.136  2.3195 -1.8493  1.1460
20458SOL    HW266222   6.637   8.013   2.051 -0.0135  0.6665 -0.7166
20459SOL     OW66223   6.841   8.371   2.852 -0.1108  0.1629 -0.2017
20459SOL    HW166224   6.837   8.338   2.762  1.3409 -0.4755 -0.0672
20459SOL    HW266225   6.848   8.466   2.842  0.7014  0.0551 -0.8059
20460SOL     OW66226   3.885   6.563   3.661 -0.0454 -0.2480  0.0217
20460SOL    HW166227   3.966   6.539   3.616 -0.0981 -0.9644  0.2901
20460SOL    HW266228   3.856   6.481   3.702 -2.2091 -0.6090 -2.0631
20461SOL     OW66229   6.783   7.852   3.555  0.2242  0.2716 -0.0244
20461SOL    HW166230   6.831   7.778   3.591  0.7166  0.7376  0.3050
20461SOL    HW266231   6.849   7.903   3.508  0.4019  1.7102  1.6708
20462SOL     OW66232   5.042   7.398   1.963  0.3551  0.0867 -0.0932
20462SOL    HW166233   5.095   7.414   2.041  0.0027  0.6467  0.0364
20462SOL    HW266234   5.105   7.368   1.897  0.6525 -0.4172  0.4064
20463SOL     OW66235   8.385   8.753   1.344  0.2928 -0.3983 -0.7887
20463SOL    HW166236   8.470   8.733   1.306  0.4446 -0.2879 -0.5084
20463SOL    HW266237   8.341   8.806   1.277  0.8776  0.4971 -0.4857
20464SOL     OW66238   7.253   6.835   1.898 -0.3077 -0.0744  0.1272
20464SOL    HW166239   7.294   6.751   1.877  0.5375  0.4322 -0.3526
20464SOL    HW266240   7.299   6.865   1.976 -0.0312  0.3077 -0.1755
20465SOL     OW66241   6.361   5.839   0.990 -0.5245  0.0877 -0.2686
20465SOL    HW166242   6.454   5.852   0.969 -0.1822  0.1859  1.2093
20465SOL    HW266243   6.358   5.753   1.032 -1.0701  0.1898 -0.0998
20466SOL     OW66244   8.417   5.744   1.797  0.8088  0.7248 -0.0730
20466SOL    HW166245   8.501   5.702   1.815  0.0399 -0.9373 -0.1502
20466SOL    HW266246   8.362   5.674   1.762 -1.2954  1.1862  2.0232
20467SOL     OW66247   7.163   5.427   2.101  0.1287 -0.4237 -0.4270
20467SOL    HW166248   7.183   5.334   2.095 -1.4762 -0.7828 -0.5644
20467SOL    HW266249   7.230   5.462   2.161  1.0532 -1.5469 -0.7742
20468SOL     OW66250   7.658   5.971   0.516  0.0740 -0.3719 -0.4631
20468SOL    HW166251   7.691   6.058   0.539 -0.7034 -0.3577  0.6949
20468SOL    HW266252   7.708   5.911   0.572 -1.6222 -0.3663  1.1523
20469SOL     OW66253   7.548   6.535   3.925 -0.0969  0.2565  0.5930
20469SOL    HW166254   7.611   6.464   3.941  1.4576  0.8593 -2.2555
20469SOL    HW266255   7.524   6.565   4.013  2.6048 -0.8927  1.8442
20470SOL     OW66256   7.052   7.439   4.186  0.1904  0.3050 -0.5513
20470SOL    HW166257   7.050   7.531   4.213  0.9391  0.7239 -1.8111
20470SOL    HW266258   6.976   7.399   4.230  0.8939  1.0766  1.4543
20471SOL     OW66259   5.031   8.911   4.074  0.1141 -0.6164  0.1067
20471SOL    HW166260   5.115   8.954   4.057 -0.3123  0.1978  0.0249
20471SOL    HW266261   4.973   8.941   4.004 -0.7854  0.3626  1.2121
20472SOL     OW66262   6.157   8.978   2.288 -0.5211  0.6099  0.0404
20472SOL    HW166263   6.110   8.895   2.277 -2.8192  1.6337  1.3248
20472SOL    HW266264   6.090   9.045   2.271 -0.0407  2.1758  3.5522
20473SOL     OW66265   6.978   5.698   3.264 -0.0806  0.7243  0.3734
20473SOL    HW166266   6.931   5.730   3.342  0.3272  2.3106  0.0029
20473SOL    HW266267   7.067   5.732   3.274  0.1884  0.2670 -0.4004
20474SOL     OW66268   4.986   6.115   1.716 -0.0131 -0.7562  0.4553
20474SOL    HW166269   5.054   6.180   1.734  0.5502 -0.5739 -2.0391
20474SOL    HW266270   4.904   6.163   1.729  0.3881  0.2390 -0.5374
20475SOL     OW66271   6.507   7.252   1.444 -0.4004 -0.2489  0.4249
20475SOL    HW166272   6.600   7.271   1.437  0.0298 -1.4698  2.1110
20475SOL    HW266273   6.486   7.269   1.536 -1.9688  0.4933 -0.0440
20476SOL     OW66274   6.013   9.443   2.145 -0.2926 -0.3749 -0.7573
20476SOL    HW166275   6.089   9.467   2.093  0.1114  0.3291  0.1204
20476SOL    HW266276   5.947   9.416   2.082  0.4221 -0.2252 -1.5758
20477SOL     OW66277   6.283   5.626   4.000 -0.5838  0.0942 -0.4010
20477SOL    HW166278   6.270   5.715   3.968  1.8800  1.1420  1.2748
20477SOL    HW266279   6.319   5.579   3.925  0.5278  1.2241 -0.6120
20478SOL     OW66280   6.851   0.870   2.217  0.6520  0.3598  0.0131
20478SOL    HW166281   6.909   0.849   2.290  0.3350  0.7629  0.3891
20478SOL    HW266282   6.802   0.947   2.247 -1.3208 -0.9806  0.4168
20479SOL     OW66283   5.423   8.035   2.540 -0.4081 -0.4277  0.3656
20479SOL    HW166284   5.501   8.089   2.545 -1.0753  0.4852  1.3930
20479SOL    HW266285   5.453   7.951   2.505  0.8624  0.1950 -0.0696
20480SOL     OW66286   6.454   5.377   2.481  0.4703  0.5523 -0.2794
20480SOL    HW166287   6.441   5.447   2.546 -0.7001  0.1196 -0.0195
20480SOL    HW266288   6.523   5.410   2.424 -0.1413  1.9851 -0.2424
20481SOL     OW66289   7.684   6.218   2.170  0.3387  0.1962  0.2596
20481SOL    HW166290   7.669   6.260   2.255 -0.1734 -1.5948  1.1006
20481SOL    HW266291   7.775   6.189   2.173  0.4307  0.4540  0.0373
20482SOL     OW66292   7.376   7.783   2.061 -0.0018 -0.2310  0.0975
20482SOL    HW166293   7.358   7.873   2.087 -0.0287 -0.8241  2.4146
20482SOL    HW266294   7.291   7.746   2.039 -0.3025 -0.2290  1.1780
20483SOL     OW66295   5.996   6.313   9.326 -0.0216  0.2712 -0.6073
20483SOL    HW166296   6.072   6.257   9.313 -1.4496 -2.0008  0.2614
20483SOL    HW266297   5.957   6.323   9.239 -0.8614 -1.8417 -0.5260
20484SOL     OW66298   5.599   8.398   0.620  0.1767 -0.3935 -0.6595
20484SOL    HW166299   5.661   8.355   0.679  1.7029  0.4888 -1.5449
20484SOL    HW266300   5.570   8.329   0.561 -0.5822 -1.0616  0.4655
20485SOL     OW66301   6.670   6.134   1.749 -0.8059  0.1866  0.1252
20485SOL    HW166302   6.679   6.127   1.654 -1.6440 -0.2091  0.0600
20485SOL    HW266303   6.611   6.063   1.772  0.3623 -0.4900  1.1145
20486SOL     OW66304   7.022   7.178   3.343 -0.5202 -0.4842  0.2890
20486SOL    HW166305   7.055   7.091   3.320  1.4643  0.4563 -0.7393
20486SOL    HW266306   7.090   7.216   3.399 -2.3185 -0.3138  2.4731
20487SOL     OW66307   4.791   5.641   3.927 -0.5317 -0.0956  0.5291
20487SOL    HW166308   4.752   5.727   3.912  0.5960  0.0582 -1.8842
20487SOL    HW266309   4.866   5.658   3.984  0.6401  0.8321 -1.1933
20488SOL     OW66310   7.208   6.032   2.813  0.6049  0.0347 -0.5718
20488SOL    HW166311   7.245   5.954   2.771  2.0224  0.6124 -0.4390
20488SOL    HW266312   7.242   6.030   2.902  0.7479  0.8574 -0.6007
20489SOL     OW66313   8.497   4.696   2.141 -0.2119 -0.2525  0.4988
20489SOL    HW166314   8.470   4.784   2.116 -1.0943 -0.0461  2.0623
20489SOL    HW266315   8.593   4.699   2.138 -0.1812  1.1815  1.8582
20490SOL     OW66316   7.711   8.324   1.580 -0.4299  0.2105 -0.0408
20490SOL    HW166317   7.771   8.399   1.591 -0.1582 -0.0252  0.0885
20490SOL    HW266318   7.630   8.363   1.547  0.3455  0.3373 -1.8812
20491SOL     OW66319   7.836   5.746   2.126 -0.3856  0.1833  0.9058
20491SOL    HW166320   7.819   5.695   2.205  0.0257 -0.2550  0.7157
20491SOL    HW266321   7.929   5.768   2.131 -0.5114  0.7281  0.8762
20492SOL     OW66322   5.826   8.087   2.377 -0.5843 -0.2398 -0.0463
20492SOL    HW166323   5.846   8.045   2.461 -0.5718  0.2847  0.2226
20492SOL    HW266324   5.755   8.035   2.340 -0.2173 -0.8063  0.0273
20493SOL     OW66325   4.787   6.525   1.916  0.1999  0.0855  0.4329
20493SOL    HW166326   4.755   6.547   2.004  3.6663  1.0069  1.6571
20493SOL    HW266327   4.813   6.610   1.878 -1.2913 -0.2933 -1.5790
20494SOL     OW66328   6.488   7.884   2.102  1.0066 -0.1716  0.0525
20494SOL    HW166329   6.504   7.853   2.013  1.7012 -0.0899  0.1424
20494SOL    HW266330   6.394   7.871   2.116  1.0357 -0.9234 -0.4081
20495SOL     OW66331   7.822   6.071   3.663  0.4687 -0.2662 -0.0799
20495SOL    HW166332   7.847   6.099   3.751  2.0932  0.4191 -0.7270
20495SOL    HW266333   7.864   5.987   3.651  0.3503 -0.3014 -0.2563
20496SOL     OW66334   9.111   7.285   4.168 -0.3720  0.0342 -0.0188
20496SOL    HW166335   9.029   7.258   4.127 -0.7205  1.6839 -0.5076
20496SOL    HW266336   9.172   7.214   4.150 -0.9586 -0.0283 -2.0549
20497SOL     OW66337   6.021   8.404   1.118  0.3012 -0.7633  0.5275
20497SOL    HW166338   6.057   8.336   1.061  0.1265 -0.8516  0.5195
20497SOL    HW266339   5.941   8.433   1.074 -0.2975 -1.4367  1.1336
20498SOL     OW66340   9.834   6.702   3.377 -1.0321  0.1144  0.5730
20498SOL    HW166341   9.843   6.609   3.354  0.7801  0.4096 -0.0588
20498SOL    HW266342   9.771   6.736   3.312  0.3383 -0.1268 -0.9594
20499SOL     OW66343   8.138   6.460   2.097 -0.0740 -0.1590  0.1983
20499SOL    HW166344   8.075   6.487   2.165 -1.0512  0.2644 -0.8427
20499SOL    HW266345   8.213   6.426   2.146 -0.0159  1.7425  1.5516
20500SOL     OW66346   6.653   6.671   1.966 -0.4291  0.1312 -0.4084
20500SOL    HW166347   6.626   6.634   1.882 -1.9065 -0.1139  0.1337
20500SOL    HW266348   6.710   6.604   2.004 -1.1431 -0.5447 -0.4843
20501SOL     OW66349   4.467   6.119   1.099 -0.1243 -0.0881  0.2559
20501SOL    HW166350   4.488   6.199   1.147 -0.0583 -0.2830  0.5618
20501SOL    HW266351   4.481   6.141   1.007 -0.5738  0.3938  0.2938
20502SOL     OW66352   3.950   5.756   1.775 -0.6583  0.2804 -0.1838
20502SOL    HW166353   3.992   5.689   1.830 -0.3359  0.6250 -0.0047
20502SOL    HW266354   3.891   5.802   1.834 -0.0943  0.8419 -0.0534
20503SOL     OW66355   7.999   6.611   4.321 -0.3096 -0.5884 -0.2977
20503SOL    HW166356   7.929   6.559   4.360  0.9590 -2.2297 -0.1182
20503SOL    HW266357   7.961   6.645   4.240 -1.2321 -1.6753 -0.3471
20504SOL     OW66358   5.807   6.110   1.669 -0.0407  0.5841 -0.2048
20504SOL    HW166359   5.779   6.115   1.761 -0.1482 -1.4182 -0.0819
20504SOL    HW266360   5.727   6.128   1.619 -0.0771  1.2607  0.0825
20505SOL     OW66361   6.463   4.972   3.271 -0.3951  0.4060  0.0441
20505SOL    HW166362   6.465   4.944   3.363 -1.3600  0.7124  0.1697
20505SOL    HW266363   6.437   4.893   3.223  0.9568  0.0047 -0.0909
20506SOL     OW66364   7.355   8.316   2.871 -0.4564 -0.5977 -0.3174
20506SOL    HW166365   7.387   8.304   2.960 -0.4135  2.4479  0.1776
20506SOL    HW266366   7.424   8.367   2.827 -1.4409 -0.1388 -1.4009
20507SOL     OW66367   8.387   6.389   4.121  0.3123  0.6263  0.4694
20507SOL    HW166368   8.367   6.455   4.055  2.1386  0.3730 -0.3951
20507SOL    HW266369   8.374   6.306   4.077 -0.3399  0.4255  1.0332
20508SOL     OW66370   6.829   4.959   2.730  0.0042 -0.1691  0.3275
20508SOL    HW166371   6.910   4.923   2.764  0.3723  0.4780  0.1571
20508SOL    HW266372   6.786   4.885   2.686  0.4675 -0.5295  0.4753
20509SOL     OW66373   6.544   5.089   2.552  0.0313 -0.6167  0.5654
20509SOL    HW166374   6.580   5.114   2.637  1.6695  0.4043 -0.3792
20509SOL    HW266375   6.619   5.089   2.493 -1.5445  2.3842 -1.7017
20510SOL     OW66376   6.833   6.691   0.857 -0.0316  0.0969 -0.3052
20510SOL    HW166377   6.763   6.755   0.846  0.2183  0.4340  0.0690
20510SOL    HW266378   6.892   6.730   0.920  0.8663  0.1273 -1.1375
20511SOL     OW66379   6.800   7.943   4.278 -0.0705 -0.1095  0.4295
20511SOL    HW166380   6.833   7.892   4.204 -1.1954 -0.7614  0.3614
20511SOL    HW266381   6.878   7.984   4.316  0.5567 -0.0098 -0.9298
20512SOL     OW66382   6.756   5.493   4.078  0.0457  0.9493  0.4889
20512SOL    HW166383   6.746   5.452   3.993 -0.2580 -1.0034  1.4075
20512SOL    HW266384   6.679   5.465   4.128 -0.4302  3.0827  1.0354
20513SOL     OW66385   5.837   5.870   1.864  0.1759 -0.5549  0.6252
20513SOL    HW166386   5.804   5.845   1.951  0.8849 -0.0109  1.0647
20513SOL    HW266387   5.794   5.809   1.804 -1.7528  0.2347  1.1419
20514SOL     OW66388   4.927   7.774   0.953 -0.6451  0.2656 -0.4506
20514SOL    HW166389   4.927   7.852   1.009  0.2842 -0.3388  0.4427
20514SOL    HW266390   4.949   7.702   1.013  0.7395 -0.3600 -1.6612
20515SOL     OW66391   4.785   8.660   3.438  0.3464 -0.6654  0.4464
20515SOL    HW166392   4.777   8.571   3.405  1.1422 -1.1695  1.5176
20515SOL    HW266393   4.856   8.699   3.386  0.8077 -1.0681  0.7607
20516SOL     OW66394   6.705   8.213   2.295 -0.0474 -0.0048  0.1138
20516SOL    HW166395   6.639   8.213   2.363  1.4395  1.7336  1.6372
20516SOL    HW266396   6.788   8.226   2.341  1.1277  0.2429 -1.9356
20517SOL     OW66397   6.320   7.243   3.139 -0.5400  0.8999 -0.6688
20517SOL    HW166398   6.375   7.191   3.080 -2.3723 -0.6180 -1.1272
20517SOL    HW266399   6.242   7.264   3.088 -0.3350  3.2379 -0.1285
20518SOL     OW66400   6.129   5.803   8.540  0.0166 -0.0654 -0.2182
20518SOL    HW166401   6.181   5.810   8.620  3.3736  2.0392 -2.3444
20518SOL    HW266402   6.082   5.886   8.535 -1.1079 -0.6663  0.0888
20519SOL     OW66403   6.682   5.363   3.801  0.3725 -0.0598  0.0325
20519SOL    HW166404   6.740   5.295   3.836 -0.0897 -0.9827 -0.9236
20519SOL    HW266405   6.701   5.364   3.707 -0.5629  0.2140 -0.1610
20520SOL     OW66406   6.433   6.335   5.111 -0.2893  0.5796 -0.1765
20520SOL    HW166407   6.501   6.281   5.151  0.2917  0.9295 -0.6704
20520SOL    HW266408   6.402   6.283   5.037 -0.0624  0.7151 -0.3690
20521SOL     OW66409   5.054   5.172   0.754 -0.0344 -0.2313 -0.3107
20521SOL    HW166410   5.119   5.133   0.813 -1.0937 -1.0147  0.3705
20521SOL    HW266411   5.084   5.262   0.741  0.8788 -0.4159  0.4372
20522SOL     OW66412   6.762   7.653   5.445  0.3630 -0.1461 -0.0813
20522SOL    HW166413   6.703   7.593   5.490  0.7096 -0.1607  0.3595
20522SOL    HW266414   6.845   7.645   5.491  0.8179 -0.3946 -0.9236
20523SOL     OW66415   7.149   7.543   9.659  0.2688  0.4014 -0.7696
20523SOL    HW166416   7.211   7.532   9.587  0.7862  1.0891 -0.4367
20523SOL    HW266417   7.070   7.579   9.618  0.4106  0.3830 -1.0583
20524SOL     OW66418   6.430   5.729   3.294 -0.0708 -0.6726  0.2499
20524SOL    HW166419   6.405   5.776   3.373 -1.0441 -1.9130  0.7257
20524SOL    HW266420   6.439   5.638   3.322 -0.7969 -1.2088 -1.1147
20525SOL     OW66421   4.910   5.551   0.699 -0.2442 -0.2920 -0.1836
20525SOL    HW166422   4.870   5.596   0.774 -0.2314 -0.1722 -0.2485
20525SOL    HW266423   5.001   5.581   0.699 -0.7090  1.3002 -1.4448
20526SOL     OW66424   5.024   7.753   2.386  0.7968 -0.3727 -0.1837
20526SOL    HW166425   5.088   7.807   2.433  0.9671 -1.1404  0.4831
20526SOL    HW266426   5.060   7.746   2.297  1.0644  0.1250 -0.1192
20527SOL     OW66427   4.393   6.603   2.249 -0.6188  0.4138  0.4589
20527SOL    HW166428   4.407   6.685   2.202  1.2166  0.6440  1.3364
20527SOL    HW266429   4.318   6.563   2.204 -0.4581  1.7416 -1.1029
20528SOL     OW66430   5.745   7.635   1.412 -0.3827 -0.1779 -0.3178
20528SOL    HW166431   5.716   7.714   1.366 -0.5088 -0.3468 -0.5327
20528SOL    HW266432   5.803   7.591   1.350  0.5125  0.2599  0.1914
20529SOL     OW66433   6.349   7.879   3.281 -0.3054 -0.0464 -0.0926
20529SOL    HW166434   6.442   7.876   3.260 -0.2528 -3.3498  0.1174
20529SOL    HW266435   6.318   7.789   3.270 -2.8271  0.3102  2.6963
20530SOL     OW66436   3.603   6.267   2.536 -0.3111 -0.2434  0.2719
20530SOL    HW166437   3.687   6.224   2.519 -0.3416  0.2690 -1.3313
20530SOL    HW266438   3.627   6.344   2.589  0.5666  1.0872 -1.9301
20531SOL     OW66439   6.906   8.251   3.336  0.1661 -0.1208 -0.2320
20531SOL    HW166440   6.899   8.314   3.265  0.6686 -0.0647 -0.2335
20531SOL    HW266441   6.842   8.281   3.401  0.3861  0.3807 -0.2423
20532SOL     OW66442   4.520   7.960   2.430 -0.2115 -0.1604 -0.3028
20532SOL    HW166443   4.593   7.924   2.480  0.4401  0.8967 -0.4443
20532SOL    HW266444   4.527   7.919   2.344  0.8652  0.6883 -0.6465
20533SOL     OW66445   6.015   4.939   1.425  0.0509 -1.2707  0.0074
20533SOL    HW166446   5.961   4.861   1.432  0.2499 -1.4661 -0.5323
20533SOL    HW266447   6.103   4.906   1.408  0.0115 -0.9267 -0.9618
20534SOL     OW66448   5.322   9.780   2.886  0.1333  0.5169  0.5830
20534SOL    HW166449   5.280   9.854   2.928 -0.0426  1.2848 -0.8706
20534SOL    HW266450   5.287   9.780   2.797  3.5720  1.5878 -0.9544
20535SOL     OW66451   7.308   0.750   7.014  0.2582  0.1617 -0.2573
20535SOL    HW166452   7.235   0.699   6.978  1.0149 -0.7310 -0.5553
20535SOL    HW266453   7.267   0.808   7.078 -0.5768 -1.1137  0.4028
20536SOL     OW66454   7.516   7.556   9.628 -0.4344  0.0689 -0.0659
20536SOL    HW166455   7.447   7.621   9.610 -0.3104  0.0574 -0.6138
20536SOL    HW266456   7.557   7.587   9.708  0.0508  1.0443 -0.6660
20537SOL     OW66457   5.657   8.507   3.973  0.0819 -0.4008 -0.1125
20537SOL    HW166458   5.725   8.443   3.992 -0.8554 -1.7303 -1.0350
20537SOL    HW266459   5.676   8.538   3.885  1.4731  1.9068  0.8928
20538SOL     OW66460   3.498   5.982   2.219 -0.3640  0.2810 -0.1595
20538SOL    HW166461   3.591   5.966   2.232 -0.5383  0.5463  1.7880
20538SOL    HW266462   3.467   6.016   2.303 -1.7720  2.4565 -1.4556
20539SOL     OW66463   5.687   7.947   2.878 -0.8376 -0.0392 -0.2777
20539SOL    HW166464   5.639   8.019   2.837 -3.0203 -0.4345  1.4417
20539SOL    HW266465   5.732   7.988   2.952 -2.1173 -0.3753  0.7294
20540SOL     OW66466   6.542   7.508   1.046 -0.0473  0.2484  0.2824
20540SOL    HW166467   6.515   7.442   0.983  1.5053 -1.1894  1.0572
20540SOL    HW266468   6.502   7.481   1.128 -1.0165  1.4107  0.2276
20541SOL     OW66469   8.661   6.538   3.487 -0.1790 -0.3185 -0.1149
20541SOL    HW166470   8.618   6.537   3.402 -1.0542  0.6341  0.2856
20541SOL    HW266471   8.672   6.632   3.507  1.7874 -0.5174 -0.0387
20542SOL     OW66472   6.801   6.058   2.047  0.3393 -0.0334  0.3121
20542SOL    HW166473   6.857   6.121   2.092  0.8112  0.0510 -0.3730
20542SOL    HW266474   6.766   6.106   1.972  1.7471 -0.9260 -0.9798
20543SOL     OW66475   7.899   5.308   9.558 -0.1377 -0.1511 -0.1446
20543SOL    HW166476   7.845   5.271   9.489  0.6789 -0.7597 -0.4694
20543SOL    HW266477   7.916   5.398   9.530  0.5499 -0.5268 -0.9626
20544SOL     OW66478   6.176   9.259   3.357  0.8991 -0.0148 -0.1664
20544SOL    HW166479   6.114   9.295   3.420 -0.0168 -0.9718 -0.4948
20544SOL    HW266480   6.122   9.220   3.289  1.8548 -0.7454 -0.5361
20545SOL     OW66481   2.367   6.233   1.641 -0.1622 -0.4461 -0.0400
20545SOL    HW166482   2.384   6.304   1.579  0.7241  1.4813  2.2700
20545SOL    HW266483   2.277   6.205   1.622  0.2806 -0.3519 -2.5264
20546SOL     OW66484   9.281   6.400   1.018  0.1434  0.4473  0.1872
20546SOL    HW166485   9.327   6.368   0.940 -0.5137 -1.2317  0.4499
20546SOL    HW266486   9.349   6.443   1.070  0.6871  1.1522 -1.0548
20547SOL     OW66487   2.360   5.272   1.606 -0.7498  0.0692 -0.0576
20547SOL    HW166488   2.409   5.312   1.535 -1.9708 -0.0578 -1.0014
20547SOL    HW266489   2.327   5.345   1.658 -0.6601  0.1958 -0.1797
20548SOL     OW66490   5.854   6.865   5.017 -0.2660  0.3021 -0.0506
20548SOL    HW166491   5.917   6.833   4.952  0.2793 -0.3320  0.7563
20548SOL    HW266492   5.776   6.813   5.003  0.6481 -1.5650  1.3190
20549SOL     OW66493   5.050   6.428   2.632 -0.9331  1.1538  0.8180
20549SOL    HW166494   4.966   6.410   2.674 -0.9755  0.8524  0.6090
20549SOL    HW266495   5.027   6.456   2.543 -0.9746  4.0180  1.6383
20550SOL     OW66496   5.196   3.067   3.708 -0.0510 -0.0801 -0.1442
20550SOL    HW166497   5.254   3.131   3.749 -0.1962 -0.1635  0.1908
20550SOL    HW266498   5.242   2.983   3.717  0.0559 -0.0534 -0.4227
20551SOL     OW66499   6.063   8.310   1.882  0.5584  0.5758  0.3005
20551SOL    HW166500   6.121   8.318   1.807  0.2029 -0.8522 -0.1464
20551SOL    HW266501   5.975   8.313   1.844  0.3799 -0.9829  0.5429
20552SOL     OW66502   7.930   5.910   2.371 -0.2109  0.6419 -0.0047
20552SOL    HW166503   7.837   5.889   2.385 -0.2530  0.4444 -0.5536
20552SOL    HW266504   7.976   5.828   2.390 -0.2236  0.5114 -0.5358
20553SOL     OW66505   7.631   0.160   4.552  0.2233  0.0242 -0.1718
20553SOL    HW166506   7.583   0.147   4.634  0.4540 -0.4583 -0.1028
20553SOL    HW266507   7.579   0.114   4.486  0.0671  0.3640 -0.2834
20554SOL     OW66508   6.949   6.258   2.182 -0.0039  0.2090 -0.3648
20554SOL    HW166509   6.981   6.247   2.272 -0.8277 -0.1927 -0.1110
20554SOL    HW266510   7.023   6.298   2.136 -0.0538  1.8127  0.8272
20555SOL     OW66511   5.371   6.575   1.688  0.1302 -0.3687 -0.6191
20555SOL    HW166512   5.303   6.640   1.703  0.2222 -0.7163  1.6099
20555SOL    HW266513   5.413   6.603   1.606 -0.3919  1.8691 -0.1954
20556SOL     OW66514   5.682   6.318   0.445  0.2866  0.4267  0.5383
20556SOL    HW166515   5.743   6.348   0.378  0.5593 -1.2625 -0.0094
20556SOL    HW266516   5.717   6.353   0.527  1.8918 -0.3090  0.2103
20557SOL     OW66517   6.835   5.526   1.530 -0.4326 -0.0725  0.2565
20557SOL    HW166518   6.844   5.468   1.605  0.4325  0.9959  1.0096
20557SOL    HW266519   6.884   5.605   1.554 -0.7585  0.5894 -1.1266
20558SOL     OW66520   7.042   7.886   2.218  0.1877  0.5898 -0.0347
20558SOL    HW166521   7.121   7.937   2.236  0.7275 -0.9595  2.4252
20558SOL    HW266522   7.071   7.818   2.156  0.4215  0.8848 -0.2512
20559SOL     OW66523   7.705   5.315   1.387  0.3822  0.3902  0.5098
20559SOL    HW166524   7.769   5.368   1.339  0.2156  0.1981  0.0647
20559SOL    HW266525   7.671   5.254   1.321 -0.8995  1.0746  0.5019
20560SOL     OW66526   3.306   4.090   1.743 -0.2714  0.6307 -0.3116
20560SOL    HW166527   3.346   4.022   1.799  1.4698 -0.5628 -2.8075
20560SOL    HW266528   3.212   4.075   1.751 -0.0170 -0.4056  1.1800
20561SOL     OW66529   8.474   6.215   1.919 -0.1450  0.2315  0.2001
20561SOL    HW166530   8.461   6.219   2.014 -0.1859 -1.2321  0.2751
20561SOL    HW266531   8.569   6.224   1.907 -0.2474  1.6216  0.2778
20562SOL     OW66532   5.950   8.254   9.772  0.1973 -0.1289  0.0990
20562SOL    HW166533   5.906   8.189   9.716  0.4834 -0.6667  0.4851
20562SOL    HW266534   5.901   8.252   9.854  0.8538 -0.6435  0.4881
20563SOL     OW66535   6.078   7.753   4.683 -0.2226  0.1558  0.6115
20563SOL    HW166536   6.142   7.752   4.755 -0.7356 -1.0306  1.0745
20563SOL    HW266537   6.013   7.818   4.710 -0.2865 -0.1138  1.1223
20564SOL     OW66538   4.167   7.760   5.146  0.0700 -0.3980  0.0611
20564SOL    HW166539   4.219   7.831   5.109 -0.1543 -0.3005 -0.0620
20564SOL    HW266540   4.232   7.702   5.186  0.1473  0.8312  1.8706
20565SOL     OW66541   6.818   5.198   4.445  0.4507  0.5974 -0.3872
20565SOL    HW166542   6.727   5.174   4.463  0.7637  0.5132  1.1956
20565SOL    HW266543   6.846   5.134   4.380 -0.5801  0.5784 -0.8506
20566SOL     OW66544   7.110   6.943   5.533 -0.2254  0.5797  0.3943
20566SOL    HW166545   7.163   6.983   5.603  1.0594  1.7705 -1.1830
20566SOL    HW266546   7.022   6.975   5.549 -0.0227  0.5916  1.6311
20567SOL     OW66547   5.174   5.376   2.590  0.0798 -0.1616 -0.1828
20567SOL    HW166548   5.081   5.358   2.572 -0.4178  0.8490  1.1741
20567SOL    HW266549   5.209   5.405   2.506 -1.3359  1.2916 -0.3309
20568SOL     OW66550   7.601   3.755   4.010  0.0302  0.1028 -0.0164
20568SOL    HW166551   7.590   3.837   3.962 -0.2080 -0.0475 -0.2218
20568SOL    HW266552   7.514   3.715   4.008  0.4551 -0.8079 -1.1200
20569SOL     OW66553   4.672   6.368   4.733 -0.1171 -0.2375 -0.4515
20569SOL    HW166554   4.692   6.276   4.714 -0.7011 -0.1358 -1.6204
20569SOL    HW266555   4.576   6.372   4.733 -0.0897  0.4532 -0.8104
20570SOL     OW66556   3.868   6.444   9.841  0.2295 -0.2273 -0.2701
20570SOL    HW166557   3.881   6.538   9.828  0.0667  0.3697  2.9808
20570SOL    HW266558   3.778   6.428   9.815  0.4898  0.3080 -1.5843
20571SOL     OW66559   6.323   6.266   0.490  0.0512  0.1032 -0.1209
20571SOL    HW166560   6.257   6.200   0.468 -2.0521  1.5635  1.3676
20571SOL    HW266561   6.400   6.241   0.439 -1.5951 -1.7656 -1.8961
20572SOL     OW66562   3.339   8.810   2.857  0.1854  0.6166 -0.1242
20572SOL    HW166563   3.334   8.870   2.783  1.4446 -0.4556 -1.1407
20572SOL    HW266564   3.384   8.860   2.925 -1.2965  1.7339  0.0838
20573SOL     OW66565   8.501   7.386   2.731  0.3496  0.0338  0.4733
20573SOL    HW166566   8.520   7.297   2.759  1.4637  0.2350  0.3998
20573SOL    HW266567   8.579   7.414   2.684 -0.8918  0.2208 -1.6281
20574SOL     OW66568   5.785   9.178   3.295 -0.4893 -0.5454  0.3022
20574SOL    HW166569   5.825   9.092   3.293 -0.0676 -0.3375 -1.1866
20574SOL    HW266570   5.711   9.172   3.235 -0.1687  0.2567 -0.1960
20575SOL     OW66571   5.273   3.754   1.337  0.2303  0.0211 -0.0101
20575SOL    HW166572   5.286   3.767   1.431 -0.6643  0.9315  0.0090
20575SOL    HW266573   5.256   3.842   1.303  1.2831 -0.1893 -1.1640
20576SOL     OW66574   5.952   8.995   3.762 -0.1829  0.1434  0.3485
20576SOL    HW166575   5.924   8.904   3.760 -0.5086  0.2483 -0.2208
20576SOL    HW266576   5.880   9.041   3.804  0.6437 -0.0674  2.0715
20577SOL     OW66577   7.638   5.025   2.893 -0.0854  0.3845 -0.0173
20577SOL    HW166578   7.644   5.082   2.816 -1.4598 -0.1201 -0.5449
20577SOL    HW266579   7.604   4.942   2.858  0.8389 -0.3991  0.8975
20578SOL     OW66580   5.872   6.035   2.880  0.3637  0.0632 -0.5569
20578SOL    HW166581   5.838   6.117   2.845  1.1358 -0.3599 -2.3863
20578SOL    HW266582   5.959   6.056   2.913 -0.7770  0.7152  2.3483
20579SOL     OW66583   8.508   6.586   3.250  0.8078 -0.0096  0.6420
20579SOL    HW166584   8.457   6.510   3.277 -1.0787  0.8673 -0.2423
20579SOL    HW266585   8.589   6.550   3.215 -0.0806 -1.6182  0.1450
20580SOL     OW66586   5.846   7.566   2.529  0.3156  0.0877 -0.4522
20580SOL    HW166587   5.903   7.513   2.586  1.8313  1.4742 -0.5944
20580SOL    HW266588   5.827   7.644   2.580 -1.5663 -0.3653 -0.3984
20581SOL     OW66589   7.358   5.547   1.171 -0.2826  0.2692 -0.3715
20581SOL    HW166590   7.450   5.538   1.146  0.3381 -0.0636  1.8236
20581SOL    HW266591   7.345   5.641   1.185 -0.2154  0.2841 -0.4109
20582SOL     OW66592   6.161   8.087   0.700  0.2950  0.2895 -0.5091
20582SOL    HW166593   6.187   8.124   0.785  1.1602  1.5532 -1.2760
20582SOL    HW266594   6.161   7.993   0.714  0.5390  0.4614  0.8697
20583SOL     OW66595   6.766   7.459   3.432  0.0818  0.1352 -0.4317
20583SOL    HW166596   6.779   7.383   3.375  1.5730  0.3998 -0.4675
20583SOL    HW266597   6.847   7.510   3.424  1.0695 -0.6032  3.1527
20584SOL     OW66598   5.084   8.800   1.987  0.4016 -0.5396 -0.1737
20584SOL    HW166599   5.131   8.884   1.984 -2.8483  1.4183 -0.8229
20584SOL    HW266600   5.080   8.778   2.081 -2.6799  2.6617  0.6636
20585SOL     OW66601   5.649   6.948   1.573  0.1586  0.5098 -0.4026
20585SOL    HW166602   5.686   6.894   1.504  0.6872 -0.1130  0.3575
20585SOL    HW266603   5.704   6.932   1.649 -1.6534 -0.4676  0.7719
20586SOL     OW66604   8.097   5.910   5.077 -0.1289  0.2182  0.0975
20586SOL    HW166605   8.185   5.933   5.046  0.6709 -1.7840  0.7137
20586SOL    HW266606   8.067   5.987   5.124  1.8107  0.5590  0.8815
20587SOL     OW66607   8.747   6.520   3.196 -0.1306  0.2124  0.2388
20587SOL    HW166608   8.788   6.514   3.282 -0.9691 -1.7731  0.5533
20587SOL    HW266609   8.800   6.462   3.140  0.7278  1.8754 -0.7713
20588SOL     OW66610   4.294   6.783   3.214  0.1061  0.1195 -0.2138
20588SOL    HW166611   4.338   6.721   3.156 -0.7281  0.8006 -1.6194
20588SOL    HW266612   4.274   6.858   3.158 -1.6286  0.3757  0.7031
20589SOL     OW66613   5.514   6.834   0.252 -0.5708  0.0042 -0.1786
20589SOL    HW166614   5.512   6.929   0.239 -1.4005 -0.0728 -0.6845
20589SOL    HW266615   5.602   6.816   0.285 -0.8593  1.1216  1.2742
20590SOL     OW66616   7.862   5.840   3.353  0.7679  0.2845  0.2548
20590SOL    HW166617   7.894   5.850   3.443  1.0900 -0.9338  0.2850
20590SOL    HW266618   7.863   5.746   3.337 -0.3983  0.4100 -0.6382
20591SOL     OW66619   6.680   4.430   5.609 -0.0225  0.1191 -0.0690
20591SOL    HW166620   6.696   4.507   5.663  1.3928  0.7151 -1.2536
20591SOL    HW266621   6.639   4.465   5.529  1.2677 -0.2250 -0.9140
20592SOL     OW66622   5.466   8.756   2.408  0.3434  0.0907  0.1917
20592SOL    HW166623   5.409   8.743   2.484  1.5535  0.7371  1.2462
20592SOL    HW266624   5.408   8.745   2.333 -1.2852  1.1116  1.2247
20593SOL     OW66625   5.846   7.392   3.718 -0.1031 -0.7524 -0.0639
20593SOL    HW166626   5.822   7.464   3.776  2.5281 -0.8632  1.3419
20593SOL    HW266627   5.854   7.432   3.631  0.3917  0.4741  0.5200
20594SOL     OW66628   8.190   8.874   4.728  0.3187  0.9936 -0.0672
20594SOL    HW166629   8.153   8.804   4.781  1.5371 -0.5184 -1.1251
20594SOL    HW266630   8.283   8.852   4.721  0.5667  2.2559 -1.1383
20595SOL     OW66631   7.138   2.421   2.262 -0.2954 -0.0426 -0.4847
20595SOL    HW166632   7.063   2.363   2.248 -1.3869  1.4589 -1.0928
20595SOL    HW266633   7.189   2.378   2.331 -1.8186 -1.0141  0.0849
20596SOL     OW66634   7.739   4.192   4.234 -0.5145  0.2205  0.7487
20596SOL    HW166635   7.766   4.284   4.222  0.1060 -0.0469  0.0109
20596SOL    HW266636   7.819   4.142   4.219 -1.7053 -0.7700 -3.8436
20597SOL     OW66637   4.169   6.163   1.365  0.4408 -0.3895  0.9107
20597SOL    HW166638   4.214   6.247   1.371 -1.2229  0.6366 -0.0507
20597SOL    HW266639   4.132   6.162   1.277 -1.4749 -1.0949  1.6669
20598SOL     OW66640   7.399   8.725   7.382  0.5209 -0.1966  0.5422
20598SOL    HW166641   7.447   8.807   7.368  0.9515 -0.1107  2.3050
20598SOL    HW266642   7.461   8.656   7.358  0.2829 -0.0325 -0.5941
20599SOL     OW66643   5.422   6.615   5.047  0.5150 -0.1910  0.4909
20599SOL    HW166644   5.478   6.592   4.973  0.4438  0.3652  0.2650
20599SOL    HW266645   5.483   6.635   5.118  0.6456  1.5537 -0.0851
20600SOL     OW66646   4.247   8.313   5.360 -0.2238 -0.1614 -0.7577
20600SOL    HW166647   4.269   8.245   5.423  1.7308  0.0488 -1.1563
20600SOL    HW266648   4.229   8.390   5.414 -0.3438 -0.4363 -0.3997
20601SOL     OW66649   8.035   6.694   4.717  0.0457  0.0081  0.0674
20601SOL    HW166650   8.097   6.682   4.645  0.0011  0.0169  0.0269
20601SOL    HW266651   8.086   6.733   4.788 -0.0956  0.7845 -0.2490
20602SOL     OW66652   7.707   5.428   5.214 -0.9432 -0.7555 -0.1570
20602SOL    HW166653   7.749   5.371   5.150  0.8570 -1.1385  1.2667
20602SOL    HW266654   7.702   5.513   5.171  0.6323 -0.9019 -0.6841
20603SOL     OW66655   6.140   7.466   7.234 -0.0389  0.1592 -0.4233
20603SOL    HW166656   6.083   7.394   7.206  0.8251  0.0737 -2.0793
20603SOL    HW266657   6.162   7.513   7.153  1.2769  0.9072  0.3232
20604SOL     OW66658   7.110   6.117   6.761  0.7845  0.9492 -0.1763
20604SOL    HW166659   7.151   6.089   6.843  0.1741  0.3284 -0.0740
20604SOL    HW266660   7.027   6.157   6.788  0.8889  1.3442 -0.4435
20605SOL     OW66661   5.608   9.626   3.630  0.2646  0.0468  0.2061
20605SOL    HW166662   5.677   9.681   3.593  1.4624 -1.3198  0.2903
20605SOL    HW266663   5.550   9.608   3.557  0.0954  1.0404  0.0788
20606SOL     OW66664   6.026   7.645   4.126  0.8132 -0.0930 -0.0233
20606SOL    HW166665   6.101   7.677   4.177  1.4058  2.4057 -2.2263
20606SOL    HW266666   5.961   7.715   4.132  0.5362 -0.1367 -1.8683
20607SOL     OW66667   3.099   9.260   3.300  0.2804  0.2929 -0.4160
20607SOL    HW166668   3.083   9.220   3.215 -0.4759  2.3195 -1.2958
20607SOL    HW266669   3.122   9.351   3.280  0.7365  0.6577  1.5186
20608SOL     OW66670   8.042   7.630   3.333  0.2536 -0.1633 -0.2329
20608SOL    HW166671   7.983   7.566   3.373 -0.4740  0.0179 -0.9890
20608SOL    HW266672   8.106   7.650   3.402 -0.1777 -0.8476  0.3837
20609SOL     OW66673   7.108   5.805   0.310 -0.5334 -0.7788  0.2892
20609SOL    HW166674   7.191   5.847   0.335  0.0187 -0.6899 -1.5714
20609SOL    HW266675   7.041   5.869   0.333  0.0595 -0.0849  0.1185
20610SOL     OW66676   6.729   5.387   8.581 -0.0885 -0.8463 -0.0221
20610SOL    HW166677   6.676   5.365   8.658 -0.7105 -0.3518 -0.3053
20610SOL    HW266678   6.755   5.478   8.595  1.2835 -1.2844  0.4510
20611SOL     OW66679   7.934   6.779   5.334 -0.0117  1.1838 -0.2264
20611SOL    HW166680   7.987   6.857   5.315  0.8586  0.8996  0.9209
20611SOL    HW266681   7.949   6.762   5.427 -0.5374 -0.1009 -0.3555
20612SOL     OW66682   5.886   8.042   3.139 -0.2441  0.3058 -1.1581
20612SOL    HW166683   5.827   8.114   3.160  2.4910  1.9499  1.8024
20612SOL    HW266684   5.962   8.083   3.098  1.1432 -0.8743  0.0903
20613SOL     OW66685   6.978   9.231   3.818 -0.2345 -0.0092  0.5618
20613SOL    HW166686   7.052   9.271   3.771 -1.9414  0.7726 -1.6243
20613SOL    HW266687   6.902   9.281   3.789 -1.5707 -0.2553  3.3775
20614SOL     OW66688   8.881   9.819   2.544 -0.8455 -0.9475  0.0064
20614SOL    HW166689   8.810   9.851   2.601 -0.7326 -0.8466  0.0902
20614SOL    HW266690   8.838   9.802   2.460 -0.9290 -0.6847 -0.0055
20615SOL     OW66691   6.426   7.103   2.392 -0.3914 -0.0463  0.4622
20615SOL    HW166692   6.367   7.067   2.326 -0.2357 -0.0106  0.3030
20615SOL    HW266693   6.499   7.041   2.397 -1.4889 -1.2801  2.2573
20616SOL     OW66694   5.581   7.688   5.376 -0.1489  0.1450  0.0374
20616SOL    HW166695   5.653   7.716   5.433 -0.0120 -1.5727  0.7827
20616SOL    HW266696   5.502   7.708   5.426 -0.1762  1.2751 -0.4299
20617SOL     OW66697   9.220   9.187   4.268 -0.3634 -0.2058  0.1041
20617SOL    HW166698   9.259   9.262   4.313  0.6666 -0.8201  0.2590
20617SOL    HW266699   9.227   9.207   4.175 -0.5349  0.0959  0.1543
20618SOL     OW66700   7.874   5.884   4.518 -0.0232 -0.3060 -0.6201
20618SOL    HW166701   7.866   5.873   4.613  3.1036  0.3020 -0.1650
20618SOL    HW266702   7.968   5.881   4.502 -0.4503 -0.1951 -3.7143
20619SOL     OW66703   7.017   8.101   5.088 -0.4899 -0.2103 -0.3387
20619SOL    HW166704   7.005   8.171   5.024 -0.3574  0.9118  0.8152
20619SOL    HW266705   6.930   8.065   5.100 -0.6811  0.1916 -0.4770
20620SOL     OW66706   7.610   7.109   3.686  0.0305  0.2860 -0.0458
20620SOL    HW166707   7.694   7.154   3.677  0.3889 -0.0104  1.5201
20620SOL    HW266708   7.633   7.020   3.713 -0.7764  0.0298 -0.1695
20621SOL     OW66709   5.878   7.883   6.022  0.0536 -1.4287  0.0807
20621SOL    HW166710   5.969   7.884   5.993 -0.0431 -0.3392 -0.2203
20621SOL    HW266711   5.833   7.940   5.961 -0.9255 -2.2957 -0.0329
20622SOL     OW66712   6.169   8.013   6.251 -0.5528  0.4796 -0.4338
20622SOL    HW166713   6.144   7.995   6.161 -0.4502 -2.1408 -0.0264
20622SOL    HW266714   6.120   8.092   6.275 -0.8481  1.0157 -2.6381
20623SOL     OW66715   0.427   6.790   3.836  0.2747 -0.7463  0.3602
20623SOL    HW166716   0.398   6.756   3.752  2.0570 -1.7232  0.0904
20623SOL    HW266717   0.363   6.858   3.858 -0.4730 -0.7753 -1.5508
20624SOL     OW66718   7.523   9.477   3.168  0.6909  0.4899 -0.4058
20624SOL    HW166719   7.614   9.448   3.171  0.0969 -1.5040 -0.0669
20624SOL    HW266720   7.524   9.555   3.114  2.4259 -0.2831 -1.5607
20625SOL     OW66721   6.599   7.203   3.609  0.2248  0.6151  0.3685
20625SOL    HW166722   6.556   7.146   3.673  0.1973  0.2127 -0.0013
20625SOL    HW266723   6.692   7.180   3.616  0.1796  0.2916  0.0038
20626SOL     OW66724   6.235   7.501   6.286 -0.1125  0.8104 -0.5420
20626SOL    HW166725   6.203   7.412   6.271  1.2937  0.3859 -1.1960
20626SOL    HW266726   6.289   7.520   6.210 -0.4182  2.2592 -0.4251
20627SOL     OW66727   7.365   9.584   3.399 -0.0873 -0.1015  0.8219
20627SOL    HW166728   7.380   9.529   3.322  0.8583 -0.7107  1.4283
20627SOL    HW266729   7.269   9.591   3.404 -0.1969 -0.9839  0.2384
20628SOL     OW66730   6.707   8.551   6.065  0.1224  0.0469  0.5368
20628SOL    HW166731   6.746   8.484   6.009  0.3667 -0.3841  1.2050
20628SOL    HW266732   6.712   8.632   6.014 -0.8833 -0.5736 -0.5960
20629SOL     OW66733   7.997   6.345   6.512  0.0559  0.6861  0.3081
20629SOL    HW166734   8.057   6.407   6.471  2.4442 -0.7110  1.4426
20629SOL    HW266735   7.990   6.273   6.448  0.4257  0.3822  0.6087
20630SOL     OW66736   7.677   5.683   5.136  0.3450 -0.0351  0.1044
20630SOL    HW166737   7.652   5.711   5.224  1.5687 -0.2928  0.5567
20630SOL    HW266738   7.626   5.738   5.078 -1.7889 -1.0139  0.9371
20631SOL     OW66739   6.877   8.438   4.649  0.0746 -0.3765 -0.0826
20631SOL    HW166740   6.832   8.353   4.649  0.4486 -0.5921  1.1848
20631SOL    HW266741   6.826   8.492   4.587 -0.1391 -1.5217 -0.9313
20632SOL     OW66742   5.267   5.787   2.413  0.0045 -0.3160  0.6005
20632SOL    HW166743   5.177   5.818   2.421 -0.1029 -0.0410 -1.1972
20632SOL    HW266744   5.304   5.840   2.341  1.4148 -0.8265  0.9221
20633SOL     OW66745   5.166   6.359   4.646  0.6374  0.2804 -0.0104
20633SOL    HW166746   5.129   6.381   4.732  1.4415 -0.0744  0.4379
20633SOL    HW266747   5.258   6.386   4.652  0.8559 -0.3247 -0.5364
20634SOL     OW66748   3.708   8.237   7.255  0.3711  0.3608 -0.2886
20634SOL    HW166749   3.659   8.271   7.329 -0.1093 -1.1231  0.1074
20634SOL    HW266750   3.800   8.241   7.283  0.1388 -0.8949  0.7048
20635SOL     OW66751   6.519   6.574   0.290  0.3974 -0.2942 -0.1490
20635SOL    HW166752   6.424   6.558   0.290  0.1706  0.8691 -0.7501
20635SOL    HW266753   6.526   6.669   0.302  1.4805 -0.3449 -0.3294
20636SOL     OW66754   6.260   0.315   4.634 -0.3111  0.0028  0.0138
20636SOL    HW166755   6.281   0.227   4.667 -0.9442 -0.5476 -0.9833
20636SOL    HW266756   6.166   0.324   4.647 -0.2409  0.5521  0.1526
20637SOL     OW66757   7.391   7.643   4.176 -0.2386 -0.2377  0.7758
20637SOL    HW166758   7.458   7.612   4.237 -0.4824 -2.4945 -0.0385
20637SOL    HW266759   7.422   7.616   4.090 -2.0683 -1.1544  0.3575
20638SOL     OW66760   6.365   6.488   6.957 -0.0776  0.2749  0.4352
20638SOL    HW166761   6.416   6.497   7.037  2.7388  2.0005 -1.3460
20638SOL    HW266762   6.338   6.396   6.955  0.5144 -0.0161  2.8856
20639SOL     OW66763   5.672   7.404   4.597  0.1552 -0.1392 -0.1792
20639SOL    HW166764   5.581   7.374   4.599  0.2888 -0.5297  0.0967
20639SOL    HW266765   5.674   7.480   4.654 -0.1833  0.3944 -0.8669
20640SOL     OW66766   7.920   5.599   4.176 -0.1121  0.3717 -0.4653
20640SOL    HW166767   7.834   5.559   4.172 -0.1507  0.3118  0.6410
20640SOL    HW266768   7.978   5.536   4.133 -0.5441  0.2051 -0.8088
20641SOL     OW66769   6.108   6.234   2.964 -0.3000 -0.5392  0.0588
20641SOL    HW166770   6.148   6.242   2.877 -0.1638 -0.3235  0.1415
20641SOL    HW266771   6.059   6.315   2.975 -0.0842 -0.4409  0.3015
20642SOL     OW66772   5.218   8.616   3.390 -0.1348  0.2669  0.1514
20642SOL    HW166773   5.151   8.559   3.351  0.3700  0.2647 -0.7378
20642SOL    HW266774   5.278   8.636   3.318 -0.2063  1.8069  0.4918
20643SOL     OW66775   6.964   7.748   2.574 -0.5008 -0.0881  0.1131
20643SOL    HW166776   6.962   7.659   2.538  1.2973 -0.0324 -0.2001
20643SOL    HW266777   7.033   7.746   2.640  1.6288  1.7402 -1.8943
20644SOL     OW66778   5.761   8.114   5.563  0.4115  0.2813 -0.0003
20644SOL    HW166779   5.698   8.146   5.499  0.2661  0.7234  0.3565
20644SOL    HW266780   5.837   8.171   5.552  0.5032  0.1598  0.0057
20645SOL     OW66781   4.587   7.806   5.748 -0.5097  0.2578  0.1286
20645SOL    HW166782   4.540   7.773   5.825 -1.1595 -0.2342 -0.4599
20645SOL    HW266783   4.605   7.728   5.695 -3.8547  0.8656 -2.2743
20646SOL     OW66784   8.723   6.461   4.124 -0.1674 -0.2237  0.2454
20646SOL    HW166785   8.681   6.417   4.050 -1.1613 -0.3687  0.8768
20646SOL    HW266786   8.716   6.554   4.103 -2.7774 -0.0915  1.2874
20647SOL     OW66787   5.953   4.205   3.361 -0.4627  0.3828  0.8266
20647SOL    HW166788   6.031   4.257   3.341  0.2468 -0.3517  1.6028
20647SOL    HW266789   5.984   4.137   3.422 -1.4516 -0.6670  0.2055
20648SOL     OW66790   8.049   8.626   3.475 -0.6107 -0.0391 -0.1097
20648SOL    HW166791   8.065   8.642   3.382 -0.5677 -1.4855 -0.3829
20648SOL    HW266792   8.134   8.599   3.509 -0.3667  1.5477  0.6241
20649SOL     OW66793   4.812   9.168   3.963 -0.1071  0.3996 -0.1737
20649SOL    HW166794   4.873   9.173   4.036  4.0209 -0.4816 -3.1839
20649SOL    HW266795   4.783   9.258   3.948  2.6720  1.3663 -0.1806
20650SOL     OW66796   5.942   4.847   3.553  0.0996  0.4038 -0.0650
20650SOL    HW166797   5.909   4.891   3.475  0.7494 -0.4758 -0.8657
20650SOL    HW266798   5.958   4.917   3.616 -0.7829  1.0912 -0.5913
20651SOL     OW66799   5.524   8.371   4.408  0.0644 -0.2423  0.2251
20651SOL    HW166800   5.544   8.320   4.329 -0.9142  0.8004 -0.7218
20651SOL    HW266801   5.428   8.376   4.410  0.0952  0.1678  1.2107
20652SOL     OW66802   7.802   6.312   3.510  0.2446 -0.3755  0.1716
20652SOL    HW166803   7.797   6.250   3.582  2.8781  1.2540  1.9246
20652SOL    HW266804   7.891   6.304   3.477  0.2048  1.4419 -0.5076
20653SOL     OW66805   5.527   7.512   5.866  0.8520  0.3634 -0.4240
20653SOL    HW166806   5.541   7.597   5.824 -0.1663  0.7583  0.0041
20653SOL    HW266807   5.432   7.507   5.878  1.0561 -0.0241  1.2289
20654SOL     OW66808   9.011   5.507   5.356  0.5736  1.2502  0.9563
20654SOL    HW166809   8.919   5.484   5.348  0.5594  1.5336  0.1764
20654SOL    HW266810   9.031   5.497   5.449  0.8513 -2.8850  0.6074
20655SOL     OW66811   7.573   5.899   3.689  0.3356 -0.5000 -0.2866
20655SOL    HW166812   7.648   5.897   3.749  0.8558  3.1714 -0.5469
20655SOL    HW266813   7.608   5.937   3.608 -1.6994  1.2280 -0.4521
20656SOL     OW66814   7.775   7.278   2.895 -0.1930  0.4014  0.0945
20656SOL    HW166815   7.703   7.283   2.832  0.8972 -0.9249 -1.3321
20656SOL    HW266816   7.732   7.285   2.980 -1.7925  1.5763 -0.7386
20657SOL     OW66817   8.893   5.662   7.178  0.1389  0.1160  0.4292
20657SOL    HW166818   8.967   5.705   7.134  0.6722 -0.9247  0.2592
20657SOL    HW266819   8.827   5.652   7.109  0.7044 -0.8875 -0.0074
20658SOL     OW66820   7.166   7.856   3.730  0.4498 -0.2036 -0.1631
20658SOL    HW166821   7.102   7.807   3.782 -0.3333 -0.8983 -1.7229
20658SOL    HW266822   7.239   7.872   3.790  0.4684 -2.7118  0.5892
20659SOL     OW66823   5.566   7.197   5.528  0.4004  0.4175  0.2532
20659SOL    HW166824   5.486   7.237   5.493 -1.8973 -4.2633 -0.5798
20659SOL    HW266825   5.556   7.204   5.623 -0.3680  0.9956  0.1405
20660SOL     OW66826   5.775   7.234   6.038 -0.3486  0.0564 -0.3835
20660SOL    HW166827   5.815   7.167   6.094  0.0645  0.1539 -0.5659
20660SOL    HW266828   5.835   7.308   6.041 -0.1282 -0.0725 -1.2523
20661SOL     OW66829   7.398   9.262   4.305 -0.1410  0.2543 -0.6569
20661SOL    HW166830   7.443   9.310   4.374 -0.6938 -0.3193  0.1156
20661SOL    HW266831   7.468   9.233   4.246  0.6242 -1.3283  0.9527
20662SOL     OW66832   4.873   5.619   3.257 -0.7135  0.0599  0.1534
20662SOL    HW166833   4.872   5.523   3.262 -1.1957  0.0869  0.5481
20662SOL    HW266834   4.926   5.637   3.178 -0.8451 -0.5335 -0.0806
20663SOL     OW66835   7.253   3.912   3.440 -0.2584 -0.4213 -0.2030
20663SOL    HW166836   7.229   3.828   3.400 -0.3839 -0.3456 -0.2879
20663SOL    HW266837   7.200   3.917   3.519 -1.5051  0.3325 -1.0470
20664SOL     OW66838   6.940   7.940   8.130 -0.0526 -0.1725  0.0821
20664SOL    HW166839   6.946   8.027   8.170 -1.6370 -0.0036  0.0290
20664SOL    HW266840   6.922   7.881   8.203 -0.8319 -0.1726 -0.1019
20665SOL     OW66841   5.337   8.229   5.291 -0.2296 -0.1686  0.2653
20665SOL    HW166842   5.242   8.230   5.281 -0.0899 -0.0300 -1.1765
20665SOL    HW266843   5.371   8.241   5.203  1.1322  1.4628  0.9429
20666SOL     OW66844   7.780   7.648   3.143  0.3142 -0.2215  0.1391
20666SOL    HW166845   7.698   7.602   3.128  0.4432 -0.4398  0.0837
20666SOL    HW266846   7.781   7.717   3.076 -1.3953  2.0097  2.2508
20667SOL     OW66847   6.278   7.602   3.783  0.0945  0.0230  0.5381
20667SOL    HW166848   6.218   7.555   3.841  2.0088 -2.1387  0.9279
20667SOL    HW266849   6.284   7.547   3.705  0.0753  1.2158 -0.3161
20668SOL     OW66850   6.652   8.162   4.162 -0.6522  0.1056  0.7339
20668SOL    HW166851   6.695   8.239   4.126 -0.0084 -0.5686  0.0166
20668SOL    HW266852   6.724   8.107   4.193 -1.0897 -0.3474  0.9619
20669SOL     OW66853   7.449   5.899   5.737  0.2242  0.0124 -0.6461
20669SOL    HW166854   7.482   5.940   5.658 -0.6583  0.5649 -0.7358
20669SOL    HW266855   7.512   5.924   5.805  0.3712  0.4638 -0.9441
20670SOL     OW66856   8.320   5.956   4.679 -0.3870  0.1923 -0.5021
20670SOL    HW166857   8.313   6.050   4.661 -0.2112  0.2874 -0.0934
20670SOL    HW266858   8.320   5.950   4.775  1.3217 -0.0754 -0.4853
20671SOL     OW66859   9.256   6.359   5.065 -0.1124  0.6518 -0.1228
20671SOL    HW166860   9.209   6.375   4.983  0.2316  0.4560 -0.3643
20671SOL    HW266861   9.189   6.361   5.133 -0.7136 -1.0941 -0.6042
20672SOL     OW66862   6.375   3.970   6.240 -0.0897  0.1121  0.0046
20672SOL    HW166863   6.385   3.878   6.265  1.8405  0.3800  0.3776
20672SOL    HW266864   6.462   4.008   6.253 -0.9848  2.1489  0.4760
20673SOL     OW66865   8.366   6.820   3.316 -0.3658 -0.0566 -0.3292
20673SOL    HW166866   8.378   6.836   3.410  0.2898  0.4459 -0.4909
20673SOL    HW266867   8.418   6.742   3.298 -0.2079  0.0504 -0.3393
20674SOL     OW66868   4.917   7.105   4.352  0.1462 -0.3392 -0.1064
20674SOL    HW166869   4.922   7.082   4.260 -2.5915  0.1930 -0.4687
20674SOL    HW266870   4.954   7.193   4.358 -1.4874  0.4548 -1.1073
20675SOL     OW66871   9.166   6.684   4.227  0.8511 -0.1730 -0.2896
20675SOL    HW166872   9.168   6.772   4.264 -1.6053 -0.4898  0.7633
20675SOL    HW266873   9.147   6.698   4.134 -2.3068  0.4289  0.3466
20676SOL     OW66874   5.534   6.577   2.350 -0.0394  0.7148  0.3193
20676SOL    HW166875   5.495   6.633   2.283 -1.7692 -1.0599 -0.2737
20676SOL    HW266876   5.499   6.610   2.432  0.4856  1.6663  0.1691
20677SOL     OW66877   7.346   0.141   3.551  0.6409 -0.0392 -0.4023
20677SOL    HW166878   7.407   0.214   3.538  0.2280  0.2116 -0.9955
20677SOL    HW266879   7.400   0.063   3.543  1.7148  0.1489  3.2989
20678SOL     OW66880   8.772   7.232   5.336  0.1536  0.1985  0.0871
20678SOL    HW166881   8.712   7.251   5.264 -0.1251 -0.9919 -0.0038
20678SOL    HW266882   8.720   7.248   5.415  0.5418  1.7770  0.0613
20679SOL     OW66883   6.516   5.964   0.678  0.1897 -0.3871  0.4593
20679SOL    HW166884   6.573   5.911   0.734  0.1189 -1.9095 -0.8364
20679SOL    HW266885   6.484   5.903   0.612 -0.2936  1.1933 -0.8305
20680SOL     OW66886   6.562   6.742   6.668  0.2330 -0.5157  0.6006
20680SOL    HW166887   6.541   6.746   6.761  0.7519 -0.1089  0.7096
20680SOL    HW266888   6.589   6.832   6.646 -2.1687  0.0103 -0.5046
20681SOL     OW66889   7.354   9.202   6.214  0.4670 -0.3771 -0.2761
20681SOL    HW166890   7.428   9.215   6.154  0.8159  1.3907  0.4602
20681SOL    HW266891   7.281   9.177   6.158  1.2190 -0.4603 -1.2318
20682SOL     OW66892   4.917   7.352   5.658  0.1712 -0.2405 -0.1180
20682SOL    HW166893   4.879   7.383   5.740 -2.1307 -0.1746 -1.1278
20682SOL    HW266894   4.956   7.431   5.619  1.8527 -0.3947  1.1430
20683SOL     OW66895   4.692   8.048   5.975 -0.2881 -0.3683 -0.5692
20683SOL    HW166896   4.750   8.014   6.043 -0.8418  0.3634  0.2851
20683SOL    HW266897   4.728   8.012   5.894 -0.4105 -2.3638  0.2046
20684SOL     OW66898   8.021   5.588   4.424 -0.1415  0.3964  0.1493
20684SOL    HW166899   7.978   5.587   4.338 -4.2241  1.5233  1.9218
20684SOL    HW266900   8.073   5.669   4.423 -0.7953  0.8347 -0.9948
20685SOL     OW66901   8.083   4.159   4.475 -0.3691 -0.2488 -0.7410
20685SOL    HW166902   8.045   4.097   4.413 -0.8098 -0.5650 -0.1593
20685SOL    HW266903   8.031   4.149   4.555  0.3488 -0.0249 -0.2319
20686SOL     OW66904   5.330   7.282   3.324  0.0931  0.3865  0.1837
20686SOL    HW166905   5.274   7.217   3.281  1.2488  0.0285 -0.8611
20686SOL    HW266906   5.409   7.283   3.270  2.3173 -1.1907  3.1332
20687SOL     OW66907   6.094   6.739   0.961 -0.2187  0.5303  0.2390
20687SOL    HW166908   6.033   6.783   0.902  0.2226 -0.3731 -0.9398
20687SOL    HW266909   6.171   6.797   0.964  0.2919 -0.0225 -1.1633
20688SOL     OW66910   4.516   6.333   7.179 -0.4532  0.2769  0.3588
20688SOL    HW166911   4.438   6.381   7.206 -0.1351  1.6935 -1.0447
20688SOL    HW266912   4.486   6.279   7.105 -0.4006 -0.2757  0.7351
20689SOL     OW66913   6.679   5.073   3.639  0.2250  0.4503 -0.4727
20689SOL    HW166914   6.706   4.987   3.609  0.6367  0.8379 -1.2403
20689SOL    HW266915   6.630   5.056   3.719  2.1303 -0.3524  0.6096
20690SOL     OW66916   8.140   5.768   5.448  0.4876 -0.1856  0.1834
20690SOL    HW166917   8.226   5.784   5.410 -0.2573  0.6177 -1.2454
20690SOL    HW266918   8.115   5.852   5.487  0.7168 -0.6662  1.4069
20691SOL     OW66919   7.465   8.094   3.071  0.0470 -0.2907 -0.2256
20691SOL    HW166920   7.397   8.049   3.121 -0.6879  0.0231 -0.9299
20691SOL    HW266921   7.471   8.044   2.989 -0.4901  0.6323 -0.8423
20692SOL     OW66922   5.429   7.256   4.312  0.1498  0.4050  0.4249
20692SOL    HW166923   5.414   7.325   4.377  1.6712  1.4983 -0.3064
20692SOL    HW266924   5.436   7.304   4.229 -3.2528 -1.0585 -0.8899
20693SOL     OW66925   7.159   7.860   3.024 -0.1264  0.4748 -0.5347
20693SOL    HW166926   7.143   7.830   3.113 -0.1278 -1.3523 -1.1122
20693SOL    HW266927   7.072   7.887   2.992 -0.3419  0.0011 -0.3636
20694SOL     OW66928   4.202   8.750   4.158  0.5336 -0.0296 -0.5127
20694SOL    HW166929   4.281   8.696   4.153  0.7878  0.2851  0.0173
20694SOL    HW266930   4.188   8.764   4.251 -0.3499 -0.3629 -0.5839
20695SOL     OW66931   8.795   7.044   3.321  0.0051  0.3330 -0.5145
20695SOL    HW166932   8.878   7.037   3.368 -0.5906  2.2684  1.0016
20695SOL    HW266933   8.751   6.961   3.336  0.0366  0.7027  2.0901
20696SOL     OW66934   8.393   5.539   2.578  0.1106  0.2568 -0.2952
20696SOL    HW166935   8.351   5.586   2.650  0.8651  1.4252 -0.5887
20696SOL    HW266936   8.399   5.449   2.608 -1.1029  0.3986  0.4165
20697SOL     OW66937   7.300   7.765   5.549  0.1517 -0.6135 -1.1980
20697SOL    HW166938   7.228   7.810   5.594  1.2305 -0.6130  0.6281
20697SOL    HW266939   7.335   7.831   5.489  0.7237  0.5250  0.3215
20698SOL     OW66940   6.736   6.786   3.177  0.1890  0.0112  0.0262
20698SOL    HW166941   6.681   6.717   3.139 -0.0030  0.2650 -0.1591
20698SOL    HW266942   6.804   6.738   3.224  0.9714 -0.3333 -1.3951
20699SOL     OW66943   7.446   6.688   6.276 -0.2543  0.0819  0.1530
20699SOL    HW166944   7.454   6.609   6.223  2.2831 -0.6126  1.4391
20699SOL    HW266945   7.438   6.759   6.212 -1.1855 -1.0504 -1.0432
20700SOL     OW66946   7.768   4.291   6.875  0.0244 -0.3597  0.1424
20700SOL    HW166947   7.756   4.241   6.956 -1.7565 -0.1871  0.0151
20700SOL    HW266948   7.758   4.382   6.902 -0.3999 -0.2925 -0.2427
20701SOL     OW66949   8.053   7.159   6.678 -0.3423 -0.2350  0.2686
20701SOL    HW166950   8.089   7.231   6.729  0.0524 -0.8766  0.9252
20701SOL    HW266951   8.080   7.176   6.588  2.2828 -1.0612  0.8114
20702SOL     OW66952   5.990   6.564   3.717  0.1030  0.0098  0.4807
20702SOL    HW166953   5.909   6.566   3.667 -1.4421  1.7553  2.8104
20702SOL    HW266954   6.049   6.622   3.669  0.0735 -1.3789 -1.3087
20703SOL     OW66955   6.846   9.310   4.716  0.1169  0.0234  0.0551
20703SOL    HW166956   6.793   9.291   4.793  1.1026 -1.2138  0.4593
20703SOL    HW266957   6.863   9.224   4.677  0.4412  0.5478 -0.9951
20704SOL     OW66958   8.141   5.718   6.051  0.4334  0.4853 -0.1813
20704SOL    HW166959   8.113   5.804   6.019 -2.9757 -0.6385 -0.6406
20704SOL    HW266960   8.163   5.670   5.971  3.1092  1.0569  0.1212
20705SOL     OW66961   5.990   4.430   9.470 -0.2825 -0.1901  0.3968
20705SOL    HW166962   6.085   4.424   9.483 -0.3004  1.4217  1.6596
20705SOL    HW266963   5.980   4.460   9.380  0.4247 -0.1430  0.3254
20706SOL     OW66964   5.369   8.122   5.792  0.1349 -0.2399  0.4777
20706SOL    HW166965   5.434   8.112   5.862  0.8569  0.1488 -0.1156
20706SOL    HW266966   5.313   8.194   5.821  1.4769  1.1003 -0.0814
20707SOL     OW66967   6.316   7.614   3.187  0.2744  0.5368 -0.1974
20707SOL    HW166968   6.357   7.658   3.113  0.4613  2.5508  1.0451
20707SOL    HW266969   6.370   7.536   3.201 -0.4212 -0.5129 -2.8218
20708SOL     OW66970   7.470   8.823   0.620  0.3277  0.3814 -0.6439
20708SOL    HW166971   7.481   8.801   0.713 -0.3058  0.1715 -0.6123
20708SOL    HW266972   7.427   8.908   0.620  0.1452  0.2901 -0.7418
20709SOL     OW66973   3.980   5.268   4.402  0.7747 -0.6414  0.3097
20709SOL    HW166974   4.022   5.215   4.334 -1.4941 -0.2719 -1.4997
20709SOL    HW266975   4.013   5.357   4.387 -0.2626 -0.4256 -0.8425
20710SOL     OW66976   3.823   7.498   2.366  0.3438 -0.0147 -0.3115
20710SOL    HW166977   3.835   7.429   2.432 -2.6383 -0.0695  0.3257
20710SOL    HW266978   3.779   7.454   2.293 -0.2721  0.8754 -0.4972
20711SOL     OW66979   4.529   8.646   5.769  0.0067 -0.5431 -0.0608
20711SOL    HW166980   4.465   8.642   5.840 -0.9057 -1.3510 -0.8929
20711SOL    HW266981   4.569   8.559   5.768  1.0782 -0.0754  0.3913
20712SOL     OW66982   8.353   5.209   5.584  0.4179 -0.4356 -0.2281
20712SOL    HW166983   8.300   5.132   5.565 -1.2409  0.1686  1.5773
20712SOL    HW266984   8.375   5.201   5.677  0.6934  0.9503 -0.1533
20713SOL     OW66985   8.551   7.952   2.197  0.6281  0.2328  0.3469
20713SOL    HW166986   8.577   7.953   2.289  1.7520  1.4008  0.0505
20713SOL    HW266987   8.629   7.923   2.150  1.3171  3.1364 -0.5051
20714SOL     OW66988   5.748   6.634   3.370  0.1050 -0.3557  0.3093
20714SOL    HW166989   5.824   6.666   3.320 -0.2244 -0.3400 -0.1867
20714SOL    HW266990   5.752   6.682   3.453  0.3886 -0.0323  0.1098
20715SOL     OW66991   6.144   7.855   5.089 -0.3912  0.7411 -0.1757
20715SOL    HW166992   6.153   7.765   5.118 -1.0847  0.1586 -1.6436
20715SOL    HW266993   6.077   7.892   5.146  0.2192  0.4697  0.7261
20716SOL     OW66994   6.953   7.762   4.482  0.5262  0.4907  0.2212
20716SOL    HW166995   6.992   7.727   4.401 -0.9283  2.7513 -1.5773
20716SOL    HW266996   7.021   7.818   4.519  0.6710  0.6377 -0.2588
20717SOL     OW66997   6.073   6.203   6.390 -0.2565  0.0341 -0.2110
20717SOL    HW166998   6.053   6.211   6.296 -0.4418  2.3710 -0.0405
20717SOL    HW266999   5.996   6.161   6.428 -1.3353  1.3935 -0.7777
20718SOL     OW67000   7.962   6.201   6.281  0.6725 -0.3358 -0.4668
20718SOL    HW167001   8.019   6.213   6.205 -0.3401 -0.1041 -1.2142
20718SOL    HW267002   7.888   6.258   6.265  0.7381  0.2246  1.0337
20719SOL     OW67003   4.315   7.725   4.080 -0.0109  0.4595  0.2519
20719SOL    HW167004   4.236   7.777   4.064  0.3160  1.4010  1.5600
20719SOL    HW267005   4.285   7.650   4.131  0.0213  1.1674  1.3346
20720SOL     OW67006   3.840   7.776   4.323  0.3196  0.2964  0.6118
20720SOL    HW167007   3.921   7.799   4.277  0.4515  0.0784  0.7323
20720SOL    HW267008   3.774   7.773   4.253  0.5016  0.0533  0.4459
20721SOL     OW67009   7.386   7.859   3.916  0.1778 -0.0356 -0.1068
20721SOL    HW167010   7.429   7.774   3.914 -0.4313 -0.3506 -0.0528
20721SOL    HW267011   7.457   7.922   3.928  0.5761 -0.5789  0.4059
20722SOL     OW67012   6.187   7.602   5.113 -0.2987  0.1061 -0.3170
20722SOL    HW167013   6.235   7.598   5.030  2.3631 -0.3745  1.1594
20722SOL    HW267014   6.216   7.525   5.161 -0.6800  1.1310  1.6381
20723SOL     OW67015   5.555   6.794   4.094 -0.3650  0.1778  0.0695
20723SOL    HW167016   5.565   6.875   4.144  0.3364  0.9611 -1.2695
20723SOL    HW267017   5.636   6.745   4.112 -0.9880 -0.4657  1.2390
20724SOL     OW67018   7.740   4.998   7.338  0.0919 -0.3118 -0.0622
20724SOL    HW167019   7.810   4.938   7.315 -0.5140 -0.5454 -1.4058
20724SOL    HW267020   7.784   5.083   7.350  0.8458 -0.8445  1.1042
20725SOL     OW67021   6.865   6.275   6.184 -0.3683 -0.3196  0.2635
20725SOL    HW167022   6.796   6.251   6.122  0.2102  0.3603 -0.6691
20725SOL    HW267023   6.945   6.274   6.132 -0.0446  1.5718  0.6563
20726SOL     OW67024   5.629   7.370   3.392 -0.3444 -0.3213 -0.5038
20726SOL    HW167025   5.696   7.437   3.376 -0.9413  0.2913 -0.4911
20726SOL    HW267026   5.586   7.398   3.473 -0.3156 -0.9611 -0.2609
20727SOL     OW67027   7.452   7.968   1.452  0.1468 -0.0065  0.0653
20727SOL    HW167028   7.469   7.874   1.449 -0.7979 -0.2068  0.6286
20727SOL    HW267029   7.429   7.986   1.543 -2.8273  0.1683 -0.6350
20728SOL     OW67030   6.938   8.084   5.403 -0.1340 -0.7948 -0.1496
20728SOL    HW167031   6.898   8.018   5.347  0.0382 -2.1038  1.2079
20728SOL    HW267032   6.864   8.121   5.452  0.0962 -2.6176  1.7395
20729SOL     OW67033   7.246   6.559   5.965  0.2038  0.2731  0.0828
20729SOL    HW167034   7.185   6.523   5.900  1.4764  0.3983 -1.2241
20729SOL    HW267035   7.263   6.648   5.935  1.1357  0.1915  0.3384
20730SOL     OW67036   8.452   7.874   3.524  0.6802 -0.2132 -0.5721
20730SOL    HW167037   8.528   7.844   3.573 -1.2078 -0.4258  2.4459
20730SOL    HW267038   8.442   7.966   3.549  0.2416 -0.0310 -1.3699
20731SOL     OW67039   5.763   5.345   2.510 -0.1381  0.3433  0.3569
20731SOL    HW167040   5.679   5.321   2.472 -0.1107  1.6729 -0.6323
20731SOL    HW267041   5.826   5.284   2.472 -0.6368 -0.6344  1.0762
20732SOL     OW67042   3.746   0.263   3.820  0.4272 -0.2423 -0.0673
20732SOL    HW167043   3.672   0.301   3.772  2.0247  1.5642 -1.2767
20732SOL    HW267044   3.721   0.271   3.912 -1.0802 -0.1286 -0.4547
20733SOL     OW67045   7.423   5.131   3.626 -0.3458 -0.2352  0.4855
20733SOL    HW167046   7.513   5.154   3.603 -0.4012 -0.0059  0.5047
20733SOL    HW267047   7.393   5.075   3.554 -0.5960  0.6643 -0.1145
20734SOL     OW67048   5.533   6.239   2.175 -0.3927 -0.0012  0.0856
20734SOL    HW167049   5.618   6.261   2.213 -0.3075  0.3621 -0.3166
20734SOL    HW267050   5.550   6.164   2.119 -0.6225 -0.9172  1.1901
20735SOL     OW67051   8.415   8.313   5.697 -0.0008  0.6993 -0.5177
20735SOL    HW167052   8.375   8.373   5.759 -1.8458 -0.2476 -0.7127
20735SOL    HW267053   8.398   8.226   5.734  0.8341  0.2034 -1.2500
20736SOL     OW67054   7.964   7.355   3.113  0.7136 -0.0620  0.3123
20736SOL    HW167055   8.049   7.313   3.131  1.3002  0.1043 -1.7540
20736SOL    HW267056   7.937   7.319   3.028 -0.1253  1.6272 -0.1889
20737SOL     OW67057   5.342   4.590   3.464 -0.2063 -0.2683  0.5142
20737SOL    HW167058   5.411   4.594   3.398 -1.8050  0.3119 -1.2015
20737SOL    HW267059   5.364   4.513   3.516  2.4734  0.6835  0.9429
20738SOL     OW67060   7.678   6.847   4.082 -0.3924  0.2996 -0.4029
20738SOL    HW167061   7.621   6.894   4.143 -1.2171 -0.9546 -0.1656
20738SOL    HW267062   7.623   6.829   4.006  0.3085  0.8811 -1.0723
20739SOL     OW67063   8.958   5.630   3.549 -0.3126  0.4646 -0.1129
20739SOL    HW167064   9.038   5.682   3.549  0.5142 -0.7233 -1.3403
20739SOL    HW267065   8.892   5.686   3.507  0.7845  0.2439 -2.2353
20740SOL     OW67066   6.154   7.724   4.415  0.0921  0.3329  0.3029
20740SOL    HW167067   6.108   7.790   4.362 -0.5020  1.4510  2.1117
20740SOL    HW267068   6.119   7.737   4.504 -0.7665 -3.0633  0.5924
20741SOL     OW67069   3.211   6.371   7.438 -0.1469  0.0421  0.3859
20741SOL    HW167070   3.295   6.395   7.476  0.1495  2.0959 -1.4172
20741SOL    HW267071   3.233   6.312   7.366 -0.2292  0.7455 -0.2182
20742SOL     OW67072   7.074   8.210   2.198  0.2788  0.8153 -0.7555
20742SOL    HW167073   7.082   8.292   2.148 -1.8587  0.4045 -1.8918
20742SOL    HW267074   6.995   8.223   2.251 -0.3093 -0.6597 -1.2489
20743SOL     OW67075   7.729   5.435   6.132  0.5112 -0.5288  0.6726
20743SOL    HW167076   7.811   5.449   6.086  0.9152  0.0343  1.5276
20743SOL    HW267077   7.756   5.416   6.223 -0.3032 -0.1083  1.0096
20744SOL     OW67078   4.899   7.652   5.730 -0.2568 -0.2250  0.8645
20744SOL    HW167079   4.941   7.728   5.771 -0.6088  0.2378  0.3707
20744SOL    HW267080   4.913   7.665   5.636 -0.0730 -0.9191  0.7890
20745SOL     OW67081   7.786   6.598   4.924 -0.2176 -0.7950 -0.3293
20745SOL    HW167082   7.829   6.684   4.928 -0.5483 -0.5977 -0.8488
20745SOL    HW267083   7.782   6.569   5.015 -1.7487  0.5776  0.0852
20746SOL     OW67084   7.448   7.441   1.602 -0.2575  0.8518  0.3058
20746SOL    HW167085   7.470   7.358   1.560 -0.4235  0.1274  1.6130
20746SOL    HW267086   7.531   7.473   1.638 -0.1661  1.3402 -0.3137
20747SOL     OW67087   6.501   7.885   6.216 -0.3679  0.6221  0.5894
20747SOL    HW167088   6.596   7.888   6.217 -0.3493  0.3579  0.1791
20747SOL    HW267089   6.480   7.813   6.157 -0.8207  0.4567  0.9489
20748SOL     OW67090   8.160   7.248   4.012 -0.2055 -0.5039 -0.0771
20748SOL    HW167091   8.179   7.230   4.104  1.9850  0.3352 -0.2949
20748SOL    HW267092   8.168   7.343   4.005 -2.2317 -0.3421 -0.7893
20749SOL     OW67093   4.418   9.088   4.399 -0.3245  0.6579 -0.1551
20749SOL    HW167094   4.400   9.182   4.408 -0.0059  0.6726  0.3707
20749SOL    HW267095   4.510   9.078   4.421 -0.5388  0.1230  0.5556
20750SOL     OW67096   6.871   6.974   2.643  0.0858 -1.0900 -0.0094
20750SOL    HW167097   6.923   7.053   2.660 -0.8242 -0.3189 -0.6943
20750SOL    HW267098   6.805   6.974   2.712 -0.2500 -0.9392 -0.3246
20751SOL     OW67099   5.814   6.268   2.747  0.7791  0.0528 -0.3040
20751SOL    HW167100   5.764   6.318   2.682  0.6875  1.3861  0.7545
20751SOL    HW267101   5.904   6.296   2.735  0.6540  0.9062  0.6462
20752SOL     OW67102   5.440   6.310   6.797  0.0824  0.1533  0.1002
20752SOL    HW167103   5.418   6.280   6.708 -0.9586  0.8660  0.0913
20752SOL    HW267104   5.426   6.405   6.794  1.5017  0.4089  0.6281
20753SOL     OW67105   8.095   7.789   5.984  0.3200  0.6977  0.0234
20753SOL    HW167106   8.085   7.719   5.920 -0.3162  0.9593 -0.1692
20753SOL    HW267107   8.101   7.869   5.931  0.1021  0.8850  0.2784
20754SOL     OW67108   4.619   6.637   5.744  0.4497 -0.2651 -0.4759
20754SOL    HW167109   4.584   6.576   5.808 -0.1569 -0.5872 -1.0972
20754SOL    HW267110   4.709   6.608   5.728  0.1563 -1.0174 -0.7864
20755SOL     OW67111   7.062   6.524   5.286  0.4665 -0.5310  0.5398
20755SOL    HW167112   7.039   6.545   5.377 -1.5798 -0.9880  0.1758
20755SOL    HW267113   7.065   6.428   5.284 -1.4564 -0.6197 -0.2552
20756SOL     OW67114   7.710   6.082   3.372  0.3201 -0.0563  0.3201
20756SOL    HW167115   7.751   6.002   3.341 -2.0982 -0.9765 -0.7708
20756SOL    HW267116   7.751   6.099   3.456  1.9310 -1.6100 -0.0983
20757SOL     OW67117   7.297   7.033   5.715 -0.2884  0.0863  0.3441
20757SOL    HW167118   7.390   7.018   5.697 -0.4115 -0.4155  0.0974
20757SOL    HW267119   7.289   7.128   5.723  0.1725  0.1607 -0.0339
20758SOL     OW67120   3.422   6.387   1.775  0.2565  0.0779 -0.0548
20758SOL    HW167121   3.407   6.297   1.746 -1.2538  0.2645  0.0316
20758SOL    HW267122   3.343   6.410   1.823  1.5770  0.6849  1.9426
20759SOL     OW67123   7.295   4.785   4.073 -0.2113 -0.0717 -0.2919
20759SOL    HW167124   7.207   4.755   4.052  0.1975 -0.7175 -1.1649
20759SOL    HW267125   7.347   4.705   4.080  0.3139  0.3013  0.1742
20760SOL     OW67126   4.421   6.880   7.069 -0.5486 -0.3550 -0.1402
20760SOL    HW167127   4.460   6.966   7.056 -0.9540  0.2251  2.2325
20760SOL    HW267128   4.496   6.820   7.066  0.0103  0.3090  0.3404
20761SOL     OW67129   6.357   6.609   0.634  0.5822 -0.3160 -0.4725
20761SOL    HW167130   6.352   6.671   0.706  2.5875 -0.4266 -0.1891
20761SOL    HW267131   6.373   6.524   0.676 -1.1097 -0.8899 -0.9111
20762SOL     OW67132   8.922   7.632   3.800 -0.8712  0.0435  0.5612
20762SOL    HW167133   8.980   7.700   3.767  0.7353 -0.1083  2.8581
20762SOL    HW267134   8.943   7.554   3.749 -0.9165  0.6168 -0.3500
20763SOL     OW67135   6.071   3.005   3.545 -0.3286  0.0676 -0.8084
20763SOL    HW167136   6.057   3.029   3.453 -0.9976  0.1906 -0.6796
20763SOL    HW267137   5.983   3.003   3.583  0.0419  1.6637  0.2432
20764SOL     OW67138   8.141   4.521   2.022  0.3546 -0.0843  0.0610
20764SOL    HW167139   8.222   4.551   1.979  0.6256  0.0135  0.6230
20764SOL    HW267140   8.084   4.494   1.950  1.3706 -1.3842 -0.2886
20765SOL     OW67141   4.225   8.351   5.885  0.0816 -0.5750  0.2896
20765SOL    HW167142   4.165   8.279   5.872 -0.2205 -0.0978 -1.2162
20765SOL    HW267143   4.255   8.342   5.975 -1.0552 -1.7134  0.5809
20766SOL     OW67144   5.729   8.922   2.449 -0.3108 -0.6689  0.1687
20766SOL    HW167145   5.684   8.838   2.442  1.5162 -1.8541  1.6887
20766SOL    HW267146   5.757   8.928   2.540  0.6041  1.0610 -0.1656
20767SOL     OW67147   5.793   8.906   5.432 -0.1058  0.0158  0.5441
20767SOL    HW167148   5.883   8.900   5.400 -0.2482  0.7068 -0.0078
20767SOL    HW267149   5.748   8.832   5.393 -0.1555  0.5667 -0.4639
20768SOL     OW67150   8.585   7.270   5.089 -0.3904 -0.4891 -0.1822
20768SOL    HW167151   8.500   7.224   5.090 -0.6911  0.0582 -0.0389
20768SOL    HW267152   8.562   7.361   5.074 -0.0158  0.0665  2.2067
20769SOL     OW67153   6.331   8.299   5.088  0.1160  0.1286  0.5196
20769SOL    HW167154   6.251   8.249   5.070  0.0880  0.2371  0.3298
20769SOL    HW267155   6.311   8.388   5.056  0.5385 -0.0015 -0.1325
20770SOL     OW67156   8.164   6.487   4.853  0.1766  0.2344 -0.2564
20770SOL    HW167157   8.164   6.582   4.849 -0.5285  0.2706  0.4615
20770SOL    HW267158   8.215   6.460   4.776  0.0371  1.1769 -0.6932
20771SOL     OW67159   6.859   3.627   3.735 -0.0882  0.4408  0.1530
20771SOL    HW167160   6.955   3.622   3.737 -0.0008  1.5984 -0.3333
20771SOL    HW267161   6.830   3.536   3.746  1.1028 -0.2458 -1.7937
20772SOL     OW67162   6.351   8.620   5.452  0.3784 -0.6802 -0.7312
20772SOL    HW167163   6.355   8.646   5.360 -2.2182 -0.2450 -0.7871
20772SOL    HW267164   6.412   8.678   5.496  1.3946 -0.6537 -2.1099
20773SOL     OW67165   9.423   5.147   7.072 -0.1647  0.0902  0.0647
20773SOL    HW167166   9.338   5.145   7.116 -1.0522 -0.9639 -1.6068
20773SOL    HW267167   9.404   5.124   6.981  2.1897 -2.7375  0.1444
20774SOL     OW67168   4.915   7.863   7.754 -0.5018  0.4515  0.0427
20774SOL    HW167169   4.987   7.883   7.694  0.3857 -0.0265  0.9026
20774SOL    HW267170   4.922   7.930   7.822 -0.1060 -0.2806  0.7516
20775SOL     OW67171   5.545   7.781   1.676  0.4461  0.2630 -0.2702
20775SOL    HW167172   5.450   7.778   1.664  0.4325 -0.1782 -0.0590
20775SOL    HW267173   5.568   7.695   1.710  1.2064 -0.3507 -2.2027
20776SOL     OW67174   5.476   9.390   3.358 -0.0600 -0.5012  0.3289
20776SOL    HW167175   5.572   9.395   3.356  0.0915 -1.9791 -2.7280
20776SOL    HW267176   5.447   9.479   3.342  0.8162 -0.0857  0.9760
20777SOL     OW67177   7.844   6.169   4.423 -0.1402 -0.1606 -0.3252
20777SOL    HW167178   7.827   6.137   4.334 -0.3095 -1.0909  0.0289
20777SOL    HW267179   7.889   6.096   4.466  0.6352  0.5727  0.1220
20778SOL     OW67180   7.026   6.205   4.859  0.2286  0.1119  0.0387
20778SOL    HW167181   6.985   6.119   4.850 -1.7297  0.9039  0.7662
20778SOL    HW267182   7.008   6.250   4.776 -0.8180  0.6050  0.5083
20779SOL     OW67183   7.534   6.905   4.584 -0.3729  0.4148  0.5689
20779SOL    HW167184   7.628   6.889   4.584  0.1937  3.1897 -0.1768
20779SOL    HW267185   7.508   6.897   4.675  0.6673 -0.0060  0.8428
20780SOL     OW67186   7.394   0.766   5.642  0.1784 -0.4010  0.1328
20780SOL    HW167187   7.358   0.770   5.554  0.1421 -0.7158  0.1327
20780SOL    HW267188   7.460   0.835   5.645 -1.2751  1.0723  0.5099
20781SOL     OW67189   6.372   6.838   0.817  0.0978 -0.4436 -0.1374
20781SOL    HW167190   6.349   6.896   0.889 -1.0089  0.0378 -0.8575
20781SOL    HW267191   6.426   6.892   0.759 -1.3208  0.0556 -1.0443
20782SOL     OW67192   7.866   6.165   7.051  0.1276 -0.9245 -0.4691
20782SOL    HW167193   7.961   6.170   7.063  0.1535 -0.2105 -0.8991
20782SOL    HW267194   7.850   6.208   6.967 -0.6863 -0.0423  0.1211
20783SOL     OW67195   8.841   6.293   5.587 -0.1067 -0.3712  0.3154
20783SOL    HW167196   8.847   6.278   5.493 -2.2129 -1.3787  0.2768
20783SOL    HW267197   8.877   6.214   5.627 -3.4878 -2.1604  0.2050
20784SOL     OW67198   3.875   6.681   3.244 -0.0720  0.3685  0.2226
20784SOL    HW167199   3.829   6.708   3.324 -0.8472  1.0994 -0.4523
20784SOL    HW267200   3.919   6.600   3.269 -0.8872  0.1945  1.1993
20785SOL     OW67201   7.117   8.618   4.596 -0.0667  0.1449  0.2806
20785SOL    HW167202   7.128   8.649   4.686 -2.6567  1.0460  0.3672
20785SOL    HW267203   7.088   8.527   4.605  1.9006 -0.5470  0.2085
20786SOL     OW67204   4.595   6.366   3.851  0.0920 -0.3069  0.7980
20786SOL    HW167205   4.572   6.331   3.937  0.0233  0.9722  1.3310
20786SOL    HW267206   4.550   6.310   3.789  1.8917 -2.6221  1.4510
20787SOL     OW67207   3.852   8.414   3.789  0.3114 -0.6128 -0.0434
20787SOL    HW167208   3.908   8.490   3.799  0.3099  0.0151 -3.5785
20787SOL    HW267209   3.763   8.449   3.789  0.2794 -0.6666 -1.0034
20788SOL     OW67210   7.556   7.078   2.036  0.5782 -0.0030  0.1737
20788SOL    HW167211   7.516   7.156   2.073  0.1918  0.2775 -0.8130
20788SOL    HW267212   7.544   7.087   1.941 -0.8200 -1.9500  0.0991
20789SOL     OW67213   6.452   6.322   4.163  0.1350  0.2979  0.2094
20789SOL    HW167214   6.452   6.247   4.103  0.7958 -0.1751  0.7863
20789SOL    HW267215   6.409   6.392   4.114 -3.4845 -1.3077  0.7524
20790SOL     OW67216   7.323   6.985   1.684  0.1848 -0.6136  0.2935
20790SOL    HW167217   7.351   7.067   1.724 -1.7345 -0.2256  0.9401
20790SOL    HW267218   7.303   6.928   1.758 -0.4375 -0.9495 -0.1246
20791SOL     OW67219   5.394   6.735   4.468 -0.4042  0.3038  0.2553
20791SOL    HW167220   5.357   6.754   4.381  1.2578 -0.7880 -0.7506
20791SOL    HW267221   5.446   6.812   4.490 -2.1479  1.3035  1.1024
20792SOL     OW67222   7.509   5.943   4.668 -0.6931 -0.0928 -0.5154
20792SOL    HW167223   7.596   5.976   4.645 -0.6144 -0.5937 -0.9511
20792SOL    HW267224   7.456   6.022   4.679  0.4183  0.3769  2.3446
20793SOL     OW67225   6.284   7.897   3.731  0.3772 -0.8718  0.3165
20793SOL    HW167226   6.258   7.811   3.763 -0.5217  0.0998  2.4225
20793SOL    HW267227   6.371   7.911   3.767 -0.5660  0.1522  2.3886
20794SOL     OW67228   7.214   6.925   2.795  0.9660 -0.3643  0.0762
20794SOL    HW167229   7.306   6.938   2.773  0.7359 -0.8051 -1.2074
20794SOL    HW267230   7.170   7.002   2.759  0.9555  0.4740  1.7620
20795SOL     OW67231   6.281   8.022   0.927  0.8921 -0.3462  0.0015
20795SOL    HW167232   6.305   7.939   0.967  0.0478 -0.1824  0.8710
20795SOL    HW267233   6.339   8.087   0.967 -1.7037  0.2863  3.1523
20796SOL     OW67234   5.127   0.169   6.465  0.7947  0.0779  0.6076
20796SOL    HW167235   5.106   0.176   6.558  0.1469  0.1501  0.4597
20796SOL    HW267236   5.057   0.216   6.421  1.3074  0.3769  0.0968
20797SOL     OW67237   7.130   8.585   5.502 -0.2974 -0.7381 -0.0850
20797SOL    HW167238   7.216   8.622   5.480 -0.0775 -0.8973  0.4698
20797SOL    HW267239   7.138   8.562   5.595 -0.1606 -2.9384 -0.5940
20798SOL     OW67240   5.370   2.619   6.438 -0.2458 -0.4230 -0.2212
20798SOL    HW167241   5.444   2.570   6.475  1.5806  2.5341  0.3330
20798SOL    HW267242   5.399   2.646   6.352 -1.2716 -0.3630 -0.5645
20799SOL     OW67243   5.783   5.810   7.378 -0.2994 -0.1455 -0.4726
20799SOL    HW167244   5.718   5.743   7.396  1.5749 -1.4374  2.1639
20799SOL    HW267245   5.759   5.883   7.436  0.7541 -0.8015  0.8473
20800SOL     OW67246   3.895   0.047   6.276 -0.8210  0.2179 -0.4431
20800SOL    HW167247   3.941  -0.036   6.272 -2.1349 -0.5471 -0.2059
20800SOL    HW267248   3.890   0.076   6.185  0.1838  0.3536 -0.4595
20801SOL     OW67249   7.434   6.154   3.866  0.3272 -0.2831  0.2295
20801SOL    HW167250   7.478   6.219   3.810 -2.1969  2.1532  0.8556
20801SOL    HW267251   7.396   6.091   3.804  0.9726  0.0835 -0.5517
20802SOL     OW67252   5.785   7.810   5.566  0.2573  0.1170  0.2617
20802SOL    HW167253   5.848   7.760   5.618 -1.0260 -1.4153  0.4245
20802SOL    HW267254   5.810   7.901   5.579  2.9357 -0.4205 -0.3250
20803SOL     OW67255   7.229   5.939   4.850  0.2758 -0.4721 -0.7912
20803SOL    HW167256   7.144   5.895   4.860  1.0573 -1.7904  0.4278
20803SOL    HW267257   7.228   5.973   4.761 -1.7070 -0.0716 -0.6593
20804SOL     OW67258   6.722   0.015   7.114 -0.0130 -0.6898 -0.4738
20804SOL    HW167259   6.647  -0.044   7.126  0.0004 -0.6289 -0.0881
20804SOL    HW267260   6.684   0.092   7.071 -0.2334 -0.5275  0.0051
20805SOL     OW67261   6.753   4.445   6.075 -0.2194  0.3190 -0.3396
20805SOL    HW167262   6.764   4.437   6.170  0.3619  0.1078 -0.4216
20805SOL    HW267263   6.675   4.392   6.056 -0.9057  1.1358  0.1368
20806SOL     OW67264   6.481   9.298   7.777  0.1625  0.5809  0.0172
20806SOL    HW167265   6.480   9.312   7.872  0.6862 -1.6149  0.4052
20806SOL    HW267266   6.572   9.313   7.752  0.3231 -0.1655  0.1210
20807SOL     OW67267   7.174   9.793   6.552 -0.7738 -0.1031 -0.7235
20807SOL    HW167268   7.186   9.770   6.644  1.1056 -3.4625 -1.6532
20807SOL    HW267269   7.081   9.816   6.545 -0.8351  0.8034  2.0408
20808SOL     OW67270   7.252   8.873   7.698  0.2434  0.1606  0.1043
20808SOL    HW167271   7.329   8.892   7.645 -0.1936 -1.0542 -1.0538
20808SOL    HW267272   7.178   8.894   7.641 -0.3254  1.8023  1.3791
20809SOL     OW67273   7.860   6.861   6.527 -0.2929 -0.5716 -0.4564
20809SOL    HW167274   7.843   6.767   6.525  0.1593 -0.6679 -0.1053
20809SOL    HW267275   7.774   6.902   6.518 -0.6671 -1.0314  0.7467
20810SOL     OW67276   8.080   6.124   5.782  0.6015  0.0861  0.0141
20810SOL    HW167277   8.117   6.186   5.845 -1.7803  0.3004  1.3253
20810SOL    HW267278   7.999   6.167   5.751 -0.7006 -1.9803  0.3572
20811SOL     OW67279   0.895   4.615   6.161  0.2988 -0.3912 -0.5401
20811SOL    HW167280   0.989   4.632   6.172  0.0768 -0.0936  1.2724
20811SOL    HW267281   0.855   4.648   6.242 -1.1637 -2.1651 -0.4780
20812SOL     OW67282   7.856   7.115   4.541 -0.3543 -0.1644  0.3470
20812SOL    HW167283   7.947   7.102   4.566  0.4839  2.9372 -0.6035
20812SOL    HW267284   7.861   7.157   4.455 -2.7385 -0.8871 -0.2206
20813SOL     OW67285   3.427   8.769   6.724 -0.1674 -0.0547 -0.6028
20813SOL    HW167286   3.456   8.691   6.771 -1.6336 -1.5815 -2.0975
20813SOL    HW267287   3.331   8.763   6.724 -0.3344  1.8263 -0.6736
20814SOL     OW67288   5.352   5.187   7.577 -0.3800  0.1998 -0.3454
20814SOL    HW167289   5.337   5.110   7.523 -0.3938  0.1052 -0.2078
20814SOL    HW267290   5.423   5.234   7.533 -1.7562  1.2020 -1.5907
20815SOL     OW67291   5.521   7.024   6.770  0.1230 -0.2088  0.5712
20815SOL    HW167292   5.464   7.095   6.740 -1.2831 -0.7485  1.8665
20815SOL    HW267293   5.558   6.989   6.689 -1.3609  0.1830 -0.3356
20816SOL     OW67294   6.915   5.730   8.101  0.2519 -0.0858  0.3659
20816SOL    HW167295   6.923   5.693   8.189 -1.3905 -3.1890 -0.6342
20816SOL    HW267296   6.851   5.674   8.057 -1.6571  3.4725 -1.7761
20817SOL     OW67297   5.167   5.306   7.384  0.4625  0.1772  0.5656
20817SOL    HW167298   5.244   5.297   7.442  0.9494 -1.5324 -0.2934
20817SOL    HW267299   5.093   5.286   7.441  0.9458 -1.6505  0.6170
20818SOL     OW67300   6.565   9.111   6.660 -0.2738  0.2880  0.2363
20818SOL    HW167301   6.575   9.152   6.746  1.6067  0.2577  0.0566
20818SOL    HW267302   6.591   9.179   6.598 -0.5738 -0.0418 -0.2577
20819SOL     OW67303   8.637   5.200   5.492  0.2609  0.2491  0.3860
20819SOL    HW167304   8.713   5.221   5.546 -0.0067 -0.4047  1.0413
20819SOL    HW267305   8.595   5.127   5.537 -1.1208  1.0090  0.4094
20820SOL     OW67306   4.939   8.891   4.693 -0.2332 -0.3344  0.6155
20820SOL    HW167307   4.982   8.873   4.777  1.2982  1.5340  0.3034
20820SOL    HW267308   4.986   8.967   4.658 -0.8393 -1.0623 -1.9509
20821SOL     OW67309   8.319   5.277   4.038 -0.5198  0.1806 -0.0500
20821SOL    HW167310   8.376   5.223   3.983 -0.0380  1.4324 -0.8305
20821SOL    HW267311   8.373   5.301   4.114 -0.3619  0.4611 -0.2485
20822SOL     OW67312   6.312   7.083   6.018 -0.1969 -0.4107 -0.8159
20822SOL    HW167313   6.349   7.110   6.102  1.3316  0.4886 -1.7335
20822SOL    HW267314   6.303   6.988   6.025 -0.6455 -0.2788  0.5536
20823SOL     OW67315   5.804   6.474   7.848  0.0088  0.2641  0.5791
20823SOL    HW167316   5.849   6.396   7.881 -0.2552  1.3056  3.7239
20823SOL    HW267317   5.872   6.542   7.848 -0.0509  0.3702 -1.0271
20824SOL     OW67318   6.479   8.341   5.731  0.2922  0.2056  0.3585
20824SOL    HW167319   6.457   8.248   5.732  3.2025 -0.6155 -0.5659
20824SOL    HW267320   6.483   8.365   5.824 -1.8294 -0.1527  0.5913
20825SOL     OW67321   6.876   6.737   7.732  0.2080  0.2361 -0.2486
20825SOL    HW167322   6.831   6.745   7.648 -0.4133 -0.6439 -0.0167
20825SOL    HW267323   6.858   6.820   7.777  2.0370  1.4738 -1.6509
20826SOL     OW67324   8.466   4.973   5.339  0.2522  0.8819 -0.2486
20826SOL    HW167325   8.462   5.065   5.312 -0.9398  0.8821 -0.1312
20826SOL    HW267326   8.379   4.938   5.319  0.3556  0.0558  0.6599
20827SOL     OW67327   5.915   7.400   9.668 -0.0330  0.1146  0.5397
20827SOL    HW167328   5.854   7.455   9.618  0.2900  0.3690  0.4206
20827SOL    HW267329   5.933   7.326   9.611 -0.3755 -0.0564  0.6509
20828SOL     OW67330   6.810   2.522   4.289  0.3482 -0.2354  0.5758
20828SOL    HW167331   6.850   2.590   4.343 -0.7050  0.1180  0.9516
20828SOL    HW267332   6.790   2.451   4.350  2.3405 -1.3374  0.0179
20829SOL     OW67333   8.271   7.722   7.370  0.1357  0.5795 -0.2081
20829SOL    HW167334   8.292   7.648   7.313 -0.7690  0.8744 -0.9510
20829SOL    HW267335   8.336   7.718   7.440  0.5226 -0.5059 -0.6124
20830SOL     OW67336   4.826   6.988   7.203 -0.0541 -0.8760  0.0397
20830SOL    HW167337   4.783   6.988   7.288 -0.7980  1.9917 -0.2067
20830SOL    HW267338   4.756   7.010   7.141  1.0684  0.4784 -0.8264
20831SOL     OW67339   5.974   7.986   6.734 -0.1537 -0.2482 -0.4907
20831SOL    HW167340   5.928   8.068   6.714  1.2785  0.6733 -0.1313
20831SOL    HW267341   5.961   7.973   6.828  0.3918  0.0610 -0.3721
20832SOL     OW67342   5.099   6.986   7.263  0.2111 -0.0555 -0.1654
20832SOL    HW167343   5.142   7.036   7.194 -0.6986 -0.6528 -1.2024
20832SOL    HW267344   5.013   6.964   7.227  0.0357 -1.1219  0.8202
20833SOL     OW67345   7.495   8.108   6.507  0.4769  0.1927  0.3771
20833SOL    HW167346   7.570   8.102   6.566  2.3523 -3.0864 -2.0047
20833SOL    HW267347   7.529   8.083   6.422 -2.1965  4.0211 -2.1676
20834SOL     OW67348   8.658   4.697   6.320  0.0742 -0.2994 -0.3081
20834SOL    HW167349   8.744   4.731   6.346 -0.4507  0.1074  0.9816
20834SOL    HW267350   8.669   4.602   6.322  0.0911 -0.2975  1.4583
20835SOL     OW67351   7.149   7.695   4.260  0.8074 -0.0842  0.3514
20835SOL    HW167352   7.168   7.781   4.221  3.8027  0.0177  1.7234
20835SOL    HW267353   7.221   7.639   4.231 -1.1249 -2.2367 -0.5748
20836SOL     OW67354   6.567   7.978   6.518 -0.0641 -0.2899 -0.3279
20836SOL    HW167355   6.637   7.915   6.498 -0.7481 -1.1934  0.0679
20836SOL    HW267356   6.613   8.060   6.535  0.9561 -1.0004  0.4838
20837SOL     OW67357   5.858   5.076   7.110 -0.1112  0.4264  0.4085
20837SOL    HW167358   5.877   4.982   7.114  1.2368  0.6706  0.2574
20837SOL    HW267359   5.766   5.083   7.135 -0.2002 -0.9244  0.5273
20838SOL     OW67360   3.510   7.883   8.365 -0.4514 -0.9690 -0.6661
20838SOL    HW167361   3.554   7.899   8.448 -0.2388 -1.3886 -0.6958
20838SOL    HW267362   3.452   7.959   8.353 -1.1308 -1.3135  0.2876
20839SOL     OW67363   7.938   4.200   7.329  0.3196 -0.4193 -0.0792
20839SOL    HW167364   8.030   4.175   7.318  0.4235  0.1696 -0.6271
20839SOL    HW267365   7.897   4.125   7.371  1.0329 -0.7284  0.0800
20840SOL     OW67366   6.546   7.354   9.282 -0.6023 -0.5264  0.6089
20840SOL    HW167367   6.545   7.441   9.320  2.6713 -1.1795  2.5541
20840SOL    HW267368   6.507   7.298   9.349  0.4787 -0.9884  0.8750
20841SOL     OW67369   5.484   7.794   8.688 -0.2959  0.4892 -0.3542
20841SOL    HW167370   5.425   7.868   8.705 -1.6981 -0.3677 -1.2577
20841SOL    HW267371   5.451   7.724   8.744  0.9730  0.4845  0.4307
20842SOL     OW67372   6.364   7.494   0.180 -0.5295  0.2626  0.5418
20842SOL    HW167373   6.365   7.538   0.265  1.0068  0.2805  0.5289
20842SOL    HW267374   6.345   7.402   0.201 -0.0874  0.2520  0.9130
20843SOL     OW67375   4.581   7.604   4.294  0.0946  0.2507 -0.0468
20843SOL    HW167376   4.620   7.687   4.320  0.0379  0.4618 -0.6090
20843SOL    HW267377   4.495   7.629   4.259  0.3219  0.0308 -0.7843
20844SOL     OW67378   5.658   3.611   6.685 -0.1491  0.1624  0.0956
20844SOL    HW167379   5.650   3.586   6.777 -1.8986  0.4433  0.0533
20844SOL    HW267380   5.635   3.531   6.637  2.7465 -0.6329 -0.2103
20845SOL     OW67381   7.385   6.459   4.365 -0.3625 -0.0615 -0.1221
20845SOL    HW167382   7.455   6.430   4.306 -1.3932 -2.5501 -0.2046
20845SOL    HW267383   7.432   6.497   4.440  1.0358 -0.2430 -0.8702
20846SOL     OW67384   8.101   5.461   8.211  0.0277  0.2927 -0.2013
20846SOL    HW167385   8.132   5.551   8.201  2.0099 -0.4659 -1.4501
20846SOL    HW267386   8.008   5.466   8.192  0.2909  1.9187 -1.3587
20847SOL     OW67387   0.163   6.926   5.150  0.2402 -0.4644  0.0678
20847SOL    HW167388   0.179   6.933   5.056 -0.4149  2.0697  0.0626
20847SOL    HW267389   0.098   6.857   5.158  0.1674 -0.5997 -1.3553
20848SOL     OW67390   7.251   2.369   7.072  0.2252  0.1575 -0.1676
20848SOL    HW167391   7.331   2.323   7.098 -0.0245  1.1462  2.7643
20848SOL    HW267392   7.283   2.444   7.021  1.0538 -0.2572 -0.2827
20849SOL     OW67393   6.237   7.880   8.224  0.0098 -0.4975  0.1659
20849SOL    HW167394   6.201   7.914   8.143 -0.4476 -1.1057  0.1107
20849SOL    HW267395   6.332   7.889   8.214 -0.1084  1.9151  0.6629
20850SOL     OW67396   6.868   5.981   8.187  0.0147 -0.0262 -0.2034
20850SOL    HW167397   6.956   6.015   8.199  1.1692 -3.3741  2.4830
20850SOL    HW267398   6.879   5.904   8.131 -1.2438 -0.3009 -0.1012
20851SOL     OW67399   8.234   5.516   5.878  0.0845  0.1796 -0.0477
20851SOL    HW167400   8.329   5.502   5.880  0.2519  1.3012  1.0418
20851SOL    HW267401   8.218   5.558   5.793  0.5172 -0.2792 -0.3616
20852SOL     OW67402   8.307   5.509   6.252  0.0366  0.3692  0.1856
20852SOL    HW167403   8.264   5.425   6.266  1.2533 -0.2710  0.2530
20852SOL    HW267404   8.241   5.564   6.210 -0.8751 -0.5185  0.4346
20853SOL     OW67405   8.374   9.063   6.501 -0.7938 -0.1587  0.3565
20853SOL    HW167406   8.288   9.031   6.476 -0.8661  0.4610 -0.2349
20853SOL    HW267407   8.379   9.049   6.595 -1.9903  0.8140  0.5957
20854SOL     OW67408   7.911   3.821   7.131  0.2415  0.1698  0.2253
20854SOL    HW167409   7.892   3.851   7.042 -2.1464 -2.7959 -0.4557
20854SOL    HW267410   7.861   3.880   7.188 -1.2776 -0.1520 -0.7293
20855SOL     OW67411   5.587   8.187   4.847 -0.2146 -0.2116  0.3374
20855SOL    HW167412   5.508   8.162   4.799 -0.0260 -0.7649  0.3034
20855SOL    HW267413   5.600   8.279   4.827 -0.8626 -0.1152  0.3537
20856SOL     OW67414   6.565   5.123   4.530  0.3904 -0.0074 -0.2648
20856SOL    HW167415   6.548   5.212   4.500  0.4402  0.4543  0.9995
20856SOL    HW267416   6.500   5.069   4.485  0.1969  0.7015 -0.8483
20857SOL     OW67417   6.292   6.721   7.111  0.5261 -0.4086 -0.0936
20857SOL    HW167418   6.254   6.713   7.199  2.3519  0.4725  0.8208
20857SOL    HW267419   6.255   6.648   7.063 -0.2643 -1.1218  1.5111
20858SOL     OW67420   5.852   5.308   6.851  0.2018  0.1528  0.7811
20858SOL    HW167421   5.780   5.293   6.912  0.6734 -0.1375  1.2704
20858SOL    HW267422   5.907   5.230   6.859  0.7202  0.4963  0.6127
20859SOL     OW67423   6.648   7.531   8.327  0.3210 -0.2226 -0.1320
20859SOL    HW167424   6.613   7.580   8.252  0.6856 -0.4437 -0.4470
20859SOL    HW267425   6.610   7.574   8.403 -2.2984 -1.6705 -0.4926
20860SOL     OW67426   6.204   6.193   1.374 -0.7534 -0.0197 -0.0428
20860SOL    HW167427   6.145   6.216   1.446  0.4936  1.5616  0.5383
20860SOL    HW267428   6.278   6.151   1.418 -0.1970  0.5235 -0.4619
20861SOL     OW67429   6.866   6.862   7.151  0.4160  0.3027 -0.4897
20861SOL    HW167430   6.939   6.911   7.113 -0.3010  1.8257  0.0036
20861SOL    HW267431   6.806   6.929   7.184 -1.9933 -0.8402 -2.2355
20862SOL     OW67432   4.479   7.214   8.937  0.4201  0.4596 -0.3293
20862SOL    HW167433   4.477   7.160   9.016  2.2986  1.5716  0.5573
20862SOL    HW267434   4.490   7.303   8.970  2.8355  0.8107 -1.7919
20863SOL     OW67435   5.479   9.461   5.801 -0.0699 -0.2543 -0.4356
20863SOL    HW167436   5.504   9.380   5.755  1.2192 -0.8083  1.1410
20863SOL    HW267437   5.563   9.499   5.828 -0.5653  2.2238 -2.0568
20864SOL     OW67438   6.439   8.192   6.406 -0.4923  0.7649 -0.1121
20864SOL    HW167439   6.484   8.252   6.346  0.8383  1.2855  1.3321
20864SOL    HW267440   6.421   8.245   6.483 -0.9977 -0.2207  0.4627
20865SOL     OW67441   5.340   6.569   7.402 -0.0042  0.0393 -0.5934
20865SOL    HW167442   5.254   6.611   7.398 -0.7399 -1.3479 -0.1156
20865SOL    HW267443   5.322   6.476   7.387  0.9112 -0.8392  2.7993
20866SOL     OW67444   6.722   5.094   8.752 -0.8673 -0.5555 -0.2255
20866SOL    HW167445   6.816   5.094   8.770 -0.8597  0.0669 -0.2483
20866SOL    HW267446   6.698   5.001   8.751 -0.1820 -0.7401 -0.5929
20867SOL     OW67447   6.898   5.655   8.375  0.1866 -0.5663  0.4356
20867SOL    HW167448   6.961   5.726   8.388 -2.2385  1.4685  2.1152
20867SOL    HW267449   6.869   5.631   8.464 -1.5646 -1.2262 -0.2479
20868SOL     OW67450   7.552   9.748   3.881 -0.0470 -0.1488  0.0247
20868SOL    HW167451   7.552   9.783   3.970  1.1331 -0.5283  0.2031
20868SOL    HW267452   7.465   9.768   3.847 -0.6252 -0.2516  1.3598
20869SOL     OW67453   8.001   9.012   7.381 -0.1615  0.1480 -0.0798
20869SOL    HW167454   7.913   9.047   7.372  0.0803  0.5734 -1.0101
20869SOL    HW267455   8.041   9.062   7.452 -0.5649  0.1633  0.1351
20870SOL     OW67456   6.446   3.906   8.864 -0.3469 -0.2976  0.1046
20870SOL    HW167457   6.533   3.915   8.827  0.4381 -1.6145  1.5197
20870SOL    HW267458   6.451   3.953   8.948 -0.5186 -1.6137  0.8789
20871SOL     OW67459   6.292   4.806   6.786  0.3519  0.2958 -0.1486
20871SOL    HW167460   6.332   4.719   6.789  0.6351  0.3793  3.1978
20871SOL    HW267461   6.311   4.844   6.872  0.3296  3.7593 -1.5012
20872SOL     OW67462   6.735   8.364   3.516 -0.2293  0.2993 -0.0199
20872SOL    HW167463   6.722   8.291   3.576  0.0597 -0.9688 -1.4208
20872SOL    HW267464   6.667   8.427   3.539 -0.1190 -0.1391  1.6053
20873SOL     OW67465   6.767   9.730   3.624 -0.1453  0.1588 -0.0719
20873SOL    HW167466   6.754   9.699   3.713 -2.6943 -2.1953 -1.1229
20873SOL    HW267467   6.750   9.824   3.628 -1.8337 -0.1774  1.6578
20874SOL     OW67468   6.568   4.913   6.674 -0.1902  0.1616  0.1184
20874SOL    HW167469   6.485   4.891   6.715 -1.8970 -0.0461 -3.1150
20874SOL    HW267470   6.621   4.834   6.682 -0.0005  0.4523  2.6257
20875SOL     OW67471   7.198   6.279   5.652 -0.2783 -0.3435 -0.3908
20875SOL    HW167472   7.160   6.199   5.689 -1.0423 -0.6742 -1.8158
20875SOL    HW267473   7.138   6.348   5.680 -0.2763 -0.4323 -0.1566
20876SOL     OW67474   4.319   7.369   9.577 -0.2484  0.0070  0.3132
20876SOL    HW167475   4.317   7.457   9.615 -1.0942  0.6660 -1.1871
20876SOL    HW267476   4.334   7.384   9.483  1.1670 -1.5400  0.2500
20877SOL     OW67477   7.214   5.104   6.728  0.5552 -0.4135  0.0831
20877SOL    HW167478   7.175   5.020   6.750 -1.0013  0.0540 -0.7162
20877SOL    HW267479   7.257   5.133   6.808  0.0778 -1.4131  0.7122
20878SOL     OW67480   5.223   2.150   6.060 -0.0562  0.0271  0.5686
20878SOL    HW167481   5.175   2.072   6.085  1.5512 -0.0552  3.9818
20878SOL    HW267482   5.298   2.117   6.009 -0.4662 -0.4076  0.2374
20879SOL     OW67483   7.661   7.726   6.456  0.0145  0.1331 -0.1143
20879SOL    HW167484   7.594   7.668   6.420  0.5208 -0.7252  0.2780
20879SOL    HW267485   7.646   7.722   6.551  0.6896 -0.1697 -0.0162
20880SOL     OW67486   8.652   9.076   5.562 -0.5242 -0.0490 -0.0513
20880SOL    HW167487   8.559   9.095   5.560 -0.1276  2.3610  0.9400
20880SOL    HW267488   8.677   9.068   5.469 -1.9537 -2.5080 -0.2981
20881SOL     OW67489   5.833   5.954   7.784 -0.2924 -0.3251 -0.5985
20881SOL    HW167490   5.796   5.973   7.698  3.3683 -2.0221 -2.8174
20881SOL    HW267491   5.894   6.026   7.800 -1.0236  0.0411  0.6985
20882SOL     OW67492   6.033   8.166   7.403  1.1011 -0.0415  0.2877
20882SOL    HW167493   5.940   8.167   7.381  1.3992 -1.5877 -1.2715
20882SOL    HW267494   6.041   8.227   7.476 -0.9813  0.7950 -0.1125
20883SOL     OW67495   8.415   4.832   5.871  0.3048 -0.5304 -0.0582
20883SOL    HW167496   8.342   4.893   5.877  0.5118 -0.2118 -0.7547
20883SOL    HW267497   8.429   4.804   5.962 -0.8393 -0.8010  0.0517
20884SOL     OW67498   7.540   6.482   7.424 -0.3500  0.0538  0.3999
20884SOL    HW167499   7.504   6.515   7.342 -0.5564 -0.5302  0.2491
20884SOL    HW267500   7.522   6.388   7.422 -0.0967 -0.0126  0.9813
20885SOL     OW67501   5.036   7.576   9.390 -0.1539  0.3962  0.6878
20885SOL    HW167502   4.952   7.622   9.392 -0.3780 -0.0010  0.6481
20885SOL    HW267503   5.100   7.644   9.370 -0.5853  0.5358 -0.3204
20886SOL     OW67504   7.314   6.985   5.297  0.4608 -0.4951  0.1226
20886SOL    HW167505   7.226   7.019   5.279  0.7978 -0.0773 -0.7856
20886SOL    HW267506   7.308   6.892   5.278  0.5328 -0.2466 -1.1723
20887SOL     OW67507   7.532   7.765   5.783 -0.3191 -0.5954  1.1068
20887SOL    HW167508   7.562   7.722   5.863 -1.9849 -0.0794  2.0541
20887SOL    HW267509   7.580   7.848   5.781  0.3010 -0.9435  1.1381
20888SOL     OW67510   9.306   8.233   6.635 -0.3367  0.2157 -0.1959
20888SOL    HW167511   9.388   8.282   6.628 -0.6335  0.7925  0.2663
20888SOL    HW267512   9.239   8.301   6.640 -0.8409 -0.2570 -0.5878
20889SOL     OW67513   8.587   6.539   8.149  0.0207  0.7606  0.1272
20889SOL    HW167514   8.650   6.540   8.078 -0.5822  0.3383 -0.4300
20889SOL    HW267515   8.603   6.456   8.194  1.8193  1.9253  1.8352
20890SOL     OW67516   4.831   7.407   4.343  0.7193 -0.4374 -0.1292
20890SOL    HW167517   4.829   7.461   4.263 -0.3513 -1.2695 -0.7017
20890SOL    HW267518   4.738   7.391   4.362  0.9889 -0.8808  0.8566
20891SOL     OW67519   5.410   8.235   5.039  0.0503  0.5531 -0.0665
20891SOL    HW167520   5.334   8.192   4.999 -0.2135  0.9079  0.0431
20891SOL    HW267521   5.482   8.219   4.977 -0.2809  0.8353 -0.5344
20892SOL     OW67522   7.852   5.465   8.089 -0.2026  0.2096  0.4100
20892SOL    HW167523   7.920   5.447   8.023  0.8376  0.8177  1.2861
20892SOL    HW267524   7.779   5.499   8.038 -1.1381 -3.4276 -0.9514
20893SOL     OW67525   7.974   5.456   5.987  0.5211  0.0153 -0.0555
20893SOL    HW167526   8.066   5.474   5.970  0.5530 -0.0796  0.0122
20893SOL    HW267527   7.974   5.368   6.025  0.5524  0.6177  1.3922
20894SOL     OW67528   7.700   7.410   8.082 -0.1822 -0.0111 -0.1610
20894SOL    HW167529   7.658   7.484   8.040  0.3957  0.7264  0.5285
20894SOL    HW267530   7.790   7.439   8.099 -0.7357  0.2520  2.7892
20895SOL     OW67531   5.246   6.552   0.976  0.2161 -0.1668  0.0923
20895SOL    HW167532   5.204   6.605   1.043 -1.4821 -0.6573 -0.5263
20895SOL    HW267533   5.174   6.511   0.929  1.1943  1.4377 -3.1149
20896SOL     OW67534   5.060   7.326   6.944  0.5158 -0.6476  0.5758
20896SOL    HW167535   5.077   7.401   6.886  2.0112 -1.3228  0.0867
20896SOL    HW267536   4.966   7.330   6.961  0.3938  0.7573 -0.2459
20897SOL     OW67537   6.420   7.832   5.585 -0.0307 -0.0379 -0.4752
20897SOL    HW167538   6.483   7.890   5.626 -0.0857 -0.2396 -0.0990
20897SOL    HW267539   6.462   7.804   5.504  0.3671 -0.1787 -0.2250
20898SOL     OW67540   3.744   9.503   5.808 -0.1761  0.5416 -0.7927
20898SOL    HW167541   3.679   9.449   5.762  0.1326 -1.8036  1.3013
20898SOL    HW267542   3.824   9.492   5.757 -0.2275 -0.7055 -0.6393
20899SOL     OW67543   5.927   7.944   8.057 -0.0150  0.0768 -0.2957
20899SOL    HW167544   5.903   7.889   8.132  1.4108 -0.0838  0.0614
20899SOL    HW267545   5.906   7.890   7.981 -3.8456  1.1487 -0.2170
20900SOL     OW67546   6.537   6.050   1.477 -0.3893 -0.4829  0.4670
20900SOL    HW167547   6.613   5.993   1.489  1.1830  1.1566 -1.0495
20900SOL    HW267548   6.506   6.030   1.388 -0.7812 -0.0736  0.5094
20901SOL     OW67549   6.048   8.046   7.018  0.3429 -0.2587  0.4041
20901SOL    HW167550   6.075   8.113   6.955 -0.7816  0.9577  1.1585
20901SOL    HW267551   6.119   7.983   7.018  0.0974 -0.6617 -2.5540
20902SOL     OW67552   8.886   6.756   6.362  0.2888  0.3220  0.0574
20902SOL    HW167553   8.925   6.669   6.373 -1.0265 -0.4544 -1.0638
20902SOL    HW267554   8.819   6.761   6.430  0.8224  0.7500  0.5596
20903SOL     OW67555   4.042   6.005   8.130 -0.5854 -0.0545 -0.4217
20903SOL    HW167556   4.034   6.001   8.035  1.2145  1.3719 -0.6897
20903SOL    HW267557   4.086   5.924   8.154  1.9963  0.9778 -1.2765
20904SOL     OW67558   5.513   7.083   8.725  0.1580 -0.3674  0.3394
20904SOL    HW167559   5.583   7.137   8.688  0.0411 -0.5066 -0.0823
20904SOL    HW267560   5.455   7.065   8.651  0.3920 -1.3929  0.3996
20905SOL     OW67561   8.395   7.574   9.216  0.6229 -0.6828 -0.1223
20905SOL    HW167562   8.434   7.556   9.130  2.0122  2.4188 -0.2641
20905SOL    HW267563   8.463   7.622   9.263 -1.0755  0.0154  1.7352
20906SOL     OW67564   4.675   7.582   2.347 -0.3758 -0.3312 -0.0570
20906SOL    HW167565   4.631   7.667   2.358  1.1157  0.4571  0.0728
20906SOL    HW267566   4.705   7.583   2.256 -2.3354 -1.7543 -0.8022
20907SOL     OW67567   6.418   8.167   8.555 -0.5004 -0.2049  0.4346
20907SOL    HW167568   6.330   8.198   8.576 -0.1683  0.2528  1.1872
20907SOL    HW267569   6.467   8.175   8.637 -0.0809 -1.6356  0.3541
20908SOL     OW67570   6.045   9.065   9.029 -0.1719  0.1696  0.2462
20908SOL    HW167571   6.110   9.100   8.968 -0.7220 -0.0694 -0.4871
20908SOL    HW267572   6.090   8.993   9.073  0.0865  0.0666 -0.1864
20909SOL     OW67573   4.563   5.156   6.933 -0.3976  0.0239  0.4244
20909SOL    HW167574   4.530   5.114   7.013 -1.4192  2.1735  1.2176
20909SOL    HW267575   4.654   5.175   6.952 -1.1532  2.4865  2.0674
20910SOL     OW67576   6.342   7.281   7.076 -0.1944  0.5311  0.0476
20910SOL    HW167577   6.400   7.278   7.000 -1.2661  1.3776 -0.8193
20910SOL    HW267578   6.393   7.327   7.143  0.9147 -0.5938  0.0088
20911SOL     OW67579   4.115   6.641   8.043 -0.3778  0.7041 -0.4206
20911SOL    HW167580   4.186   6.692   8.081  0.8146 -1.3582  0.3106
20911SOL    HW267581   4.060   6.618   8.117  0.0110 -0.3995 -0.4562
20912SOL     OW67582   5.095   7.865   7.518 -0.4851 -0.0863 -0.3770
20912SOL    HW167583   5.140   7.830   7.441 -3.1183 -0.4912 -1.8789
20912SOL    HW267584   5.078   7.957   7.497 -1.9466 -0.4002 -0.7364
20913SOL     OW67585   6.320   6.556   5.599  0.3864  0.2203 -0.8467
20913SOL    HW167586   6.415   6.548   5.598  0.4614  1.0431 -2.0697
20913SOL    HW267587   6.288   6.479   5.552  0.4944  0.4305 -1.2645
20914SOL     OW67588   8.279   6.649   7.244  0.3865 -0.0064  0.2624
20914SOL    HW167589   8.320   6.592   7.179 -0.1594  0.0281 -0.1133
20914SOL    HW267590   8.202   6.685   7.201  1.1404  1.6627  0.2015
20915SOL     OW67591   7.144   5.402   8.445  0.6781 -0.3986 -0.2469
20915SOL    HW167592   7.061   5.368   8.476 -0.3200  1.9001 -0.1667
20915SOL    HW267593   7.183   5.443   8.522  0.6922  0.7018 -0.8198
20916SOL     OW67594   7.773   4.449   5.909  0.1767 -0.0321  0.0406
20916SOL    HW167595   7.801   4.432   5.819 -1.0922  1.1784 -0.6289
20916SOL    HW267596   7.833   4.398   5.963  2.7613  1.3602 -1.3411
20917SOL     OW67597   5.572   9.087   8.616  1.0406  0.7271  0.2059
20917SOL    HW167598   5.576   9.137   8.698  0.7441 -0.2066  0.8084
20917SOL    HW267599   5.479   9.081   8.595  0.9254 -0.9543  1.0413
20918SOL     OW67600   5.063   7.003   9.061  0.2324 -0.8981  0.1043
20918SOL    HW167601   5.130   6.952   9.107  0.2470  0.6391  1.8802
20918SOL    HW267602   4.980   6.967   9.093  0.2427 -0.3218  0.8059
20919SOL     OW67603   8.737   6.660   6.950  0.1678  0.0968  0.4098
20919SOL    HW167604   8.781   6.575   6.940  0.7059  0.0063  2.8970
20919SOL    HW267605   8.656   6.639   6.997 -0.9379  0.6901 -1.1668
20920SOL     OW67606   6.407   7.903   8.510 -0.4028 -0.2416  0.3709
20920SOL    HW167607   6.416   7.997   8.520  0.0675  0.3081 -3.5372
20920SOL    HW267608   6.335   7.892   8.448  0.5820 -2.3254 -0.5028
20921SOL     OW67609   6.118   6.661   6.303 -0.0786  0.8442  0.6286
20921SOL    HW167610   6.070   6.701   6.375  0.0927 -0.1500  1.3198
20921SOL    HW267611   6.161   6.585   6.342  0.9617  0.9382 -0.2669
20922SOL     OW67612   8.002   7.629   4.989  0.5674  0.1570  0.0881
20922SOL    HW167613   7.941   7.578   5.042 -0.1623  2.0022  1.1086
20922SOL    HW267614   8.070   7.656   5.049  1.6636 -0.6770 -0.7404
20923SOL     OW67615   8.089   8.419   6.987 -0.4163  0.3692 -0.6308
20923SOL    HW167616   8.100   8.506   6.949  1.3725  0.6019  0.2680
20923SOL    HW267617   8.168   8.371   6.960 -0.4186 -0.3197  0.4991
20924SOL     OW67618   4.101   7.787   5.720  0.0904  0.3110  0.3462
20924SOL    HW167619   4.069   7.873   5.695  1.9772  1.1093  0.4696
20924SOL    HW267620   4.146   7.801   5.803  0.0972 -0.8600  0.5534
20925SOL     OW67621   6.680   5.125   6.860 -0.0289 -0.7206  0.0610
20925SOL    HW167622   6.727   5.168   6.930 -0.6711  1.5634 -0.8216
20925SOL    HW267623   6.587   5.142   6.879 -0.2869 -1.3450 -0.5668
20926SOL     OW67624   6.375   7.152   8.724 -0.4261 -0.5083  0.2248
20926SOL    HW167625   6.424   7.226   8.759 -0.5940  0.5865 -1.7068
20926SOL    HW267626   6.301   7.141   8.784  0.3494 -0.0360  1.3028
20927SOL     OW67627   6.165   3.965   9.059  0.0910  0.0327  0.6202
20927SOL    HW167628   6.237   4.012   9.101  1.1928 -0.3621 -0.7656
20927SOL    HW267629   6.177   3.874   9.085  0.2604 -0.0755  0.1673
20928SOL     OW67630   4.330   9.631   6.579  0.4732 -0.1630  0.0138
20928SOL    HW167631   4.389   9.556   6.579 -0.3014 -0.7775 -0.6632
20928SOL    HW267632   4.373   9.695   6.522  0.6167 -0.5103 -0.2712
20929SOL     OW67633   6.527   8.356   5.981 -0.2555 -1.0637  0.2833
20929SOL    HW167634   6.600   8.408   5.949 -1.1073 -0.1784 -0.2552
20929SOL    HW267635   6.525   8.373   6.075  0.4007 -1.3280  0.3536
20930SOL     OW67636   7.608   7.236   7.292  0.1125 -0.9896 -0.0202
20930SOL    HW167637   7.653   7.306   7.245 -0.7765  2.0444  3.1796
20930SOL    HW267638   7.678   7.185   7.333  0.8251  0.4454  0.6444
20931SOL     OW67639   3.714   7.705   8.577 -0.4726  0.0798  0.2591
20931SOL    HW167640   3.806   7.732   8.587  0.0382 -0.2619 -2.7115
20931SOL    HW267641   3.719   7.613   8.549 -1.6872  0.1867 -0.3668
20932SOL     OW67642   3.941   6.695   7.666 -0.6475  0.3613  0.0907
20932SOL    HW167643   3.949   6.685   7.572 -1.1620  0.9313 -0.0219
20932SOL    HW267644   3.938   6.605   7.700  0.6056  0.1549 -0.3255
20933SOL     OW67645   5.588   5.867   6.812 -0.4937  0.0473  0.0995
20933SOL    HW167646   5.683   5.852   6.806 -0.7470 -1.3750 -0.8753
20933SOL    HW267647   5.555   5.792   6.862 -1.2476 -0.2074 -0.7448
20934SOL     OW67648   8.636   7.947   5.723 -0.0995 -0.4268  0.0679
20934SOL    HW167649   8.692   7.969   5.798 -0.0936 -0.3559  0.0425
20934SOL    HW267650   8.676   7.869   5.686  0.6147  0.2415 -0.6015
20935SOL     OW67651   7.496   3.737   7.087 -0.3522 -0.0759  0.0309
20935SOL    HW167652   7.545   3.661   7.117  0.9912  0.4873 -0.6555
20935SOL    HW267653   7.457   3.710   7.004  1.2969  0.3863 -0.9387
20936SOL     OW67654   6.486   4.353   8.043  0.6977 -0.0692 -0.4803
20936SOL    HW167655   6.415   4.308   8.089  0.7589 -0.0153 -0.3325
20936SOL    HW267656   6.530   4.284   7.995 -0.2074  0.0769 -1.5686
20937SOL     OW67657   5.594   8.082   4.487  0.1725 -1.0055 -0.3318
20937SOL    HW167658   5.509   8.122   4.465  0.7308  1.3002  1.3157
20937SOL    HW267659   5.647   8.095   4.409  0.5900  2.5082  0.3721
20938SOL     OW67660   5.624   6.904   8.504  0.2157  0.8905 -0.3344
20938SOL    HW167661   5.606   6.830   8.445  1.2624  0.7132 -0.4477
20938SOL    HW267662   5.599   6.981   8.454  0.0500  0.6697 -0.5943
20939SOL     OW67663   7.065   6.708   6.539  0.0950 -0.2602  0.1190
20939SOL    HW167664   7.130   6.762   6.493 -0.3383 -1.3838 -1.9057
20939SOL    HW267665   7.091   6.618   6.520 -1.1875 -0.7435  0.5680
20940SOL     OW67666   6.929   5.678   6.000 -0.5018  0.0815 -0.1534
20940SOL    HW167667   6.847   5.705   5.960 -0.6635  1.3486  0.9522
20940SOL    HW267668   6.931   5.724   6.084  1.3956  0.2036 -0.2134
20941SOL     OW67669   4.876   5.857   7.379  0.2230 -0.2777  0.0695
20941SOL    HW167670   4.960   5.849   7.333  1.2609  0.3860  1.7652
20941SOL    HW267671   4.874   5.782   7.438 -0.5193 -0.4449 -0.1620
20942SOL     OW67672   6.099   7.731   7.720 -0.1347  0.3698 -0.3842
20942SOL    HW167673   6.109   7.819   7.683  1.3024  0.3691 -0.0607
20942SOL    HW267674   6.023   7.738   7.778 -0.3836  1.2357 -0.7943
20943SOL     OW67675   7.817   4.718   5.866  0.1153 -0.1540 -0.0196
20943SOL    HW167676   7.744   4.768   5.902  0.5029  0.0463  0.5048
20943SOL    HW267677   7.791   4.627   5.877  0.0796 -0.0871  0.4505
20944SOL     OW67678   5.280   9.360   4.092  0.4409 -0.9163  0.2586
20944SOL    HW167679   5.225   9.321   4.024  1.2230 -0.1369 -0.8782
20944SOL    HW267680   5.220   9.412   4.145 -0.0611 -0.8238 -0.3845
20945SOL     OW67681   9.032   7.231   5.294 -0.2678 -0.1497 -0.1554
20945SOL    HW167682   9.035   7.282   5.214  0.4233  2.7207  1.5522
20945SOL    HW267683   8.942   7.199   5.299 -0.7229  0.8724 -1.3522
20946SOL     OW67684   6.694   7.468   7.829 -0.3012  0.4804 -0.3319
20946SOL    HW167685   6.728   7.389   7.870 -0.6908  0.9981  1.0708
20946SOL    HW267686   6.609   7.481   7.870 -0.5968  1.1834 -1.1378
20947SOL     OW67687   8.752   8.477   7.588  0.3579  0.1317 -0.6892
20947SOL    HW167688   8.833   8.466   7.637 -1.3242 -2.0205  1.9004
20947SOL    HW267689   8.776   8.456   7.497  2.3806 -2.1363  0.2615
20948SOL     OW67690   8.027   4.618   5.583 -0.2764 -0.6093 -0.5851
20948SOL    HW167691   7.996   4.587   5.498 -1.7601 -0.2726 -0.2053
20948SOL    HW267692   8.041   4.538   5.634 -1.1735 -0.7726 -0.5754
20949SOL     OW67693   6.563   8.053   5.684  0.0305 -0.1985 -0.2975
20949SOL    HW167694   6.639   8.111   5.688  0.0184 -0.2186  0.3833
20949SOL    HW267695   6.564   8.007   5.767  1.0879 -2.5513 -1.5382
20950SOL     OW67696   4.214   7.552   6.995 -0.4930  0.3840  0.6304
20950SOL    HW167697   4.142   7.513   7.045 -1.3440 -0.1143 -0.9174
20950SOL    HW267698   4.261   7.606   7.059 -1.7107  0.0250  1.8808
20951SOL     OW67699   7.801   0.147   3.727  0.0805 -0.0723  0.4634
20951SOL    HW167700   7.884   0.156   3.679  0.8208  0.0523  1.7373
20951SOL    HW267701   7.760   0.233   3.718  1.2996  0.7167  1.9756
20952SOL     OW67702   5.815   9.410   8.853 -0.0484  0.5895  0.5405
20952SOL    HW167703   5.795   9.497   8.819 -0.2523  0.6719  0.8708
20952SOL    HW267704   5.904   9.392   8.821  0.4603  1.4064  1.4399
20953SOL     OW67705   6.967   8.049   5.998 -0.6530  0.1966 -0.0228
20953SOL    HW167706   7.005   8.120   6.049 -0.4536 -0.3376  0.5744
20953SOL    HW267707   7.029   7.977   6.006  0.2403  0.5951 -2.3826
20954SOL     OW67708   5.156   9.590   5.310  0.5847 -0.4853 -0.1105
20954SOL    HW167709   5.106   9.564   5.387  1.7213  1.9959  1.6080
20954SOL    HW267710   5.090   9.606   5.243 -0.7097 -0.0519  1.2066
20955SOL     OW67711   7.108   6.412   8.393 -0.0774 -0.2213  0.2675
20955SOL    HW167712   7.111   6.507   8.404 -1.0039 -0.2760  1.1856
20955SOL    HW267713   7.018   6.394   8.365  0.3915 -0.7439 -0.9795
20956SOL     OW67714   8.140   6.570   6.395 -0.3363  0.1934 -0.1222
20956SOL    HW167715   8.111   6.660   6.381 -0.9482 -0.2951 -2.3819
20956SOL    HW267716   8.164   6.538   6.308  0.8296 -1.5341  0.7532
20957SOL     OW67717   7.562   6.772   4.851  0.0664  0.2035  0.1763
20957SOL    HW167718   7.651   6.772   4.817  0.8461  2.1670  1.9537
20957SOL    HW267719   7.570   6.734   4.939 -0.5291  1.7460  0.9387
20958SOL     OW67720   7.390   7.746   7.396 -0.1923 -1.0058  0.0800
20958SOL    HW167721   7.376   7.655   7.369 -1.7999 -0.7742 -0.0053
20958SOL    HW267722   7.302   7.785   7.393  0.6305  0.9049 -1.1556
20959SOL     OW67723   7.200   9.846   4.942  0.1330  0.6624  0.1334
20959SOL    HW167724   7.268   9.806   4.997  0.5317  0.5295 -0.4469
20959SOL    HW267725   7.125   9.857   5.000  0.3393 -0.0517  0.5375
20960SOL     OW67726   6.275   7.494   5.393 -0.4761  0.2193 -0.0531
20960SOL    HW167727   6.262   7.589   5.405 -0.6564  0.1864  0.0162
20960SOL    HW267728   6.192   7.455   5.420  0.0176 -0.0552  1.1327
20961SOL     OW67729   4.519   5.065   7.409 -0.1197  0.9699  0.3376
20961SOL    HW167730   4.478   5.086   7.492  1.3280 -1.0300  1.6633
20961SOL    HW267731   4.546   4.974   7.418 -1.1153  0.2187 -2.8719
20962SOL     OW67732   8.507   9.817   8.321 -0.5064  0.1654  0.3587
20962SOL    HW167733   8.453   9.826   8.400  0.3401  0.6622  0.8937
20962SOL    HW267734   8.451   9.769   8.260 -1.5538  0.6512  0.8991
20963SOL     OW67735   5.633   7.075   7.016  0.1511  0.1283  0.0335
20963SOL    HW167736   5.703   7.024   6.975  1.2656  1.1601  0.5765
20963SOL    HW267737   5.574   7.096   6.944  0.4952 -0.5890 -0.4810
20964SOL     OW67738   6.868   5.900   6.497  0.5202 -0.0420  0.0353
20964SOL    HW167739   6.912   5.980   6.527  0.4136  0.3986 -0.9394
20964SOL    HW267740   6.939   5.838   6.482  0.5425 -0.4707  1.6896
20965SOL     OW67741   6.514   8.409   2.945  0.0413 -0.4892  0.9427
20965SOL    HW167742   6.431   8.432   2.987 -0.6573  0.9033 -1.0509
20965SOL    HW267743   6.533   8.484   2.888  1.2710 -1.9749 -0.6919
20966SOL     OW67744   8.421   8.537   7.201  0.2780  0.2722 -0.0997
20966SOL    HW167745   8.392   8.598   7.133 -0.3702  1.0874  0.8876
20966SOL    HW267746   8.462   8.593   7.267  0.7106 -0.4920  0.2866
20967SOL     OW67747   7.115   5.114   5.971 -0.2578 -0.4439  0.2073
20967SOL    HW167748   7.143   5.205   5.987 -0.0378 -0.0578 -2.0638
20967SOL    HW267749   7.020   5.119   5.966 -0.2552 -0.3730  0.2199
20968SOL     OW67750   6.043   4.027   8.074 -0.1407  0.2334  0.1032
20968SOL    HW167751   5.996   4.057   7.996  0.6542 -1.7730 -1.2398
20968SOL    HW267752   6.078   4.107   8.113  0.0831  1.2656 -2.0481
20969SOL     OW67753   5.343   7.957   8.257 -0.4084 -0.2327  0.0598
20969SOL    HW167754   5.348   8.016   8.333 -1.5010  0.4957 -0.4096
20969SOL    HW267755   5.276   7.996   8.201  1.3268  0.0524 -1.9659
20970SOL     OW67756   7.029   7.513   6.281 -0.2653  0.4300 -0.0565
20970SOL    HW167757   7.036   7.558   6.196 -1.1624  1.3241  0.3219
20970SOL    HW267758   7.009   7.583   6.343 -1.4618 -0.4643  0.5936
20971SOL     OW67759   6.857   6.069   9.840  0.1481  0.2253 -0.6782
20971SOL    HW167760   6.946   6.040   9.861  0.4587  1.5654 -0.0288
20971SOL    HW267761   6.806   5.988   9.834  1.0378 -0.4834  0.7494
20972SOL     OW67762   6.639   6.808   9.730  0.7393 -0.3758 -0.2338
20972SOL    HW167763   6.610   6.726   9.770  1.8561 -0.3983  0.5576
20972SOL    HW267764   6.620   6.796   9.637 -4.2491  0.6228  0.3388
20973SOL     OW67765   5.011   8.132   8.417 -0.1881 -0.5646  0.2642
20973SOL    HW167766   4.922   8.158   8.393 -0.5126 -1.3163  0.6362
20973SOL    HW267767   5.067   8.179   8.355 -0.7940  0.4889  0.4934
20974SOL     OW67768   6.448   0.601   6.679 -0.1524  0.5570 -0.1493
20974SOL    HW167769   6.410   0.594   6.591 -0.6075 -1.9051  0.1660
20974SOL    HW267770   6.372   0.606   6.737  0.0918  0.0820  0.2171
20975SOL     OW67771   5.932   8.403   6.317 -0.1060 -0.4952  0.3656
20975SOL    HW167772   5.875   8.434   6.246 -1.3997 -2.5931  0.3891
20975SOL    HW267773   5.944   8.310   6.298  1.1167 -0.6778  1.8741
20976SOL     OW67774   6.906   9.858   6.493  0.3007 -0.3527  0.0974
20976SOL    HW167775   6.860   9.913   6.556 -1.5393 -0.4775 -1.0626
20976SOL    HW267776   6.853   9.862   6.414  1.4582 -1.8133 -0.8224
20977SOL     OW67777   7.214   7.260   8.971  0.1745  0.2095  0.0679
20977SOL    HW167778   7.249   7.193   8.913 -0.4117 -1.3457  1.4280
20977SOL    HW267779   7.259   7.245   9.055 -3.1021 -1.4765  1.7159
20978SOL     OW67780   4.731   7.695   6.368  0.4535 -0.6321  0.3313
20978SOL    HW167781   4.638   7.703   6.347  0.9769  0.6462 -1.8160
20978SOL    HW267782   4.756   7.781   6.402  1.0585 -0.6622 -0.0174
20979SOL     OW67783   6.763   7.199   5.838  0.5339  0.2445  0.0471
20979SOL    HW167784   6.697   7.178   5.772  0.2299  1.2119  0.0299
20979SOL    HW267785   6.788   7.114   5.874 -1.1050 -0.1332  0.4167
20980SOL     OW67786   8.494   3.239   9.029  0.4514  0.4025  0.6726
20980SOL    HW167787   8.575   3.214   8.985  0.3744 -0.5153  1.0289
20980SOL    HW267788   8.512   3.227   9.122 -0.6884 -1.8303  0.6942
20981SOL     OW67789   8.738   5.744   8.587 -0.8772  0.8619 -0.4432
20981SOL    HW167790   8.816   5.739   8.532 -1.1731  0.2436 -0.8168
20981SOL    HW267791   8.750   5.824   8.638  1.0475 -0.3075  1.1003
20982SOL     OW67792   7.030   5.745   5.741  0.6268  0.3721 -0.4126
20982SOL    HW167793   7.006   5.744   5.834  1.5968 -0.7852 -0.1498
20982SOL    HW267794   6.949   5.770   5.696  0.7309  3.5168  0.8622
20983SOL     OW67795   4.965   7.862   8.172 -0.4586  0.4250  0.0898
20983SOL    HW167796   4.964   7.789   8.110  1.2306  0.6293 -0.2365
20983SOL    HW267797   4.915   7.931   8.127  1.6630  0.9562 -1.6280
20984SOL     OW67798   8.801   8.825   5.433 -0.1539  0.3392  0.7816
20984SOL    HW167799   8.864   8.804   5.364 -0.2403 -2.2196  1.3971
20984SOL    HW267800   8.760   8.907   5.403  2.4658  1.3821 -0.2724
20985SOL     OW67801   6.385   5.641   6.624 -0.4346  0.2270 -0.1794
20985SOL    HW167802   6.401   5.680   6.538 -3.5862  0.6938 -0.6755
20985SOL    HW267803   6.454   5.678   6.680  1.5322  0.1345 -2.3684
20986SOL     OW67804   4.937   5.694   8.861 -0.6994  0.2671  0.5325
20986SOL    HW167805   4.905   5.651   8.940 -1.1341 -3.8208 -1.5943
20986SOL    HW267806   4.858   5.719   8.814 -0.5203 -0.1702 -0.0050
20987SOL     OW67807   7.873   6.222   6.783  0.0768  0.0184 -0.8382
20987SOL    HW167808   7.905   6.311   6.776 -0.2704  0.0239 -3.1625
20987SOL    HW267809   7.949   6.167   6.763  0.9873 -0.4434  3.0239
20988SOL     OW67810   8.521   8.030   5.183 -0.0898 -0.1194  0.4095
20988SOL    HW167811   8.538   8.057   5.273  0.0114  0.5953  0.1828
20988SOL    HW267812   8.607   8.014   5.145 -0.0375  1.0025  0.0189
20989SOL     OW67813   6.653   7.984   7.122 -0.6431  0.2200 -0.1586
20989SOL    HW167814   6.614   8.069   7.101 -1.2753 -0.3810 -1.5387
20989SOL    HW267815   6.585   7.938   7.170  0.3664  1.1362  2.3076
20990SOL     OW67816   0.348   6.263   7.474 -0.2934 -0.8866  0.0054
20990SOL    HW167817   0.343   6.180   7.426 -0.6558 -0.1400 -1.3033
20990SOL    HW267818   0.258   6.285   7.494 -0.1206 -1.4102  1.4838
20991SOL     OW67819   5.563   0.219   7.772  0.2669  0.5711 -0.7145
20991SOL    HW167820   5.488   0.279   7.770  0.6487  1.0471 -1.3835
20991SOL    HW267821   5.573   0.191   7.681  0.4715 -0.0317 -0.5069
20992SOL     OW67822   5.880   5.365   7.341  0.3840  0.1668 -0.0362
20992SOL    HW167823   5.962   5.411   7.362  0.7520  0.2317 -1.5389
20992SOL    HW267824   5.889   5.281   7.385  1.5242 -0.0507 -0.6425
20993SOL     OW67825   8.085   7.881   7.249 -0.6282 -0.3060  0.1269
20993SOL    HW167826   8.090   7.974   7.272 -0.5349 -0.5334  1.0808
20993SOL    HW267827   8.171   7.847   7.274 -0.8780 -0.7687  0.3628
20994SOL     OW67828   6.277   7.904   7.021  0.0504  0.2893 -0.1479
20994SOL    HW167829   6.318   7.935   7.101 -1.1693  1.0588  0.2103
20994SOL    HW267830   6.346   7.907   6.955  0.7062  0.9726  0.5564
20995SOL     OW67831   6.785   6.627   5.484 -0.1572  0.8747  0.4309
20995SOL    HW167832   6.778   6.618   5.389 -1.2294  0.0122  0.5687
20995SOL    HW267833   6.835   6.549   5.512 -2.4137 -0.5270  0.8291
20996SOL     OW67834   5.221   6.970   5.615  0.1973 -0.4576  0.0941
20996SOL    HW167835   5.277   7.003   5.686  1.1185 -0.2041 -0.7219
20996SOL    HW267836   5.142   7.025   5.620  0.4154 -0.1820  0.6746
20997SOL     OW67837   4.648   3.677   7.191  0.5862 -0.3356  0.3728
20997SOL    HW167838   4.673   3.764   7.222  2.9105 -0.6529 -0.4094
20997SOL    HW267839   4.673   3.618   7.262 -0.4031 -0.4482  0.6434
20998SOL     OW67840   6.775   7.712   7.692 -0.5986 -0.3668  0.5282
20998SOL    HW167841   6.812   7.641   7.744  0.4989 -0.9018 -0.8958
20998SOL    HW267842   6.794   7.791   7.742  2.3591 -0.6368  0.0361
20999SOL     OW67843   5.604   7.007   7.662  0.3296 -0.3189  0.4998
20999SOL    HW167844   5.521   7.013   7.709 -0.1783 -0.8794 -0.2909
20999SOL    HW267845   5.580   6.971   7.577  1.0507  1.8429 -0.6870
21000SOL     OW67846   4.906   6.922   2.765 -0.1320  0.3930  0.4181
21000SOL    HW167847   4.851   6.855   2.726  0.3169 -0.3070  0.9701
21000SOL    HW267848   4.994   6.883   2.768  0.0146  0.7682  1.2866
21001SOL     OW67849   5.868   7.164   3.857 -0.2356 -0.3051 -0.3067
21001SOL    HW167850   5.851   7.247   3.814  1.0542  0.4246  0.5313
21001SOL    HW267851   5.863   7.183   3.951  1.3624 -0.8560 -0.0813
21002SOL     OW67852   6.410   7.224   5.803 -0.0751  0.2537  0.1917
21002SOL    HW167853   6.432   7.152   5.863  2.8848  0.1143 -0.9125
21002SOL    HW267854   6.373   7.291   5.861 -0.4274 -1.1053  1.6434
21003SOL     OW67855   8.061   8.379   7.544  0.0531 -0.1460 -0.2520
21003SOL    HW167856   8.072   8.297   7.495  0.4052 -0.1814 -0.1164
21003SOL    HW267857   8.073   8.448   7.479  1.2287 -0.1787 -0.0958
21004SOL     OW67858   6.388   8.071   5.985  0.1848 -0.0400  0.2698
21004SOL    HW167859   6.448   8.144   5.971 -0.1199  0.0799 -0.4358
21004SOL    HW267860   6.424   8.025   6.061  0.7087  0.5001  0.3580
21005SOL     OW67861   6.971   6.337   9.733 -0.0328 -0.5015 -0.2438
21005SOL    HW167862   6.975   6.253   9.779  1.2616  0.2492  1.1332
21005SOL    HW267863   6.917   6.392   9.790 -0.5356 -0.2910 -0.9259
21006SOL     OW67864   6.068   6.061   0.691  0.6953 -0.4579  0.6418
21006SOL    HW167865   6.063   6.156   0.697  0.5027 -0.3142 -1.1146
21006SOL    HW267866   6.084   6.044   0.598 -0.2088 -2.1790  0.7626
21007SOL     OW67867   7.462   8.535   8.633  0.1084  0.5385  0.1725
21007SOL    HW167868   7.468   8.492   8.718  2.2887 -0.7106 -0.5368
21007SOL    HW267869   7.378   8.507   8.597  0.1419 -0.7022  1.0010
21008SOL     OW67870   6.131   6.535   8.477 -0.0486 -0.7364  0.4665
21008SOL    HW167871   6.068   6.585   8.426 -0.7051 -2.8798 -0.9607
21008SOL    HW267872   6.201   6.514   8.415  0.4054 -1.2372  1.1362
21009SOL     OW67873   9.291   9.004   0.172  0.2332  0.3629  0.4253
21009SOL    HW167874   9.210   8.985   0.124 -0.6299  0.0271  1.9709
21009SOL    HW267875   9.279   9.094   0.202  1.7164  1.3826 -1.7472
21010SOL     OW67876   3.846   7.653   5.863  0.2671 -0.2667 -0.3468
21010SOL    HW167877   3.926   7.677   5.817  0.7607  1.1088  1.1325
21010SOL    HW267878   3.786   7.726   5.847  0.6060  0.4721  1.4451
21011SOL     OW67879   6.005   6.706   7.003  0.1339  0.0610 -0.0105
21011SOL    HW167880   6.000   6.625   6.952 -2.1064 -0.2361  0.5734
21011SOL    HW267881   5.990   6.679   7.093  0.1006  1.0453  0.2885
21012SOL     OW67882   5.499   7.965   7.650 -0.0413  0.0054  0.0882
21012SOL    HW167883   5.565   8.009   7.595  0.0735  0.5153  0.6277
21012SOL    HW267884   5.430   7.940   7.589  0.3799 -0.0134 -0.3922
21013SOL     OW67885   5.701   8.200   8.815 -0.4926  0.2982 -0.2029
21013SOL    HW167886   5.757   8.265   8.857 -0.8107 -0.0259  0.7535
21013SOL    HW267887   5.761   8.138   8.775 -0.1797  0.4769 -0.0130
21014SOL     OW67888   7.040   8.124   7.476  0.1186 -0.3164  0.0333
21014SOL    HW167889   6.945   8.126   7.476  0.1051 -0.7141 -0.3621
21014SOL    HW267890   7.066   8.180   7.549 -0.3533  1.8173 -1.3625
21015SOL     OW67891   5.319   5.241   8.855  0.1266  0.0207  0.0412
21015SOL    HW167892   5.240   5.278   8.895  0.8827  2.0237 -0.2050
21015SOL    HW267893   5.381   5.314   8.853  1.2277 -0.9020 -1.7853
21016SOL     OW67894   5.935   8.180   8.246 -0.3974 -0.3094 -0.0890
21016SOL    HW167895   5.945   8.096   8.201  1.2776 -0.2415  0.1222
21016SOL    HW267896   5.929   8.156   8.339 -0.1053 -0.2092 -0.0444
21017SOL     OW67897   9.384   0.341   0.014 -0.2836 -0.1216 -0.3177
21017SOL    HW167898   9.354   0.263  -0.033  0.0478  0.2369 -1.1557
21017SOL    HW267899   9.446   0.383  -0.046  0.3148  0.2490  0.5354
21018SOL     OW67900   7.052   9.003   7.560 -0.1631  0.6416 -0.6461
21018SOL    HW167901   6.999   9.080   7.582 -0.1230  0.8843 -1.3943
21018SOL    HW267902   6.995   8.951   7.503 -0.5952 -0.4144  0.6933
21019SOL     OW67903   6.666   4.605   7.816 -0.2039  0.3417  0.1227
21019SOL    HW167904   6.695   4.519   7.845  0.0702  0.6399  0.7559
21019SOL    HW267905   6.598   4.587   7.751  0.2886 -0.3508 -0.2124
21020SOL     OW67906   7.832   9.453   6.969 -0.5495 -0.5468 -0.1414
21020SOL    HW167907   7.790   9.388   7.025  0.9730 -1.8969 -0.4824
21020SOL    HW267908   7.854   9.525   7.029  2.7653 -2.7379  1.6139
21021SOL     OW67909   6.211   7.538   9.256 -0.2874  0.4740 -0.0047
21021SOL    HW167910   6.131   7.575   9.220 -0.6349  1.7714  1.9336
21021SOL    HW267911   6.183   7.491   9.334  0.8180  1.0448  0.7760
21022SOL     OW67912   6.441   7.880   7.256  0.2077 -0.1065 -0.2540
21022SOL    HW167913   6.423   7.957   7.311  0.4845 -0.8924  0.9937
21022SOL    HW267914   6.377   7.815   7.285  0.5004 -0.6157 -0.7253
21023SOL     OW67915   5.670   7.815   7.366 -0.0572  0.2885 -0.4826
21023SOL    HW167916   5.594   7.823   7.309  1.1372 -0.0263 -2.1786
21023SOL    HW267917   5.675   7.899   7.411 -0.4189  0.9331 -1.6192
21024SOL     OW67918   6.273   6.847   9.208  0.3423  0.1849 -0.4828
21024SOL    HW167919   6.297   6.940   9.204  0.1140  0.2742  0.1419
21024SOL    HW267920   6.229   6.837   9.292 -0.9246 -0.1850 -1.1670
21025SOL     OW67921   8.758   8.219   6.961  0.1429 -0.5116 -0.3480
21025SOL    HW167922   8.675   8.181   6.991 -0.7931  0.4699 -1.6016
21025SOL    HW267923   8.734   8.273   6.885  1.7356  0.8146  0.0292
21026SOL     OW67924   6.624   6.521   9.747  0.3491 -0.5732  0.1703
21026SOL    HW167925   6.579   6.439   9.770 -0.3671 -0.4478 -0.7320
21026SOL    HW267926   6.650   6.509   9.656  0.9272 -0.0894  0.2697
21027SOL     OW67927   8.534   7.258   7.900  0.1711 -0.9928  0.1900
21027SOL    HW167928   8.594   7.280   7.972  0.9123  0.3049 -0.7894
21027SOL    HW267929   8.590   7.249   7.824 -0.7728 -0.6888 -0.5606
21028SOL     OW67930   4.095   8.055   6.592  0.0890 -0.4395  0.0868
21028SOL    HW167931   4.185   8.086   6.583  0.6306 -1.3401  1.8993
21028SOL    HW267932   4.049   8.127   6.634  0.4676 -0.6885  0.9611
21029SOL     OW67933   6.576   6.258   7.731 -0.0442  0.5477 -0.0150
21029SOL    HW167934   6.625   6.182   7.699  0.3598 -0.2554  2.2724
21029SOL    HW267935   6.541   6.299   7.653  3.1113  0.3576 -1.7128
21030SOL     OW67936   7.344   5.268   9.573  0.4208 -0.0535 -0.3161
21030SOL    HW167937   7.259   5.225   9.580  0.2195  0.4979  0.8954
21030SOL    HW267938   7.342   5.311   9.488 -0.2207 -0.6539 -0.6179
21031SOL     OW67939   5.647   6.422   1.257 -0.1693 -0.0493  0.1899
21031SOL    HW167940   5.644   6.396   1.165 -0.4197  0.3774  0.0764
21031SOL    HW267941   5.739   6.412   1.282 -0.2776 -1.2031  0.1984
21032SOL     OW67942   5.958   6.986   7.804 -0.3190 -0.2243 -1.2553
21032SOL    HW167943   6.003   7.036   7.736 -1.2807  0.6660 -1.2594
21032SOL    HW267944   5.954   7.045   7.880  1.0424 -1.3243 -0.2821
21033SOL     OW67945   8.522   6.073   8.763  0.1362 -0.0559 -0.1478
21033SOL    HW167946   8.540   6.080   8.669 -0.7721  0.3138 -0.3055
21033SOL    HW267947   8.575   6.142   8.803 -0.2772  0.4749 -0.5095
21034SOL     OW67948   5.204   4.258   8.513 -0.6408  0.5057 -0.3413
21034SOL    HW167949   5.153   4.339   8.509 -2.4307 -0.3664  2.3631
21034SOL    HW267950   5.284   4.282   8.560 -0.8213  0.8545 -0.2079
21035SOL     OW67951   7.567   5.845   9.235  0.1464  0.0277  0.7518
21035SOL    HW167952   7.613   5.925   9.261 -0.2513  0.1643  1.0544
21035SOL    HW267953   7.570   5.789   9.312  0.7046 -0.3828  0.4305
21036SOL     OW67954   5.941   5.350   8.227  0.2842 -0.5637  0.3125
21036SOL    HW167955   5.875   5.317   8.166 -0.4974  2.2177 -0.4750
21036SOL    HW267956   5.895   5.354   8.311 -0.0858 -0.1054  0.0940
21037SOL     OW67957   7.586   9.184   8.492 -0.5240  0.4708  0.5641
21037SOL    HW167958   7.541   9.268   8.484 -2.4927 -0.6341 -0.8958
21037SOL    HW267959   7.521   9.127   8.534  0.5637 -0.4774  0.9938
21038SOL     OW67960   6.531   5.785   0.237  0.3029  0.2472 -0.3908
21038SOL    HW167961   6.609   5.820   0.278  0.1297  0.7111 -0.4555
21038SOL    HW267962   6.500   5.718   0.297 -0.1335  1.1405  0.3940
21039SOL     OW67963   7.379   8.607   8.133 -0.0808 -0.0919 -0.2031
21039SOL    HW167964   7.308   8.631   8.192  0.8811 -0.9544  1.3831
21039SOL    HW267965   7.458   8.643   8.175  0.4461  1.0349 -2.0267
21040SOL     OW67966   9.545   7.909   9.090  0.6137  0.0357 -0.3264
21040SOL    HW167967   9.456   7.941   9.081  0.4322 -0.9749 -2.6077
21040SOL    HW267968   9.551   7.881   9.182 -1.5628 -0.3462 -0.2600
21041SOL     OW67969   6.313   6.426   7.256 -0.4632 -0.2287  0.1393
21041SOL    HW167970   6.335   6.336   7.236 -0.6891 -0.6026  1.4700
21041SOL    HW267971   6.393   6.475   7.239 -0.2539 -0.7209 -0.3115
21042SOL     OW67972   7.114   5.558   0.886 -0.7461  0.2361 -1.2383
21042SOL    HW167973   7.121   5.518   0.972 -0.4878 -0.1969 -1.4564
21042SOL    HW267974   7.202   5.550   0.849 -1.0557 -0.3668 -1.8784
21043SOL     OW67975   6.168   8.254   6.880 -0.7310 -0.1225 -0.0943
21043SOL    HW167976   6.239   8.279   6.938 -0.7854 -0.0067 -0.0779
21043SOL    HW267977   6.195   8.285   6.794 -0.6592 -0.2770 -0.1278
21044SOL     OW67978   8.002   5.800   7.400  0.3405 -0.7488  0.1428
21044SOL    HW167979   8.096   5.798   7.418 -0.0203 -1.2759  2.2123
21044SOL    HW267980   7.984   5.891   7.377  1.1109 -0.3033  1.2472
21045SOL     OW67981   6.360   6.292   9.408  0.4214 -0.2778 -0.4435
21045SOL    HW167982   6.354   6.378   9.366 -0.3640 -0.3093 -0.4222
21045SOL    HW267983   6.439   6.297   9.462 -0.8651  1.3292  1.4496
21046SOL     OW67984   8.232   6.052   6.196  0.1481 -0.5910  0.4470
21046SOL    HW167985   8.223   6.112   6.271  0.1941  0.5291 -0.4077
21046SOL    HW267986   8.275   5.975   6.232  1.5896  0.5449  1.2855
21047SOL     OW67987   7.438   6.853   8.526  0.2314 -0.2133 -0.4838
21047SOL    HW167988   7.513   6.838   8.468 -0.4602 -1.1027 -1.1910
21047SOL    HW267989   7.432   6.773   8.578 -0.1368 -0.0823 -0.3239
21048SOL     OW67990   5.399   4.408   6.614 -0.5508  0.1387 -0.6187
21048SOL    HW167991   5.462   4.414   6.542 -0.6666 -2.8621 -1.1177
21048SOL    HW267992   5.327   4.355   6.579 -0.7690 -1.1639  1.5818
21049SOL     OW67993   6.618   6.395   9.240  0.1346 -0.1518 -0.0890
21049SOL    HW167994   6.697   6.370   9.192  0.9058  3.1854 -0.7836
21049SOL    HW267995   6.551   6.405   9.171 -0.7601 -2.1236  0.4074
21050SOL     OW67996   9.286   8.071   9.059  0.0057  0.0545 -0.0844
21050SOL    HW167997   9.323   8.112   8.981  1.7881  1.3512  1.3437
21050SOL    HW267998   9.254   8.145   9.112  0.4445 -0.6361  1.1754
21051SOL     OW67999   5.933   6.845   6.438  0.0745 -0.0462 -0.0703
21051SOL    HW168000   5.881   6.768   6.463 -1.0265 -0.4618 -3.1499
21051SOL    HW268001   5.888   6.919   6.478  0.3264 -0.8444  1.7667
21052SOL     OW68002   7.157   4.028   8.696 -0.8557 -0.0501  0.3708
21052SOL    HW168003   7.244   4.050   8.661 -0.3392  0.2171  1.7420
21052SOL    HW268004   7.155   3.933   8.697 -0.3268 -0.0617  0.8867
21053SOL     OW68005   7.327   8.860   8.443 -0.1431 -0.6764 -0.9104
21053SOL    HW168006   7.307   8.771   8.470 -0.6641 -0.7911 -1.6428
21053SOL    HW268007   7.248   8.910   8.463 -0.1715 -0.5635 -1.2940
21054SOL     OW68008   8.330   8.307   7.377  0.1054 -0.1967  0.1424
21054SOL    HW168009   8.360   8.359   7.452 -0.5898  0.1234  0.2063
21054SOL    HW268010   8.404   8.307   7.317  0.8480 -0.8473  1.0210
21055SOL     OW68011   8.995   7.246   8.499 -0.0702  0.7344 -0.3504
21055SOL    HW168012   8.977   7.237   8.406  1.1235 -1.6822 -0.4217
21055SOL    HW268013   8.952   7.171   8.539  0.9054  0.7623  0.8116
21056SOL     OW68014   7.459   5.740   8.268 -0.8332  0.1719 -0.6099
21056SOL    HW168015   7.374   5.733   8.226 -1.4779 -0.5581  0.7332
21056SOL    HW268016   7.445   5.801   8.340 -0.6267 -1.0026  0.4755
21057SOL     OW68017   8.240   7.248   8.747 -0.5314 -0.4572  0.0033
21057SOL    HW168018   8.247   7.261   8.842  0.9611 -0.2581 -0.1142
21057SOL    HW268019   8.208   7.331   8.714 -2.6075 -1.0069  0.4530
21058SOL     OW68020   7.389   8.007   7.586  0.3913  0.1145 -0.3607
21058SOL    HW168021   7.483   8.015   7.602 -0.0197  1.6434  1.7239
21058SOL    HW268022   7.376   7.914   7.566  2.2316 -0.2846  0.1158
21059SOL     OW68023   7.155   6.882   7.351 -1.1504 -0.4130 -0.6920
21059SOL    HW168024   7.197   6.805   7.312  0.5722  0.1677 -0.0812
21059SOL    HW268025   7.203   6.956   7.315 -1.9340  0.3155 -0.2708
21060SOL     OW68026   5.327   0.515   0.025 -0.2217 -0.7012 -0.3690
21060SOL    HW168027   5.292   0.600   0.051 -0.8932 -0.7868 -0.9624
21060SOL    HW268028   5.287   0.497  -0.060  1.7853 -0.5145 -1.4085
21061SOL     OW68029   4.853   4.797   1.101 -0.0003  0.1302 -0.5464
21061SOL    HW168030   4.831   4.705   1.084  0.8056  0.5357 -4.7325
21061SOL    HW268031   4.784   4.847   1.059  0.2866  1.4935  0.5128
21062SOL     OW68032   7.751   6.085   6.523 -0.3498  0.0064 -0.1370
21062SOL    HW168033   7.759   6.159   6.582 -0.7226  0.5122 -0.7131
21062SOL    HW268034   7.713   6.121   6.443 -1.0378 -0.8951 -0.2436
21063SOL     OW68035   4.655   6.978   7.425 -0.4704  0.4157 -0.1209
21063SOL    HW168036   4.575   7.029   7.440  0.2954  2.0757 -1.3243
21063SOL    HW268037   4.624   6.890   7.403 -1.8609  0.4016  1.6556
21064SOL     OW68038   9.138   4.737   9.063 -0.6604 -0.0414  0.3852
21064SOL    HW168039   9.054   4.754   9.020  0.5951  0.9239 -1.8230
21064SOL    HW268040   9.137   4.793   9.141 -1.7405  0.5479 -0.0372
21065SOL     OW68041   5.927   7.387   1.386 -0.3934 -0.5876  0.5716
21065SOL    HW168042   5.967   7.324   1.327  0.8998  0.8051 -0.1120
21065SOL    HW268043   5.937   7.348   1.473 -1.2126 -2.0912  0.0350
21066SOL     OW68044   8.176   7.632   8.999  0.4632 -0.4201  0.4553
21066SOL    HW168045   8.084   7.659   9.000  0.4690 -0.3888  1.8674
21066SOL    HW268046   8.222   7.701   9.047  1.3937  0.0759 -1.0914
21067SOL     OW68047   5.260   4.436   7.035  0.3064 -0.7540 -0.5010
21067SOL    HW168048   5.353   4.454   7.040 -0.2443  2.3475  1.2681
21067SOL    HW268049   5.240   4.389   7.115 -0.3687  3.7242  2.3068
21068SOL     OW68050   6.748   6.748   1.543 -0.0229  0.0261 -0.1730
21068SOL    HW168051   6.683   6.682   1.517  1.1407 -0.8970 -0.8091
21068SOL    HW268052   6.820   6.697   1.580  0.8347  0.9456 -0.5431
21069SOL     OW68053   3.805   5.808   7.450  0.4384  0.0896  0.0541
21069SOL    HW168054   3.829   5.745   7.382  1.4160  1.6658 -1.1579
21069SOL    HW268055   3.710   5.798   7.460  0.5630 -1.5107 -0.1331
21070SOL     OW68056   6.942   9.139   7.267  0.0160 -0.0529 -0.3845
21070SOL    HW168057   7.038   9.149   7.268  0.1604 -1.2079 -0.6734
21070SOL    HW268058   6.928   9.044   7.273 -1.1172  0.1078 -0.2848
21071SOL     OW68059   5.556   7.459   8.328  0.5300  0.3076 -0.5831
21071SOL    HW168060   5.538   7.533   8.270 -1.9390 -0.1725 -0.5371
21071SOL    HW268061   5.471   7.416   8.338  1.6592 -1.8033  0.4015
21072SOL     OW68062   6.988   7.385   5.797 -0.2643 -0.4410 -0.5267
21072SOL    HW168063   6.939   7.461   5.766 -0.0815 -0.8509 -1.9027
21072SOL    HW268064   6.922   7.330   5.839 -0.1944  1.0133  1.6694
21073SOL     OW68065   6.340   4.200   8.379  0.1754 -0.2636 -0.2605
21073SOL    HW168066   6.343   4.121   8.433 -0.3304 -0.3167 -0.3013
21073SOL    HW268067   6.356   4.170   8.290 -1.0249 -0.4852 -0.4269
21074SOL     OW68068   4.168   5.736   7.789  0.1302 -0.0381  0.2068
21074SOL    HW168069   4.076   5.731   7.764  0.4012 -0.6970 -0.7085
21074SOL    HW268070   4.178   5.825   7.822 -0.8507  0.0162  0.4009
21075SOL     OW68071   7.450   7.078   7.495  0.3299 -0.3219 -0.7151
21075SOL    HW168072   7.361   7.115   7.495  0.0634 -0.9613 -0.7706
21075SOL    HW268073   7.498   7.132   7.433  0.0128  0.1054 -0.5936
21076SOL     OW68074   6.389   5.086   8.577  0.2145  1.2796  0.1901
21076SOL    HW168075   6.442   5.006   8.580  0.9737  1.7776  2.4044
21076SOL    HW268076   6.396   5.116   8.487  1.2963 -0.2494 -0.2899
21077SOL     OW68077   8.473   5.811   0.143 -0.0212  0.5402 -0.5456
21077SOL    HW168078   8.550   5.861   0.113  0.8044 -1.1423 -1.3844
21077SOL    HW268079   8.424   5.793   0.063 -0.4277  0.2095 -0.2263
21078SOL     OW68080   6.307   6.684   8.989 -0.4946 -0.0894 -0.1977
21078SOL    HW168081   6.348   6.726   8.914  1.4347  0.0152  0.8622
21078SOL    HW268082   6.287   6.755   9.050 -0.3607 -0.3601  0.1679
21079SOL     OW68083   4.830   6.151   6.845  0.1115 -0.0658 -0.6091
21079SOL    HW168084   4.826   6.201   6.764 -2.6537 -0.6305 -0.8996
21079SOL    HW268085   4.919   6.166   6.878  0.3616  2.5590 -2.2078
21080SOL     OW68086   7.709   7.248   8.561 -0.1596  0.0294  0.6604
21080SOL    HW168087   7.724   7.177   8.499  0.7271  1.7184 -1.2000
21080SOL    HW268088   7.787   7.303   8.554  0.0889  0.1739  3.5456
21081SOL     OW68089   6.509   8.706   6.563 -0.2945  0.4723  0.0398
21081SOL    HW168090   6.458   8.785   6.545 -1.1394  0.1290  0.8547
21081SOL    HW268091   6.517   8.703   6.658  0.7232  0.1774 -0.0411
21082SOL     OW68092   6.758   5.285   8.126  0.0033 -0.5970  0.2578
21082SOL    HW168093   6.831   5.340   8.154  0.0735 -0.2690 -0.5382
21082SOL    HW268094   6.702   5.279   8.203 -0.4161  1.2611  0.1516
21083SOL     OW68095   6.606   7.260   9.550 -0.1169  0.5207 -0.1902
21083SOL    HW168096   6.568   7.314   9.619  0.1572  1.7249 -0.9580
21083SOL    HW268097   6.577   7.171   9.570 -0.2231  0.8782  1.3459
21084SOL     OW68098   9.085   5.941   7.333 -0.3132 -0.0553 -0.5438
21084SOL    HW168099   9.121   5.856   7.308 -2.1935 -1.0426 -0.1118
21084SOL    HW268100   9.161   5.993   7.356  0.8596 -1.8961  0.0051
21085SOL     OW68101   8.489   8.232   8.864 -0.3159 -0.7161 -0.1576
21085SOL    HW168102   8.540   8.289   8.922 -2.1634  2.3368 -1.2968
21085SOL    HW268103   8.554   8.194   8.805  0.9335  1.3217 -0.1923
21086SOL     OW68104   9.795   7.026   8.225  0.3675  0.1858  0.2946
21086SOL    HW168105   9.874   6.974   8.243  2.4986  2.6287 -1.1950
21086SOL    HW268106   9.732   6.963   8.189  1.8949 -1.7562  0.8441
21087SOL     OW68107   7.299   4.914   0.689  0.0787  0.0245 -0.3049
21087SOL    HW168108   7.306   5.009   0.699  2.1275 -0.1424  0.0975
21087SOL    HW268109   7.265   4.883   0.773  2.6171  0.1168  0.8197
21088SOL     OW68110   7.995   7.442   8.118  0.1904 -0.4096  0.4466
21088SOL    HW168111   8.010   7.473   8.208 -1.9810  2.1838  0.0588
21088SOL    HW268112   8.077   7.460   8.072  0.8676 -0.5021  1.5680
21089SOL     OW68113   8.662   6.325   7.951  0.7546  0.0827 -0.1775
21089SOL    HW168114   8.721   6.288   7.885  1.7165 -0.0874  0.7388
21089SOL    HW268115   8.707   6.403   7.982  1.5329 -1.1551  1.9942
21090SOL     OW68116   8.005   8.510   6.534  0.1796  0.3960 -0.0917
21090SOL    HW168117   8.035   8.595   6.567  0.1546 -0.0525  1.1327
21090SOL    HW268118   7.951   8.531   6.458  1.6836  1.3636 -0.9570
21091SOL     OW68119   6.460   7.636   6.081  0.0068  0.3499  0.4346
21091SOL    HW168120   6.457   7.644   5.986 -0.5735  0.2009  0.4385
21091SOL    HW268121   6.492   7.547   6.097 -1.8231 -0.3565  0.3625
21092SOL     OW68122   0.338   5.451   9.022  0.0148  0.6166  0.7460
21092SOL    HW168123   0.321   5.434   8.930  0.7261  0.4995  0.6248
21092SOL    HW268124   0.434   5.460   9.027  0.1465 -0.9269  1.7108
21093SOL     OW68125   6.218   6.835   6.128 -0.0550  0.2221  0.1416
21093SOL    HW168126   6.293   6.784   6.097 -1.6414 -0.8643 -2.1580
21093SOL    HW268127   6.180   6.781   6.197 -1.1562 -1.3700 -1.6246
21094SOL     OW68128   6.169   4.439   8.418 -0.3597  0.1636 -0.3551
21094SOL    HW168129   6.210   4.356   8.393 -2.2164 -0.6329 -0.9619
21094SOL    HW268130   6.219   4.506   8.371  0.0365 -0.7828 -1.3182
21095SOL     OW68131   7.287   8.359   8.179 -0.1904  0.2779  0.7856
21095SOL    HW168132   7.195   8.359   8.151  0.3935 -0.1978 -1.2791
21095SOL    HW268133   7.322   8.442   8.147 -0.1672  1.0557  2.6902
21096SOL     OW68134   7.508   5.918   8.957  0.3713 -0.0565 -0.1331
21096SOL    HW168135   7.439   5.983   8.952  1.1197  0.6546 -3.0156
21096SOL    HW268136   7.549   5.933   9.042  0.3439  3.0995 -0.5789
21097SOL     OW68137   5.823   3.397   7.609 -0.6726  0.1204  0.3434
21097SOL    HW168138   5.796   3.461   7.543 -1.4291  0.6824  1.1771
21097SOL    HW268139   5.762   3.409   7.681  0.8492  0.3512  1.6597
21098SOL     OW68140   6.627   7.193   7.912  0.1557 -0.5234  0.0094
21098SOL    HW168141   6.582   7.259   7.964 -0.4584 -2.1735  1.7007
21098SOL    HW268142   6.564   7.171   7.843  1.5019  2.6621 -2.5010
21099SOL     OW68143   5.045   6.162   8.604 -0.4260  0.4649 -0.0269
21099SOL    HW168144   5.097   6.084   8.585  0.2614  0.6074  1.1808
21099SOL    HW268145   5.058   6.178   8.697  0.3490  2.6419 -0.4349
21100SOL     OW68146   8.737   5.807   9.361 -0.0829 -0.1682 -0.1690
21100SOL    HW168147   8.660   5.860   9.378  0.0985 -0.2400  0.9774
21100SOL    HW268148   8.810   5.870   9.360 -0.2711  0.1167 -2.7387
21101SOL     OW68149   6.345   4.382   6.719 -0.0500 -0.3356  0.3547
21101SOL    HW168150   6.389   4.457   6.759 -0.8545  1.1345 -1.3841
21101SOL    HW268151   6.382   4.376   6.631 -2.2687  0.1000 -0.6795
21102SOL     OW68152   5.319   7.080   9.643  0.5631  0.2832 -0.3792
21102SOL    HW168153   5.275   6.996   9.626 -1.3966  1.3266 -0.7211
21102SOL    HW268154   5.406   7.055   9.675 -0.7690 -1.9331  1.8486
21103SOL     OW68155   8.809   4.513   8.137 -0.0377  0.0420 -0.3668
21103SOL    HW168156   8.890   4.495   8.185 -1.0108  1.7595  2.1182
21103SOL    HW268157   8.837   4.564   8.061  1.3849 -1.1780 -0.7063
21104SOL     OW68158   4.334   6.887   7.339 -0.0764  0.1956  0.0766
21104SOL    HW168159   4.363   6.901   7.249 -2.3972  0.8827 -0.6313
21104SOL    HW268160   4.367   6.963   7.387  0.1949  0.4009 -0.4244
21105SOL     OW68161   5.848   8.757   8.865  0.2747 -0.2490  0.3786
21105SOL    HW168162   5.795   8.681   8.841  1.1606 -0.2594 -1.7652
21105SOL    HW268163   5.869   8.744   8.958 -2.0144 -1.0833  0.8382
21106SOL     OW68164   6.102   5.558   7.426  0.7037 -0.1284  0.2141
21106SOL    HW168165   6.113   5.649   7.398 -0.0870 -0.3289 -0.7912
21106SOL    HW268166   6.046   5.564   7.504  0.6618  0.2470  0.1587
21107SOL     OW68167   5.533   8.638   7.765 -0.6870 -0.0260  0.1532
21107SOL    HW168168   5.590   8.700   7.810  0.2612 -0.0515 -0.9584
21107SOL    HW268169   5.473   8.607   7.833 -2.1733  3.1541  0.4609
21108SOL     OW68170   8.746   7.282   8.074  0.2852 -0.2626 -0.6011
21108SOL    HW168171   8.713   7.193   8.087 -0.0398 -0.2718 -1.4464
21108SOL    HW268172   8.741   7.322   8.161 -2.2688 -0.1737 -0.7229
21109SOL     OW68173   7.892   6.698   8.133  0.0573 -1.2942 -0.1439
21109SOL    HW168174   7.852   6.650   8.206  1.6432 -1.3367  0.7452
21109SOL    HW268175   7.826   6.762   8.108 -0.1691 -0.5930  2.0215
21110SOL     OW68176   5.099   7.705   8.812 -0.6410 -0.0498 -0.0239
21110SOL    HW168177   5.036   7.777   8.813 -0.5979 -0.0073 -0.3495
21110SOL    HW268178   5.151   7.718   8.891 -0.2110  0.6559 -0.4114
21111SOL     OW68179   7.106   6.592   9.568 -0.3438 -0.3203  0.0054
21111SOL    HW168180   7.018   6.606   9.533 -1.0712 -2.5883  0.7131
21111SOL    HW268181   7.165   6.608   9.494 -1.0708  3.5553  0.0948
21112SOL     OW68182   6.968   7.472   2.526 -0.5178  0.3505  0.5080
21112SOL    HW168183   6.968   7.441   2.436 -0.0307  0.1031  0.5879
21112SOL    HW268184   7.026   7.412   2.572  2.1465  2.5511  0.2573
21113SOL     OW68185   6.223   4.910   7.288  0.0001  0.1346  0.1259
21113SOL    HW168186   6.177   4.988   7.316  1.0075  1.2017 -1.0723
21113SOL    HW268187   6.292   4.897   7.354 -1.3407 -0.9138  1.3897
21114SOL     OW68188   5.757   6.632   7.300 -0.3320 -0.6300 -0.0581
21114SOL    HW168189   5.706   6.665   7.374 -1.5241  1.4817 -1.7334
21114SOL    HW268190   5.793   6.710   7.258 -1.0613 -1.6016 -2.6763
21115SOL     OW68191   4.627   7.215   6.715 -0.5686 -0.4061 -0.4127
21115SOL    HW168192   4.577   7.242   6.638 -2.6398  0.0057  0.9960
21115SOL    HW268193   4.696   7.281   6.724 -1.7595  0.8805 -0.5608
21116SOL     OW68194   3.200   6.398   5.727 -0.1032  0.7428  0.0412
21116SOL    HW168195   3.180   6.480   5.682 -2.2795 -0.2518 -0.9315
21116SOL    HW268196   3.150   6.403   5.809 -0.9723  0.0392 -0.4304
21117SOL     OW68197   3.779   6.572   9.539  0.6174 -0.4374  0.9768
21117SOL    HW168198   3.839   6.607   9.605  0.1791 -1.0038  1.6867
21117SOL    HW268199   3.701   6.547   9.588 -0.5481  1.0295 -0.0438
21118SOL     OW68200   6.081   3.580   7.661  0.0893 -0.7364  0.5683
21118SOL    HW168201   6.065   3.518   7.590 -2.4772 -0.2169  0.6059
21118SOL    HW268202   6.077   3.526   7.740 -1.8065 -0.6315  0.5786
21119SOL     OW68203   8.323   6.393   0.435 -1.0913  0.0789  0.9102
21119SOL    HW168204   8.375   6.406   0.515 -0.6582 -0.7378  0.7706
21119SOL    HW268205   8.267   6.318   0.455 -0.1943 -0.8524  0.0821
21120SOL     OW68206   5.145   5.084   7.999  0.4905 -0.0555 -0.2456
21120SOL    HW168207   5.063   5.120   8.032 -0.2759  0.6532 -2.7151
21120SOL    HW268208   5.183   5.153   7.945  2.3239 -0.6616  0.1862
21121SOL     OW68209   6.157   5.538   6.686  0.4790 -0.0287 -0.8916
21121SOL    HW168210   6.143   5.585   6.769 -0.6907  1.5778 -1.9363
21121SOL    HW268211   6.243   5.567   6.656  1.2073 -1.1365  0.0535
21122SOL     OW68212   8.364   6.537   9.619 -0.0385  0.1830  0.3387
21122SOL    HW168213   8.432   6.595   9.586 -1.0044  0.0449 -2.0953
21122SOL    HW268214   8.325   6.584   9.693  1.1849  1.2516  0.3252
21123SOL     OW68215   4.347   5.848   8.590 -0.0321  0.3151 -0.6961
21123SOL    HW168216   4.343   5.919   8.654 -1.4646 -0.7729  0.4773
21123SOL    HW268217   4.267   5.859   8.538  0.1832  0.0714 -1.0819
21124SOL     OW68218   8.126   7.145   0.454  0.5898 -0.5523 -0.3356
21124SOL    HW168219   8.074   7.181   0.526 -1.0435 -2.0819 -0.6743
21124SOL    HW268220   8.184   7.217   0.428  0.6426  0.3140  1.9123
21125SOL     OW68221   6.034   5.414   0.340 -0.4917  0.2287 -0.3114
21125SOL    HW168222   6.126   5.433   0.359 -0.4171 -0.0511 -0.3846
21125SOL    HW268223   6.008   5.481   0.277 -0.6813  1.0371  0.6050
21126SOL     OW68224   5.243   5.168   2.246  0.4896  0.1870  0.3207
21126SOL    HW168225   5.307   5.121   2.300  0.9593  0.1759 -0.2333
21126SOL    HW268226   5.230   5.111   2.170  0.8243  0.7969 -0.2073
21127SOL     OW68227   6.325   6.954   6.385 -1.0996  0.3507  0.1209
21127SOL    HW168228   6.243   6.955   6.435 -1.2159  0.8028 -0.0686
21127SOL    HW268229   6.298   6.969   6.295 -1.0181 -1.8634 -0.3031
21128SOL     OW68230   8.028   5.536   6.744  0.2433 -0.5226 -0.1650
21128SOL    HW168231   8.016   5.537   6.649 -0.2411  0.6844 -0.1043
21128SOL    HW268232   8.003   5.624   6.772 -2.8685 -1.7393  1.4437
21129SOL     OW68233   5.147   6.448   8.527  0.7235 -0.1282 -0.1573
21129SOL    HW168234   5.155   6.353   8.520  0.2073 -0.2425  0.7254
21129SOL    HW268235   5.087   6.463   8.601  1.0596  0.8839 -0.0643
21130SOL     OW68236   5.105   6.708   7.340 -0.1223  0.1554 -0.0752
21130SOL    HW168237   5.093   6.802   7.353  1.5767  0.7198 -1.9740
21130SOL    HW268238   5.018   6.675   7.319 -0.6696  1.3870  0.1630
21131SOL     OW68239   8.299   5.911   7.320  0.3636  0.4786  0.1957
21131SOL    HW168240   8.283   5.866   7.238 -0.1716 -2.3300  1.7225
21131SOL    HW268241   8.389   5.889   7.342  0.3877  0.9146  0.5513
21132SOL     OW68242   4.174   6.166   9.228 -0.4853 -0.0244 -0.4237
21132SOL    HW168243   4.148   6.143   9.139 -2.8836  2.3879 -0.4920
21132SOL    HW268244   4.240   6.234   9.217  0.7032 -1.1173 -0.2852
21133SOL     OW68245   6.562   5.962   9.275  0.0362  0.2973  0.0342
21133SOL    HW168246   6.541   5.902   9.347  0.7303 -0.5469 -0.4475
21133SOL    HW268247   6.578   5.904   9.200  1.3603  1.0457 -0.2847
21134SOL     OW68248   5.801   7.603   8.065 -0.6926 -0.2585 -0.0042
21134SOL    HW168249   5.804   7.512   8.093  2.2971 -1.3511 -3.0934
21134SOL    HW268250   5.860   7.649   8.125  0.4516 -1.1319 -0.4307
21135SOL     OW68251   5.403   4.787   9.140  0.0428 -0.2609 -0.0529
21135SOL    HW168252   5.423   4.870   9.095  0.7822 -0.9189 -0.9708
21135SOL    HW268253   5.363   4.814   9.223  1.3532  1.0611  0.2039
21136SOL     OW68254   4.784   5.394   0.322 -0.5463 -0.1358 -0.2092
21136SOL    HW168255   4.745   5.310   0.344  0.4821 -0.8184 -0.9235
21136SOL    HW268256   4.850   5.408   0.390 -1.5621  0.7345  0.6507
21137SOL     OW68257   8.081   8.737   1.625  0.3037 -0.1367  0.2144
21137SOL    HW168258   8.125   8.814   1.661  0.8842 -0.0718 -0.6102
21137SOL    HW268259   7.995   8.768   1.600 -0.5456 -0.4272  2.5213
21138SOL     OW68260   6.210   8.211   7.853  0.0371  0.1651 -0.3443
21138SOL    HW168261   6.129   8.255   7.877  0.2395  0.8193 -0.8258
21138SOL    HW268262   6.255   8.195   7.936 -1.2171 -1.5171  0.0760
21139SOL     OW68263   7.306   4.716   8.373  0.4342 -0.2419 -0.4884
21139SOL    HW168264   7.332   4.807   8.381 -0.0416 -0.1924  0.5929
21139SOL    HW268265   7.294   4.686   8.463  2.7129 -2.0069 -0.6786
21140SOL     OW68266   5.488   8.625   9.204 -0.0008 -0.1792 -0.1787
21140SOL    HW168267   5.420   8.614   9.271  0.1951  2.1495  0.4971
21140SOL    HW268268   5.563   8.662   9.251  0.3623  0.9265 -1.5374
21141SOL     OW68269   4.412   5.313   8.496  0.7115 -0.2320 -0.3577
21141SOL    HW168270   4.425   5.385   8.557 -1.8000 -1.0395  1.3124
21141SOL    HW268271   4.344   5.344   8.436  0.6572 -0.6691 -0.5278
21142SOL     OW68272   8.144   7.694   8.124  0.2640 -0.4442  1.2235
21142SOL    HW168273   8.110   7.650   8.202  0.3403 -0.6775  1.1254
21142SOL    HW268274   8.080   7.675   8.055 -0.9176  1.4571  1.6866
21143SOL     OW68275   8.416   6.803   6.988 -0.4346  0.0571 -0.5040
21143SOL    HW168276   8.348   6.865   7.015  0.2802  0.7602 -0.2641
21143SOL    HW268277   8.439   6.756   7.068 -0.7499 -0.3060 -0.6214
21144SOL     OW68278   5.949   8.460   8.652  0.4394  0.3217 -0.0257
21144SOL    HW168279   6.035   8.420   8.664 -0.3309 -1.4624 -0.1809
21144SOL    HW268280   5.894   8.420   8.719 -0.4572  0.8889 -0.4014
21145SOL     OW68281   6.348   8.777   8.657  0.1841 -0.5110 -0.0019
21145SOL    HW168282   6.363   8.855   8.602 -1.5340  0.7401  1.2008
21145SOL    HW268283   6.297   8.719   8.601  1.6515 -0.9308 -0.9855
21146SOL     OW68284   6.837   7.692   5.906 -0.3055 -0.4557  0.3822
21146SOL    HW168285   6.872   7.664   5.821 -0.4104  0.9964 -0.1806
21146SOL    HW268286   6.798   7.778   5.887 -1.4713 -0.6869  1.6323
21147SOL     OW68287   9.433   7.996   8.824  0.3082 -0.3835  0.1687
21147SOL    HW168288   9.520   7.974   8.856  0.6378 -0.2756 -0.6309
21147SOL    HW268289   9.397   7.912   8.794  0.1779 -0.4121  0.4055
21148SOL     OW68290   7.346   5.653   6.601  0.0976 -0.1692 -0.0299
21148SOL    HW168291   7.392   5.697   6.674  0.0921  0.1822 -0.2358
21148SOL    HW268292   7.400   5.576   6.582  0.2631 -0.0983  0.1447
21149SOL     OW68293   6.409   6.054   8.302  0.5243 -0.0111 -0.3037
21149SOL    HW168294   6.354   6.061   8.380  1.2178 -0.5175  0.2496
21149SOL    HW268295   6.378   6.122   8.243 -1.8962 -1.3960 -0.7577
21150SOL     OW68296   7.541   6.547   7.952 -0.5077  0.2370 -0.1006
21150SOL    HW168297   7.562   6.503   7.870 -0.9958  2.6618 -1.6386
21150SOL    HW268298   7.541   6.640   7.930 -2.7514  0.8986  2.1317
21151SOL     OW68299   4.926   6.538   7.904 -0.1253 -0.4520 -0.1531
21151SOL    HW168300   4.922   6.630   7.876  2.9450 -0.7921 -2.1918
21151SOL    HW268301   4.907   6.541   7.997  0.4409  2.3727 -0.0278
21152SOL     OW68302   7.994   6.621   9.190  0.4678 -0.1413 -0.2799
21152SOL    HW168303   7.955   6.706   9.209  2.2065  0.1831  2.4085
21152SOL    HW268304   8.078   6.641   9.149  0.0636 -0.6607 -1.4016
21153SOL     OW68305   5.927   7.012   7.247  0.1873 -0.2486 -0.0183
21153SOL    HW168306   5.969   6.979   7.327  1.5310  1.3873 -0.0035
21153SOL    HW268307   5.841   7.042   7.276 -0.2014 -1.6439  0.3691
21154SOL     OW68308   7.666   8.373   9.180  0.3293  0.1309  0.1901
21154SOL    HW168309   7.737   8.412   9.230  0.4743  0.0184  0.0720
21154SOL    HW268310   7.678   8.405   9.091  1.1015 -1.0497 -0.1474
21155SOL     OW68311   3.745   7.786   8.199  0.3683 -0.0809  0.4069
21155SOL    HW168312   3.677   7.831   8.250  1.3299  1.0617  0.7364
21155SOL    HW268313   3.781   7.855   8.142  2.1513 -0.2910  1.1996
21156SOL     OW68314   8.765   6.754   7.467  0.8663 -0.0571 -0.0331
21156SOL    HW168315   8.780   6.799   7.384  0.2864  1.5091  0.6505
21156SOL    HW268316   8.714   6.677   7.443 -0.4654  1.0630 -1.0351
21157SOL     OW68317   0.687   6.477   0.027  0.5782  0.2040  0.6480
21157SOL    HW168318   0.670   6.559  -0.019 -0.9671 -0.3481  0.1717
21157SOL    HW268319   0.772   6.448  -0.006 -0.2492  0.0762 -1.5450
21158SOL     OW68320   6.132   6.445   9.614  0.3213  0.4552 -0.0191
21158SOL    HW168321   6.143   6.436   9.519 -1.8874 -0.9794 -0.2061
21158SOL    HW268322   6.194   6.514   9.639  0.7632  1.0585 -2.5375
21159SOL     OW68323   6.076   6.485   6.866  0.4877  0.4628  0.1130
21159SOL    HW168324   6.166   6.469   6.839  0.3584 -2.4894  1.1147
21159SOL    HW268325   6.025   6.414   6.826 -0.6130 -0.6532  3.2305
21160SOL     OW68326   7.558   7.003   7.175  0.2901  0.3179  0.3109
21160SOL    HW168327   7.615   6.950   7.230  1.6892 -0.1404 -1.4678
21160SOL    HW268328   7.562   7.090   7.213  1.7165  0.1521  0.6056
21161SOL     OW68329   6.292   8.940   6.817 -0.0676 -0.1955 -0.1928
21161SOL    HW168330   6.259   8.956   6.905  0.3202 -0.7941  0.0736
21161SOL    HW268331   6.251   9.007   6.763 -0.1632  0.2982  0.4769
21162SOL     OW68332   9.215   8.175   7.532  0.4991  0.2199 -0.3117
21162SOL    HW168333   9.300   8.218   7.527  0.1999  0.9256  0.3656
21162SOL    HW268334   9.230   8.087   7.499  1.3908  0.4766 -0.6142
21163SOL     OW68335   6.073   6.788   9.738  0.1310 -0.1994  0.4909
21163SOL    HW168336   6.078   6.838   9.819 -0.3211  0.9813 -0.1891
21163SOL    HW268337   6.158   6.744   9.732  1.2214  1.8208  0.2857
21164SOL     OW68338   7.424   9.144   6.943 -0.3501  0.3381  0.2567
21164SOL    HW168339   7.444   9.133   6.849  0.7473 -0.0567  0.5186
21164SOL    HW268340   7.329   9.156   6.946 -0.4311  0.1308 -0.8903
21165SOL     OW68341   6.739   9.273   4.372 -0.7432 -0.2919 -0.2750
21165SOL    HW168342   6.736   9.365   4.399 -2.3504 -0.1799 -0.7173
21165SOL    HW268343   6.682   9.228   4.435  1.0199 -1.2393  0.7163
21166SOL     OW68344   4.362   5.810   6.821 -0.5270 -0.4660  0.2006
21166SOL    HW168345   4.288   5.842   6.872 -0.9427 -1.0353 -0.0438
21166SOL    HW268346   4.333   5.815   6.730  0.0558  0.1348  0.0358
21167SOL     OW68347   8.520   4.449   8.524  0.7959  0.3557 -0.1734
21167SOL    HW168348   8.445   4.401   8.558  0.7456 -1.0977 -2.1669
21167SOL    HW268349   8.490   4.539   8.514 -0.4293 -0.0484 -0.1899
21168SOL     OW68350   2.816   6.479   5.706  0.8051 -0.2635  0.3287
21168SOL    HW168351   2.789   6.540   5.774  1.2686  0.0466  0.2375
21168SOL    HW268352   2.832   6.397   5.752 -0.5445 -0.5489  0.3514
21169SOL     OW68353   5.468   5.214   9.763  0.2004 -0.6735 -0.6736
21169SOL    HW168354   5.560   5.227   9.786  0.0886 -0.3582 -0.3828
21169SOL    HW268355   5.467   5.138   9.705  0.7567 -0.1265 -1.4221
21170SOL     OW68356   5.325   6.545   7.756 -0.0971  0.5207  0.2676
21170SOL    HW168357   5.408   6.509   7.786  0.1464 -0.0188 -1.0134
21170SOL    HW268358   5.275   6.561   7.837  0.4985 -0.9751  0.9532
21171SOL     OW68359   8.609   6.372   0.018 -0.7794 -0.5910  0.4228
21171SOL    HW168360   8.689   6.382   0.070 -0.5804 -0.2439  0.0577
21171SOL    HW268361   8.540   6.408   0.074 -0.7604 -1.3306  0.9318
21172SOL     OW68362   6.510   4.266   9.248 -0.4081 -0.4046  0.3528
21172SOL    HW168363   6.554   4.313   9.177  3.4667 -2.6691  0.9570
21172SOL    HW268364   6.478   4.335   9.307  0.7701  1.4475 -1.0594
21173SOL     OW68365   6.732   8.180   6.585 -0.5205  0.1890  0.2793
21173SOL    HW168366   6.678   8.228   6.648 -0.0908  0.9505  0.0869
21173SOL    HW268367   6.810   8.155   6.635 -0.8649 -0.5607  0.4513
21174SOL     OW68368   5.630   7.100   0.225 -0.7046  0.5273  0.0506
21174SOL    HW168369   5.574   7.150   0.165 -0.3611 -1.0885 -1.7291
21174SOL    HW268370   5.649   7.161   0.296  2.0302  4.0679 -3.2694
21175SOL     OW68371   5.458   5.284   6.966  0.1659 -0.4693 -0.5321
21175SOL    HW168372   5.411   5.209   7.003  0.5857  0.3069  1.7767
21175SOL    HW268373   5.536   5.246   6.926 -0.9800 -1.4876 -1.9029
21176SOL     OW68374   7.273   7.488   8.764  0.7473  0.7587 -0.2033
21176SOL    HW168375   7.358   7.463   8.726  1.0416  1.6954 -0.1841
21176SOL    HW268376   7.275   7.451   8.853  1.1448  0.7989 -0.1931
21177SOL     OW68377   4.487   8.508   7.614  0.4202 -0.1031 -0.4198
21177SOL    HW168378   4.551   8.542   7.677  0.4989 -0.9485 -0.0208
21177SOL    HW268379   4.541   8.468   7.545  0.3363 -0.7177 -0.1385
21178SOL     OW68380   0.460   7.687   9.399 -0.4248 -0.1323  0.5951
21178SOL    HW168381   0.424   7.756   9.343 -0.4967  0.2259  1.0754
21178SOL    HW268382   0.448   7.720   9.488  1.6024  0.2464  0.7649
21179SOL     OW68383   6.500   7.961   8.200 -0.2962  0.0429 -0.1395
21179SOL    HW168384   6.541   7.882   8.164 -1.0608 -0.4169 -0.0240
21179SOL    HW268385   6.571   8.007   8.243  0.2980 -0.2412 -0.8009
21180SOL     OW68386   8.713   7.928   8.780 -0.4529 -0.0362  0.0845
21180SOL    HW168387   8.618   7.937   8.778 -0.3316  1.5630  0.3133
21180SOL    HW268388   8.735   7.888   8.696 -1.2550  0.5113 -0.4082
21181SOL     OW68389   9.677   8.262   9.410 -0.0880  0.0539 -0.4074
21181SOL    HW168390   9.735   8.186   9.403  1.0379  0.7919  0.5379
21181SOL    HW268391   9.714   8.314   9.480 -0.8985  1.4483 -0.9696
21182SOL     OW68392   8.710   6.259   8.901 -0.5875 -0.0021 -1.2042
21182SOL    HW168393   8.644   6.295   8.960 -1.3078 -1.2939 -1.2016
21182SOL    HW268394   8.794   6.284   8.941 -1.0670  0.0617 -0.2207
21183SOL     OW68395   4.883   5.903   6.951  0.8135 -0.9115 -0.6223
21183SOL    HW168396   4.842   5.973   6.899  1.2647  0.0350  0.2639
21183SOL    HW268397   4.828   5.826   6.935 -0.2739 -0.1116 -0.8446
21184SOL     OW68398   5.092   6.810   9.346 -0.1207 -0.3743  0.1510
21184SOL    HW168399   5.076   6.749   9.273 -1.0350 -0.6250  0.5443
21184SOL    HW268400   5.179   6.786   9.378  0.6549  0.2660 -1.3431
21185SOL     OW68401   8.475   4.878   0.417 -0.2827 -0.3739 -0.3161
21185SOL    HW168402   8.512   4.796   0.385  0.1131  0.2240 -1.4397
21185SOL    HW268403   8.539   4.910   0.481 -0.5626 -1.0520  0.3149
21186SOL     OW68404   6.956   4.926   6.205 -0.2303  0.6948  0.3012
21186SOL    HW168405   7.050   4.912   6.199 -0.3445  0.4449 -1.1445
21186SOL    HW268406   6.935   4.985   6.133 -1.2302  0.4677  0.3916
21187SOL     OW68407   7.881   7.441   6.640  0.2527 -0.3935  0.5037
21187SOL    HW168408   7.879   7.476   6.730  1.7134  0.0884  0.3828
21187SOL    HW268409   7.970   7.461   6.610 -0.8606  1.4651 -1.8415
21188SOL     OW68410   5.911   7.925   9.237 -0.1612 -0.6919 -0.1436
21188SOL    HW168411   5.839   7.980   9.268  0.8726  0.8098 -0.3139
21188SOL    HW268412   5.980   7.936   9.302  0.5203 -0.8092 -0.8329
21189SOL     OW68413   7.230   7.674   9.042 -0.0129  0.0248  0.2463
21189SOL    HW168414   7.189   7.647   9.125  1.6535 -0.3667  0.9997
21189SOL    HW268415   7.322   7.651   9.054  0.3751  0.6133 -1.4724
21190SOL     OW68416   9.520   7.693   8.870  0.0415 -0.6390  0.4025
21190SOL    HW168417   9.494   7.710   8.961 -2.2198 -0.5883 -0.2018
21190SOL    HW268418   9.606   7.735   8.862 -0.8459  1.6549  1.8145
21191SOL     OW68419   6.110   6.047   7.208 -0.0334 -0.3357  0.0733
21191SOL    HW168420   6.089   6.098   7.130  0.3386 -1.1496 -0.5708
21191SOL    HW268421   6.184   5.992   7.183  2.4030  1.7772  2.0127
21192SOL     OW68422   4.198   5.757   8.106 -0.3058 -0.0091 -0.9066
21192SOL    HW168423   4.153   5.690   8.054  0.7251 -1.2929 -0.1945
21192SOL    HW268424   4.288   5.758   8.071 -0.4067  1.3208 -1.1854
21193SOL     OW68425   6.550   8.697   7.688  0.1655 -0.9194  0.2140
21193SOL    HW168426   6.575   8.605   7.674  1.9531 -0.1579 -2.2995
21193SOL    HW268427   6.619   8.747   7.644 -3.1963  1.5195 -2.8809
21194SOL     OW68428   3.141   7.633   5.172 -0.0633 -0.2561 -0.2615
21194SOL    HW168429   3.170   7.723   5.160 -0.5375  0.3663  2.4686
21194SOL    HW268430   3.201   7.581   5.119  0.9050  1.5824 -1.0471
21195SOL     OW68431   7.564   8.557   8.357  0.0446 -0.6415 -0.3203
21195SOL    HW168432   7.531   8.554   8.447 -1.9437  2.6772 -0.7648
21195SOL    HW268433   7.657   8.576   8.367  0.0754 -1.3238  1.0183
21196SOL     OW68434   6.185   6.201   6.624 -0.3176 -0.2647 -0.1461
21196SOL    HW168435   6.108   6.242   6.663 -0.9677  0.0620 -1.6659
21196SOL    HW268436   6.170   6.207   6.529  1.2216 -0.8908 -0.4723
21197SOL     OW68437   7.066   6.115   6.494 -0.1706  0.1759 -0.1713
21197SOL    HW168438   7.146   6.122   6.442  1.1934  1.7860  1.9799
21197SOL    HW268439   7.096   6.114   6.585 -2.5899  0.6144  0.7176
21198SOL     OW68440   3.997   6.825   6.541  0.2586  0.3306 -0.3667
21198SOL    HW168441   4.039   6.752   6.587  1.9500  0.4682 -1.6140
21198SOL    HW268442   3.968   6.884   6.611 -0.4272 -1.1193  0.6241
21199SOL     OW68443   5.360   7.494   6.874  0.0280 -0.1745 -0.2821
21199SOL    HW168444   5.310   7.568   6.838  0.0255  0.2745  0.6311
21199SOL    HW268445   5.330   7.486   6.964 -0.3138 -1.6079 -0.4999
21200SOL     OW68446   8.515   5.077   8.351  0.0574 -0.1513  0.3584
21200SOL    HW168447   8.456   5.138   8.395  0.3521 -0.1796  0.7967
21200SOL    HW268448   8.472   4.992   8.359  0.4185 -0.2627  1.1646
21201SOL     OW68449   7.666   6.698   7.227  0.4148  0.1047  0.4710
21201SOL    HW168450   7.731   6.645   7.180  0.1618  0.8541 -0.7911
21201SOL    HW268451   7.701   6.707   7.315  1.9449  0.3043 -0.1185
21202SOL     OW68452   6.084   5.938   9.648 -0.3600 -0.2035  0.4859
21202SOL    HW168453   6.135   6.019   9.645  0.5574 -0.7278  1.4591
21202SOL    HW268454   6.145   5.869   9.624 -1.3873 -0.5387 -1.3578
21203SOL     OW68455   8.006   8.109   0.941 -0.1720  0.0544 -0.4129
21203SOL    HW168456   8.081   8.057   0.912  0.7513  1.0197  0.1441
21203SOL    HW268457   7.953   8.048   0.992  0.2377 -0.6424 -0.7971
21204SOL     OW68458   7.808   8.884   8.646 -0.5717  0.2076 -0.0741
21204SOL    HW168459   7.852   8.946   8.704 -1.4682  0.3285  0.4974
21204SOL    HW268460   7.749   8.937   8.594 -1.0602 -0.1138  0.1429
21205SOL     OW68461   5.742   6.056   8.867  0.2193  0.2436  0.3526
21205SOL    HW168462   5.736   6.145   8.902  0.4046  0.4876 -0.2203
21205SOL    HW268463   5.671   6.008   8.911  1.0760  0.2640  1.8226
21206SOL     OW68464   8.061   4.849   9.596  0.5888  0.1916  0.6531
21206SOL    HW168465   8.137   4.871   9.543 -0.3486  2.7974  0.2310
21206SOL    HW268466   8.047   4.755   9.582  1.0558  0.5231 -2.8390
21207SOL     OW68467   5.443   6.737   0.507  0.4625 -0.3126  0.1658
21207SOL    HW168468   5.504   6.811   0.498  0.6524 -0.6077 -1.2165
21207SOL    HW268469   5.425   6.732   0.601  2.5819 -0.2252  0.6389
21208SOL     OW68470   5.816   5.999   9.725 -0.2269 -0.1499  0.0301
21208SOL    HW168471   5.784   5.931   9.665 -0.2581 -1.1643  1.1503
21208SOL    HW268472   5.910   5.982   9.732 -0.1629  0.1847  0.0153
21209SOL     OW68473   3.466   3.526   0.515 -0.6139 -0.6584 -0.0876
21209SOL    HW168474   3.413   3.494   0.442 -0.0771 -3.7105  0.6977
21209SOL    HW268475   3.402   3.554   0.580 -1.2371 -1.9463 -0.1150
21210SOL     OW68476   5.735   5.390   0.369  0.0728 -0.4081  0.2028
21210SOL    HW168477   5.682   5.322   0.411  0.2334  0.4348  1.8669
21210SOL    HW268478   5.741   5.363   0.277 -1.9431 -1.3184  0.2934
21211SOL     OW68479   7.968   4.976   0.855  0.6963  0.1391  0.3199
21211SOL    HW168480   7.992   5.067   0.875  1.4474  0.2881 -1.1084
21211SOL    HW268481   7.974   4.971   0.760  1.0897 -1.5433  0.4201
21212SOL     OW68482   6.200   5.499   8.682  0.1426 -0.2303 -0.3776
21212SOL    HW168483   6.196   5.594   8.675 -1.3418 -0.3050 -0.7827
21212SOL    HW268484   6.237   5.470   8.598 -0.9431 -0.0898 -0.9199
21213SOL     OW68485   5.382   5.936   1.462  0.2299  0.1201 -0.1147
21213SOL    HW168486   5.344   5.966   1.379  0.5974  0.9303  0.0045
21213SOL    HW268487   5.309   5.941   1.524 -0.0562 -0.5182 -0.3787
21214SOL     OW68488   8.284   4.822   7.800 -0.0476 -0.4538 -0.0910
21214SOL    HW168489   8.341   4.794   7.727  0.0028 -1.3065  0.2702
21214SOL    HW268490   8.343   4.828   7.875 -0.5827 -2.4523  0.5602
21215SOL     OW68491   8.228   8.141   8.953  0.2584 -0.2052  0.1228
21215SOL    HW168492   8.222   8.196   9.030  0.7829 -0.1181  0.1074
21215SOL    HW268493   8.322   8.123   8.943  0.1887 -0.2952 -0.4357
21216SOL     OW68494   4.440   7.181   9.243  0.4479 -0.1820  0.3979
21216SOL    HW168495   4.498   7.145   9.311 -0.8593 -1.5479  0.8533
21216SOL    HW268496   4.396   7.254   9.285 -0.2837 -0.9597  1.0262
21217SOL     OW68497   6.859   7.673   1.803 -0.3155  0.2264 -0.8716
21217SOL    HW168498   6.843   7.688   1.897  0.6265 -0.6404 -0.5657
21217SOL    HW268499   6.905   7.589   1.799  0.9563  0.9373 -1.9937
21218SOL     OW68500   8.258   9.012   6.792 -0.5038  0.1377 -0.0641
21218SOL    HW168501   8.279   9.102   6.770 -0.9299  0.1578 -0.3943
21218SOL    HW268502   8.172   9.016   6.833 -1.3798 -0.3218 -1.7735
21219SOL     OW68503   7.001   7.376   2.008 -0.2363  0.2455 -0.2873
21219SOL    HW168504   6.928   7.325   1.973  0.4031 -1.1390  0.3275
21219SOL    HW268505   7.070   7.367   1.943  0.1936 -0.4829  0.2504
21220SOL     OW68506   6.373   6.784   0.093 -1.2318 -0.4994  0.4974
21220SOL    HW168507   6.352   6.861   0.040 -0.0624  1.2789  2.4312
21220SOL    HW268508   6.446   6.813   0.148 -1.4424 -2.6790  2.0386
21221SOL     OW68509   6.837   8.757   0.527  0.1717 -0.0554  0.3002
21221SOL    HW168510   6.877   8.768   0.613 -0.6527  0.6477  0.6058
21221SOL    HW268511   6.866   8.670   0.499  0.7022 -0.1683  1.1432
21222SOL     OW68512   5.739   5.625   1.282  0.1033  0.0968  0.1391
21222SOL    HW168513   5.753   5.691   1.214  1.9556  1.7975  2.0256
21222SOL    HW268514   5.774   5.544   1.244  0.9862  0.9606 -0.9758
21223SOL     OW68515   6.049   5.283   7.790 -0.0944 -0.8774 -0.2083
21223SOL    HW168516   6.138   5.312   7.770 -0.6753  1.7603  0.6103
21223SOL    HW268517   6.056   5.240   7.875 -0.2296  4.6037  3.0407
21224SOL     OW68518   6.060   5.210   9.246 -1.0076 -0.8207 -0.4168
21224SOL    HW168519   6.147   5.171   9.238 -0.7801 -0.0973 -1.8377
21224SOL    HW268520   6.077   5.298   9.280 -1.3062 -1.1266  0.5350
21225SOL     OW68521   6.302   6.651   9.709  0.8556 -0.1050  0.1564
21225SOL    HW168522   6.321   6.677   9.799  1.4620 -0.1138  0.0337
21225SOL    HW268523   6.371   6.691   9.657 -0.8867  2.0538 -0.6678
21226SOL     OW68524   5.703   3.500   8.654 -0.5456  0.3245 -0.3755
21226SOL    HW168525   5.642   3.562   8.612  0.5362  1.9438  0.3355
21226SOL    HW268526   5.711   3.532   8.744  0.5262 -0.5070 -0.1549
21227SOL     OW68527   7.103   6.274   9.445 -0.4103 -0.8608 -0.1897
21227SOL    HW168528   7.157   6.197   9.464  1.4379  0.2916 -0.4698
21227SOL    HW268529   7.103   6.324   9.527  2.2747  1.0197 -1.2051
21228SOL     OW68530   6.412   5.945   9.545  0.1082 -0.6158  0.3365
21228SOL    HW168531   6.411   5.865   9.493 -0.4829 -0.3380 -0.0943
21228SOL    HW268532   6.449   6.011   9.487  3.3366 -1.1493  1.6191
21229SOL     OW68533   8.921   7.102   9.140 -0.7205  0.1276 -0.0711
21229SOL    HW168534   8.847   7.099   9.201 -0.8106 -1.1868 -0.2251
21229SOL    HW268535   8.984   7.039   9.175  0.6277  1.6943  0.4143
21230SOL     OW68536   6.609   5.176   9.620  0.4196 -0.2744 -0.5998
21230SOL    HW168537   6.666   5.236   9.572 -0.6547  1.6629  0.4182
21230SOL    HW268538   6.529   5.226   9.636 -0.7212 -2.1472 -0.0524
21231SOL     OW68539   7.449   4.499   1.179 -0.0435 -0.3026  0.6113
21231SOL    HW168540   7.441   4.461   1.092 -1.4352  1.5731 -0.1434
21231SOL    HW268541   7.542   4.490   1.200  0.8144  1.1981 -2.0635
21232SOL     OW68542   6.279   8.329   9.134 -0.2163 -0.2261 -0.2081
21232SOL    HW168543   6.284   8.367   9.222  0.3246 -0.5695 -0.0878
21232SOL    HW268544   6.370   8.317   9.108 -0.3571 -1.6305 -0.1517
21233SOL     OW68545   7.945   7.038   9.804 -0.1424  0.8104  0.0890
21233SOL    HW168546   7.999   6.972   9.760  2.0654  2.5067  0.0833
21233SOL    HW268547   7.962   7.025   9.897  0.5329  1.5361  0.0729
21234SOL     OW68548   7.834   7.196   7.940  0.3156  0.6569 -0.2005
21234SOL    HW168549   7.892   7.231   7.872  0.6531  0.3404 -0.0768
21234SOL    HW268550   7.809   7.273   7.991 -1.2306  1.1572 -1.6276
21235SOL     OW68551   6.404   7.751   1.586 -0.7919 -0.5349 -0.4530
21235SOL    HW168552   6.403   7.716   1.675 -0.7161  0.4401 -0.0590
21235SOL    HW268553   6.370   7.680   1.532 -0.1624 -1.4014  0.2566
21236SOL     OW68554   7.728   5.211   0.949 -0.2104 -0.2257 -0.2495
21236SOL    HW168555   7.699   5.148   0.882  1.3636 -0.0207 -1.1710
21236SOL    HW268556   7.824   5.208   0.945 -0.0812  0.0080  1.8264
21237SOL     OW68557   7.596   7.175   1.096  0.2948 -0.3072  0.1478
21237SOL    HW168558   7.611   7.114   1.023  2.0096 -0.0476  0.2542
21237SOL    HW268559   7.550   7.249   1.055  0.5956 -0.4798 -0.5200
21238SOL     OW68560   5.855   7.303   6.932 -0.3786 -0.3822  0.0082
21238SOL    HW168561   5.943   7.318   6.897 -0.2790 -2.5844 -0.9015
21238SOL    HW268562   5.802   7.284   6.854 -0.8853 -2.2712  0.7588
21239SOL     OW68563   7.512   5.318   9.771 -0.0101 -0.4780  0.0670
21239SOL    HW168564   7.475   5.402   9.797 -1.0202 -1.3120  1.4525
21239SOL    HW268565   7.458   5.290   9.697 -0.5031 -0.4985  0.4309
21240SOL     OW68566   6.118   5.927   0.058 -0.3331  0.3050 -0.1678
21240SOL    HW168567   6.100   5.914  -0.035  0.4223  0.2867 -0.3245
21240SOL    HW268568   6.063   6.001   0.083  0.2400  0.9982 -0.9043
21241SOL     OW68569   7.640   6.647   9.770 -0.4530  0.0563 -0.5485
21241SOL    HW168570   7.665   6.560   9.801 -1.2464 -0.2690 -0.8039
21241SOL    HW268571   7.723   6.692   9.757 -0.0528  0.5279  2.8698
21242SOL     OW68572   0.459   7.125   7.412  0.2233 -0.0637  0.0127
21242SOL    HW168573   0.508   7.191   7.461 -0.1644  0.2962 -0.0814
21242SOL    HW268574   0.371   7.161   7.404 -0.3253 -1.1087  0.9773
21243SOL     OW68575   9.794   4.654   8.811 -0.0303  0.0601 -0.0829
21243SOL    HW168576   9.819   4.573   8.766  1.6832  1.4502 -1.8034
21243SOL    HW268577   9.711   4.678   8.771  0.6064  0.3360 -1.3204
21244SOL     OW68578   7.311   3.737   1.235 -0.6029 -0.3648 -0.5935
21244SOL    HW168579   7.274   3.820   1.266  0.8601 -0.3206  1.2707
21244SOL    HW268580   7.308   3.679   1.312  1.7285 -0.8167 -0.7599
21245SOL     OW68581   7.518   5.200   1.800  1.0536 -0.1552  0.2499
21245SOL    HW168582   7.504   5.188   1.894  1.8425 -0.7517  0.2995
21245SOL    HW268583   7.451   5.147   1.758  0.2620  0.6532  0.4658
21246SOL     OW68584   7.511   5.522   8.598 -0.0398 -0.2234 -0.3649
21246SOL    HW168585   7.509   5.551   8.507 -1.1338 -0.2257 -0.3543
21246SOL    HW268586   7.442   5.574   8.641 -0.2622 -0.9823  0.2206
21247SOL     OW68587   5.589   4.457   6.801  0.5374 -0.2359  0.4456
21247SOL    HW168588   5.646   4.395   6.757  1.1183  0.5414  0.0733
21247SOL    HW268589   5.512   4.463   6.744  0.4319 -0.6882  0.5396
21248SOL     OW68590   7.324   5.515   9.827 -0.3992 -0.0737  0.3476
21248SOL    HW168591   7.330   5.530   9.922 -2.9960  3.0082  0.1914
21248SOL    HW268592   7.235   5.484   9.813  0.1695 -1.1725 -1.0584
21249SOL     OW68593   5.635   7.174   7.273  0.2545 -0.4804  0.2116
21249SOL    HW168594   5.543   7.153   7.288  1.1016 -3.6539  1.8472
21249SOL    HW268595   5.651   7.149   7.182 -0.7406  1.4775 -0.5666
21250SOL     OW68596   6.701   5.227   0.129  0.3317 -0.3441  0.5272
21250SOL    HW168597   6.725   5.315   0.159  1.2620  0.1335 -1.4682
21250SOL    HW268598   6.606   5.231   0.116 -0.0398 -0.4314  2.7840
21251SOL     OW68599   6.762   4.853   1.572 -0.0314  0.0826  0.0935
21251SOL    HW168600   6.834   4.914   1.589 -0.6686  0.4860  1.5375
21251SOL    HW268601   6.766   4.837   1.478  1.1102  1.1488 -0.0708
21252SOL     OW68602   6.282   5.043   9.168  0.3412  0.4748  0.3109
21252SOL    HW168603   6.292   4.966   9.225 -1.9062 -0.7865 -0.8072
21252SOL    HW268604   6.321   5.016   9.085  2.1332  1.6878  0.7160
21253SOL     OW68605   5.566   5.435   0.821  0.2544  0.7179  0.2114
21253SOL    HW168606   5.519   5.516   0.840  0.3042  1.3193 -1.9211
21253SOL    HW268607   5.650   5.445   0.865 -0.0917  1.4246  0.7331
21254SOL     OW68608   6.703   7.981   0.008 -0.1658  0.6436  0.0408
21254SOL    HW168609   6.715   8.060  -0.045 -1.2031  0.5198 -0.4029
21254SOL    HW268610   6.738   7.910  -0.045 -1.1689  0.5249 -0.4922
21255SOL     OW68611   9.082   9.051   9.611 -0.1509 -0.2380  0.0352
21255SOL    HW168612   9.011   8.987   9.621 -0.0889 -0.1560  1.2158
21255SOL    HW268613   9.161   8.999   9.604 -0.2695 -0.3202 -0.7371
21256SOL     OW68614   6.801   5.828   8.913  0.3828  0.6316 -0.2451
21256SOL    HW168615   6.756   5.754   8.953 -0.2493  0.4415 -1.2778
21256SOL    HW268616   6.839   5.876   8.987 -0.3016  0.0006  0.5296
21257SOL     OW68617   5.380   7.193   7.773  0.0973  0.3863 -0.4295
21257SOL    HW168618   5.380   7.231   7.685  0.7651  3.0245  0.5921
21257SOL    HW268619   5.444   7.246   7.821  1.7816 -2.6855  0.9948
21258SOL     OW68620   7.212   6.051   1.168 -0.4051  0.8460 -0.4502
21258SOL    HW168621   7.239   6.085   1.254  1.3525  0.3153 -0.7552
21258SOL    HW268622   7.276   6.088   1.107  1.5604 -2.7214 -0.8411
21259SOL     OW68623   6.692   4.703   0.001 -0.2400  0.5684 -0.1855
21259SOL    HW168624   6.639   4.741   0.071  1.6812  2.2035  0.5021
21259SOL    HW268625   6.670   4.755  -0.076 -1.2275 -0.2159 -0.4440
21260SOL     OW68626   5.368   6.183   9.386  0.5809 -0.1051  0.6489
21260SOL    HW168627   5.365   6.104   9.333 -1.7190  0.1944  0.2495
21260SOL    HW268628   5.453   6.223   9.365 -0.6587  0.6906 -3.8783
21261SOL     OW68629   5.424   7.574   7.150  0.0223  0.0980  0.1129
21261SOL    HW168630   5.367   7.501   7.171 -1.1130  0.3995 -1.7182
21261SOL    HW268631   5.504   7.534   7.118  0.5346 -0.3203  1.8243
21262SOL     OW68632   5.195   6.236   9.597 -0.3015 -0.3077 -0.7366
21262SOL    HW168633   5.126   6.179   9.564 -0.8668  0.4792 -0.9507
21262SOL    HW268634   5.263   6.233   9.529 -0.1540 -1.0191 -0.5626
21263SOL     OW68635   8.020   6.137   0.114 -0.5033  0.2259 -0.1058
21263SOL    HW168636   8.019   6.230   0.089  1.4215  0.7210  1.4306
21263SOL    HW268637   8.112   6.117   0.127 -0.7408 -2.3755 -1.8348
21264SOL     OW68638   6.337   8.256   2.308 -0.2641  0.3422  0.1476
21264SOL    HW168639   6.399   8.286   2.375  0.8823 -1.4404 -0.0477
21264SOL    HW268640   6.308   8.170   2.339 -0.2800 -0.1852 -1.2653
21265SOL     OW68641   6.729   5.769   0.051  0.1891  0.0496  0.3557
21265SOL    HW168642   6.712   5.740  -0.038  0.7070 -0.1863  0.3303
21265SOL    HW268643   6.645   5.757   0.097  0.2815 -1.0884  0.2417
21266SOL     OW68644   3.989   7.303   9.429 -0.2190 -0.1117  0.0040
21266SOL    HW168645   3.989   7.369   9.498  0.4749  0.8208 -0.8580
21266SOL    HW268646   3.978   7.220   9.475 -0.8180  0.5711  1.1392
21267SOL     OW68647   5.485   5.249   9.414  0.0825 -0.6379 -0.5537
21267SOL    HW168648   5.464   5.189   9.486  0.6764 -0.6840 -0.4153
21267SOL    HW268649   5.568   5.289   9.439 -0.0964 -0.0645 -0.8443
21268SOL     OW68650   8.063   6.657   9.498 -0.0735 -0.1987  0.5996
21268SOL    HW168651   7.972   6.665   9.526  0.1408 -1.9112  1.9286
21268SOL    HW268652   8.058   6.610   9.415 -0.4264  0.4435  0.2469
21269SOL     OW68653   9.018   7.161   9.678 -0.3231  0.0587 -0.1145
21269SOL    HW168654   9.098   7.192   9.635 -0.9410  2.3877  0.2774
21269SOL    HW268655   9.017   7.206   9.763 -1.3426 -1.0342  0.4856
21270SOL     OW68656   6.425   7.067   9.344  0.4498 -0.1420  0.8432
21270SOL    HW168657   6.433   7.036   9.434  1.0463 -1.2897  0.4108
21270SOL    HW268658   6.514   7.064   9.309  0.0797 -0.7094 -0.0958
21271SOL     OW68659   7.316   6.038   9.293  0.2389 -0.5764 -0.0611
21271SOL    HW168660   7.243   6.027   9.233  0.7373 -0.3670 -0.7083
21271SOL    HW268661   7.291   5.987   9.371 -1.1957  0.5689  0.2741
21272SOL     OW68662   5.705   7.669   0.323  0.7343  0.5159 -0.0902
21272SOL    HW168663   5.655   7.600   0.366  0.1826  1.2345  0.4474
21272SOL    HW268664   5.674   7.668   0.233  0.9938 -0.1728 -0.1782
21273SOL     OW68665   8.934   7.698   1.044 -0.1705  0.3743  0.1334
21273SOL    HW168666   8.899   7.730   1.127 -2.0827  0.6697 -0.7380
21273SOL    HW268667   8.902   7.608   1.038  1.6654 -0.3748  0.5983
21274SOL     OW68668   5.969   7.898   1.218  0.0164 -0.3034 -0.1274
21274SOL    HW168669   5.890   7.848   1.199 -0.4756 -1.0190  3.2407
21274SOL    HW268670   5.939   7.971   1.273  1.2347  1.7164 -1.9612
21275SOL     OW68671   5.503   9.104   1.824  0.2713 -0.1991  0.0756
21275SOL    HW168672   5.493   9.200   1.820 -0.8037 -0.3130 -0.4082
21275SOL    HW268673   5.535   9.080   1.737  1.5553 -0.1897  0.5305
21276SOL     OW68674   6.406   9.411   0.171 -0.2924  0.9797 -0.0478
21276SOL    HW168675   6.440   9.420   0.082 -1.4744  0.9804 -0.5077
21276SOL    HW268676   6.444   9.329   0.203 -0.1582  0.7932 -0.6783
21277SOL     OW68677   7.934   6.290   2.750  0.4212 -0.1678 -0.4573
21277SOL    HW168678   7.913   6.197   2.765 -2.2083 -0.2267 -3.3768
21277SOL    HW268679   7.884   6.337   2.817 -1.5689 -0.7930 -1.4061
21278SOL     OW68680   6.143   7.365   1.624  0.1549 -0.0960 -0.3550
21278SOL    HW168681   6.221   7.409   1.660 -0.4894  0.6785  0.1338
21278SOL    HW268682   6.077   7.434   1.620 -1.1978 -1.1898  1.3579
21279SOL     OW68683   4.170   9.435   3.770  0.4409 -0.5094  0.4196
21279SOL    HW168684   4.125   9.366   3.819 -0.5200 -1.9614 -2.2668
21279SOL    HW268685   4.102   9.499   3.751  0.7880  0.0117  0.9283
21280SOL     OW68686   6.573   7.881   3.751  0.0397  0.0375  0.2558
21280SOL    HW168687   6.645   7.851   3.695 -0.3082 -0.7790  0.2224
21280SOL    HW268688   6.597   7.850   3.838  0.8500  1.7866  0.6858
21281SOL     OW68689   8.314   8.162   2.150  0.2078 -0.1850 -0.4189
21281SOL    HW168690   8.273   8.118   2.224  1.6448 -2.3740 -0.8537
21281SOL    HW268691   8.379   8.220   2.189 -0.6912  0.5061  0.0974
21282SOL     OW68692   7.152   0.647   1.224 -0.3307  0.1096 -0.3158
21282SOL    HW168693   7.169   0.660   1.317 -1.4083  0.3759 -0.1474
21282SOL    HW268694   7.233   0.608   1.190  1.4325  3.0759  0.0385
21283SOL     OW68695   6.198   9.279   2.314  0.2101 -0.1118 -0.7344
21283SOL    HW168696   6.238   9.202   2.274 -1.2922 -0.8485 -0.9059
21283SOL    HW268697   6.124   9.299   2.257 -0.4165  0.4258  0.2482
21284SOL     OW68698   5.972   6.952   1.943 -0.0730  0.1608  0.5660
21284SOL    HW168699   5.975   7.047   1.939 -2.2230  0.2802  0.6036
21284SOL    HW268700   5.906   6.933   2.009 -2.6617 -1.2668 -2.2017
21285SOL     OW68701   4.873   7.044   2.461 -0.6998  0.6871 -0.1540
21285SOL    HW168702   4.843   7.129   2.429 -2.4807  0.7781  1.5900
21285SOL    HW268703   4.849   7.043   2.554  0.4638 -1.2168  0.1844
21286SOL     OW68704   4.246   8.737   2.911 -0.1598  0.2950  0.0509
21286SOL    HW168705   4.284   8.825   2.909 -3.6327  1.9862  0.6744
21286SOL    HW268706   4.234   8.714   2.819  0.1179  0.7554 -0.1043
21287SOL     OW68707   5.368   8.808   2.799 -0.0732  0.0746  0.3459
21287SOL    HW168708   5.350   8.760   2.718 -3.4273  0.5934  0.6578
21287SOL    HW268709   5.384   8.898   2.770  2.7100 -0.4255  0.0508
21288SOL     OW68710   6.853   6.429   0.915 -0.3015  0.0329  0.9054
21288SOL    HW168711   6.929   6.439   0.857 -0.4135  1.3758  0.9769
21288SOL    HW268712   6.794   6.500   0.891 -1.2026 -0.5373  1.3819
21289SOL     OW68713   7.560   8.633   0.301  0.3736 -0.0474 -0.5970
21289SOL    HW168714   7.484   8.690   0.293  0.6426  0.5019  0.4652
21289SOL    HW268715   7.538   8.556   0.250 -1.4771 -0.4756  0.7342
21290SOL     OW68716   5.250   1.153   0.870 -0.7835  0.7580 -0.4259
21290SOL    HW168717   5.255   1.085   0.936  0.7263  0.3721 -0.9113
21290SOL    HW268718   5.218   1.230   0.917  1.1557  0.7526  0.9753
21291SOL     OW68719   8.017   7.792   1.446  0.2531 -0.3262 -0.0764
21291SOL    HW168720   8.090   7.844   1.480  0.2093 -0.3389  0.0380
21291SOL    HW268721   7.985   7.743   1.522  1.5468 -2.0400 -0.5583
21292SOL     OW68722   4.612   9.247   0.468 -0.1447  0.2693 -0.8417
21292SOL    HW168723   4.539   9.270   0.526  1.8643  1.7246  1.2808
21292SOL    HW268724   4.666   9.188   0.521  0.8405  0.1860 -1.9121
21293SOL     OW68725   7.745   0.273   8.281  0.6608  0.8571  0.1299
21293SOL    HW168726   7.769   0.280   8.374  0.4154 -0.3123  0.2986
21293SOL    HW268727   7.651   0.292   8.279  0.6591  0.8486  0.1209
21294SOL     OW68728   7.894   0.148   9.793  0.5784  0.2471 -0.2860
21294SOL    HW168729   7.940   0.231   9.784 -0.0435  0.5239 -0.9515
21294SOL    HW268730   7.848   0.136   9.710 -0.4553 -0.0754  0.3089
21295SOL     OW68731   5.301   8.693   0.226  0.5441  0.1789  0.0361
21295SOL    HW168732   5.334   8.608   0.195 -1.4788 -0.5720 -0.1859
21295SOL    HW268733   5.238   8.670   0.294 -1.1699  1.4104 -1.0720
21296SOL     OW68734   6.337   8.565   1.721 -0.0868 -0.6535 -0.0225
21296SOL    HW168735   6.405   8.596   1.660 -0.4917 -0.2237 -0.2643
21296SOL    HW268736   6.384   8.507   1.781  0.3285 -1.0569 -0.7237
21297SOL     OW68737   5.997   8.603   0.668  0.2864  0.1171 -0.2725
21297SOL    HW168738   6.011   8.626   0.760 -0.9868 -0.4934  0.0986
21297SOL    HW268739   5.950   8.520   0.672 -2.2804  1.4353 -1.4099
21298SOL     OW68740   6.454   7.415   9.695  0.2643  0.0053 -0.8812
21298SOL    HW168741   6.377   7.357   9.697  1.1584 -1.2095  0.0475
21298SOL    HW268742   6.424   7.497   9.734 -0.1327 -1.0489  1.1395
21299SOL     OW68743   7.140   8.612   8.544 -0.0084  0.7392  0.1598
21299SOL    HW168744   7.124   8.691   8.595 -1.5983  0.0347  0.8100
21299SOL    HW268745   7.097   8.542   8.594  0.4107 -0.3542 -0.9595
21300SOL     OW68746   7.192   3.435   0.027 -0.0371 -0.0134  0.1239
21300SOL    HW168747   7.223   3.345   0.020  0.2459  0.0169  0.8369
21300SOL    HW268748   7.264   3.488  -0.006 -0.1471 -0.0420 -0.1622
21301SOL     OW68749   4.325   8.755   0.211  0.9403  0.3055  0.0689
21301SOL    HW168750   4.349   8.700   0.285 -1.1006  0.7521  1.1122
21301SOL    HW268751   4.336   8.698   0.135 -1.2919 -1.6850  1.1162
21302SOL     OW68752   6.318   8.031   1.454 -0.1526  0.3748 -0.0970
21302SOL    HW168753   6.360   8.010   1.370 -1.5825 -0.3929 -0.6527
21302SOL    HW268754   6.351   7.964   1.514  1.0955  1.0955  0.0484
21303SOL     OW68755   5.953   8.999   2.039 -0.2304  0.9515  0.0864
21303SOL    HW168756   5.859   9.017   2.036 -0.3765  0.1522 -1.6262
21303SOL    HW268757   5.968   8.966   2.127 -1.5972  0.9234  0.3407
21304SOL     OW68758   5.736   6.858   0.913  0.2905 -0.7067  0.2789
21304SOL    HW168759   5.751   6.865   1.008  0.1467 -0.5403  0.2890
21304SOL    HW268760   5.702   6.769   0.901  1.3967 -1.1421  0.2427
21305SOL     OW68761   7.873   0.506   0.072  0.7221  0.0360  0.5346
21305SOL    HW168762   7.875   0.581   0.012  2.0744  0.0879  0.6143
21305SOL    HW268763   7.800   0.453   0.041  1.1032  0.2927 -0.9008
21306SOL     OW68764   6.392   9.819   1.137  0.2413  0.1220  0.1158
21306SOL    HW168765   6.388   9.828   1.232  1.0246  2.5895 -0.0151
21306SOL    HW268766   6.308   9.780   1.113 -0.2323  0.0420  1.7558
21307SOL     OW68767   7.135   7.580   7.666 -0.0069 -0.0312 -0.1522
21307SOL    HW168768   7.120   7.625   7.583 -0.7201 -0.3455 -0.1949
21307SOL    HW268769   7.230   7.563   7.667 -0.4628 -4.4252 -3.1912
21308SOL     OW68770   8.054   6.996   2.096  0.1936 -0.1315 -0.5698
21308SOL    HW168771   7.983   6.997   2.031  1.2117  1.5561 -1.7390
21308SOL    HW268772   8.040   7.076   2.147  0.5016 -0.4867  0.0825
21309SOL     OW68773   7.153   0.951   8.593  0.7578  0.2037  0.1805
21309SOL    HW168774   7.086   0.883   8.609  0.8547  0.4789  1.9959
21309SOL    HW268775   7.236   0.904   8.600  0.7913  0.2288 -0.0644
21310SOL     OW68776   7.425   7.758   1.739 -0.3506 -0.2594 -0.2840
21310SOL    HW168777   7.490   7.745   1.808 -0.2557  0.0788 -0.3115
21310SOL    HW268778   7.375   7.834   1.768  0.8157  0.9880 -1.4514
21311SOL     OW68779   6.044   5.001   9.856  0.3221 -0.1828 -0.7401
21311SOL    HW168780   6.013   5.039   9.939 -0.3589 -0.1182 -1.0181
21311SOL    HW268781   5.965   4.964   9.816  0.9029 -1.5844 -0.6438
21312SOL     OW68782   4.446   8.036   1.085 -0.2783  0.1453  0.1124
21312SOL    HW168783   4.489   8.093   1.022  0.6735 -1.3938 -0.7099
21312SOL    HW268784   4.435   8.090   1.163  1.3879  1.1943 -0.3228
21313SOL     OW68785   7.708   7.472   0.146  0.1371 -0.5287 -0.4142
21313SOL    HW168786   7.723   7.405   0.080 -1.3979 -2.1768  0.8138
21313SOL    HW268787   7.652   7.536   0.104  2.6367  0.7843 -2.0210
21314SOL     OW68788   5.865   6.821   2.171 -0.5777 -0.0955  0.3031
21314SOL    HW168789   5.958   6.823   2.194 -0.8146  0.3965  1.2816
21314SOL    HW268790   5.822   6.873   2.239 -1.5878 -0.4108 -0.0693
21315SOL     OW68791   6.178   8.059   9.352  0.4014  0.2284 -0.0369
21315SOL    HW168792   6.186   7.974   9.396  0.1466 -0.7741 -1.8626
21315SOL    HW268793   6.238   8.055   9.279  0.4634  1.6888 -0.1039
21316SOL     OW68794   4.139   0.268   1.840 -0.3307 -0.5673 -0.1423
21316SOL    HW168795   4.048   0.278   1.866 -0.2604 -0.7191  0.1570
21316SOL    HW268796   4.164   0.355   1.808 -1.7541 -1.3785 -4.0842
21317SOL     OW68797   7.143   8.713   2.551 -0.5584 -0.4182  0.3737
21317SOL    HW168798   7.105   8.783   2.603 -0.9103  1.0743 -1.7306
21317SOL    HW268799   7.087   8.708   2.474  0.1318 -2.2619 -0.0484
21318SOL     OW68800   5.218   8.544   1.895 -0.0059 -0.0196  0.1738
21318SOL    HW168801   5.174   8.465   1.926 -0.1520 -0.0820 -0.1950
21318SOL    HW268802   5.290   8.557   1.958 -0.9439  0.4638  1.1821
21319SOL     OW68803   5.917   7.553   1.650  0.0999  0.7234  0.0363
21319SOL    HW168804   5.919   7.637   1.696 -1.5557  0.6347  0.3256
21319SOL    HW268805   5.857   7.567   1.577  0.3500 -0.0081 -0.3170
21320SOL     OW68806   5.155   7.269   9.451 -0.4712 -0.0137  0.3267
21320SOL    HW168807   5.201   7.246   9.531  2.7308  0.4358 -1.2355
21320SOL    HW268808   5.180   7.359   9.433 -1.9039  0.2205 -0.7170
21321SOL     OW68809   4.560   8.715   7.245 -0.0581 -0.4772  0.4570
21321SOL    HW168810   4.510   8.718   7.164 -1.1044  0.7990  1.0977
21321SOL    HW268811   4.645   8.752   7.222 -0.4907  0.2732  0.0024
21322SOL     OW68812   7.386   9.716   0.265  0.1819 -0.0734  0.4997
21322SOL    HW168813   7.349   9.751   0.346 -1.3033  0.5271 -0.3966
21322SOL    HW268814   7.450   9.783   0.237 -0.5073  0.5252  0.3248
21323SOL     OW68815   6.748   9.354   1.434  0.0156  0.8609  0.1017
21323SOL    HW168816   6.808   9.309   1.494  0.7531  0.4369 -0.9156
21323SOL    HW268817   6.680   9.289   1.416 -0.1511  0.9531  0.3927
21324SOL     OW68818   5.759   7.101   1.134  0.5678 -0.0816  0.7872
21324SOL    HW168819   5.749   7.011   1.166  0.1832 -1.0547 -1.7600
21324SOL    HW268820   5.672   7.140   1.147 -0.8310 -1.7299 -2.3176
21325SOL     OW68821   5.808   8.774   0.456  0.3840 -0.0314  0.2646
21325SOL    HW168822   5.842   8.850   0.409 -1.6759  0.5458 -0.4393
21325SOL    HW268823   5.828   8.699   0.400  0.2410  0.3315 -0.2803
21326SOL     OW68824   5.509   8.289   2.211 -0.2393  0.8669 -0.0580
21326SOL    HW168825   5.436   8.231   2.188 -0.0868 -0.7835  3.0431
21326SOL    HW268826   5.485   8.325   2.297  1.8891  1.5220  0.3238
21327SOL     OW68827   2.482   7.769   0.789 -0.2682 -0.6534 -0.2304
21327SOL    HW168828   2.391   7.774   0.816 -0.2501 -0.9924 -0.0918
21327SOL    HW268829   2.481   7.723   0.706 -0.3241  0.4054 -0.8313
21328SOL     OW68830   5.917   9.186   2.592 -0.1597 -0.1853  0.3929
21328SOL    HW168831   5.946   9.215   2.679  1.6982  1.8693 -0.8034
21328SOL    HW268832   5.987   9.128   2.562 -0.8741 -1.0160  0.2657
21329SOL     OW68833   4.672   9.262   0.758  0.2352  0.8591 -0.3178
21329SOL    HW168834   4.741   9.204   0.726 -0.3313  0.2613 -0.4830
21329SOL    HW268835   4.670   9.246   0.852  1.3841  2.0542 -0.0633
21330SOL     OW68836   7.395   7.128   8.504 -0.9716 -0.3366  0.2003
21330SOL    HW168837   7.373   7.037   8.524 -0.2695 -0.7585 -0.8499
21330SOL    HW268838   7.473   7.147   8.556 -0.0994 -0.9139 -0.8462
21331SOL     OW68839   7.112   9.421   1.176 -0.2089  0.0441  0.4993
21331SOL    HW168840   7.188   9.381   1.134  0.9443  1.3396  1.2531
21331SOL    HW268841   7.061   9.347   1.210  0.3541 -0.8683 -0.5895
21332SOL     OW68842   5.666   8.968   4.066  0.0091 -0.3377  0.0880
21332SOL    HW168843   5.606   8.976   4.140  0.0636  0.5792  0.0457
21332SOL    HW268844   5.625   9.020   3.997  1.4944  1.4648  0.4822
21333SOL     OW68845   6.921   7.979   2.913  0.3826 -0.0374  0.1175
21333SOL    HW168846   6.932   8.041   2.842  1.0715 -0.6887 -0.3461
21333SOL    HW268847   6.846   7.924   2.886  0.3738 -0.0123  0.0916
21334SOL     OW68848   6.369   7.721   7.642  0.2419 -0.0778  0.2644
21334SOL    HW168849   6.350   7.703   7.550  1.4648 -1.1948  0.1933
21334SOL    HW268850   6.284   7.717   7.686 -0.1287 -1.5740 -0.5143
21335SOL     OW68851   5.048   6.358   3.898 -0.1220 -0.2137  0.1929
21335SOL    HW168852   5.095   6.427   3.946  1.2041 -0.5951 -0.5014
21335SOL    HW268853   5.105   6.338   3.824 -1.9207  0.0580 -1.3239
21336SOL     OW68854   6.430   9.625   9.714  0.3681 -0.0353  0.2685
21336SOL    HW168855   6.365   9.664   9.656 -0.5450  1.0588  1.9222
21336SOL    HW268856   6.407   9.532   9.718 -1.6580  0.4503  1.4139
21337SOL     OW68857   7.670   4.819   1.969  0.4388  0.0670 -0.1924
21337SOL    HW168858   7.756   4.859   1.976 -0.0733  1.0545  0.8292
21337SOL    HW268859   7.661   4.796   1.876  1.9662 -0.4844 -0.2272
21338SOL     OW68860   5.662   9.565   0.532 -0.5482  0.1734 -0.0293
21338SOL    HW168861   5.738   9.513   0.558 -0.7985 -0.2374 -0.0951
21338SOL    HW268862   5.689   9.610   0.453  0.5072  2.0756  1.3394
21339SOL     OW68863   7.516   7.816   0.970 -0.5542 -0.5376 -0.0217
21339SOL    HW168864   7.543   7.739   1.019 -0.0372 -0.6681 -0.5046
21339SOL    HW268865   7.471   7.781   0.893  0.5662 -0.3848 -0.7563
21340SOL     OW68866   6.038   8.774   8.644  0.3685 -0.1055 -0.3568
21340SOL    HW168867   6.092   8.695   8.638 -1.3554 -1.4026  0.3798
21340SOL    HW268868   5.993   8.766   8.728 -1.1806  0.7697 -1.0638
21341SOL     OW68869   8.543   6.614   0.434  1.0735  0.2046 -0.0869
21341SOL    HW168870   8.535   6.525   0.399  1.1060 -0.1244  0.7221
21341SOL    HW268871   8.619   6.610   0.492 -1.2331 -0.3636  3.1872
21342SOL     OW68872   5.761   9.703   8.312 -0.0905 -0.2128  0.3220
21342SOL    HW168873   5.700   9.631   8.323 -0.6006 -0.3902 -2.6662
21342SOL    HW268874   5.730   9.749   8.233  1.2313  2.2288  1.0997
21343SOL     OW68875   5.577   7.521   1.804  0.0175  0.2494  0.2278
21343SOL    HW168876   5.545   7.431   1.806 -0.9047  0.5077 -1.5054
21343SOL    HW268877   5.662   7.517   1.849  0.2561 -1.5918 -0.3092
21344SOL     OW68878   7.290   0.034   1.897 -0.3330  0.2640  0.2321
21344SOL    HW168879   7.384   0.052   1.898 -0.4225  0.9419 -1.2789
21344SOL    HW268880   7.252   0.105   1.846 -1.5539 -0.5122  0.0107
21345SOL     OW68881   5.889   9.769   9.656  0.6630 -0.1776  0.0544
21345SOL    HW168882   5.943   9.691   9.673  1.8965  0.5632 -0.2907
21345SOL    HW268883   5.822   9.767   9.724  0.5999 -1.6067 -0.0266
21346SOL     OW68884   7.709   8.795   0.471 -0.1741 -0.0757  0.4456
21346SOL    HW168885   7.673   8.728   0.414 -0.3192  0.3690  0.0110
21346SOL    HW268886   7.633   8.838   0.509 -0.0818 -0.1501  0.7214
21347SOL     OW68887   6.105   7.884   0.099  0.1882 -0.0621  0.0701
21347SOL    HW168888   6.028   7.906   0.047  0.2569  0.0268  0.0042
21347SOL    HW268889   6.177   7.884   0.036  0.2211 -0.2811  0.1064
21348SOL     OW68890   5.302   9.512   1.090 -0.4565  0.0108  0.1639
21348SOL    HW168891   5.280   9.438   1.033 -3.5727  0.6729  0.3213
21348SOL    HW268892   5.286   9.480   1.179  1.4655 -0.0979  0.5081
21349SOL     OW68893   7.773   6.051   0.104 -0.5105  0.2489  0.1101
21349SOL    HW168894   7.867   6.038   0.093 -0.5011  1.4485 -1.7179
21349SOL    HW268895   7.765   6.128   0.159 -0.4741 -0.7999  1.6356
21350SOL     OW68896   5.905   6.133   0.278  0.0209 -0.2280 -0.4151
21350SOL    HW168897   5.854   6.099   0.205  1.8439 -0.0790 -1.8271
21350SOL    HW268898   5.860   6.102   0.356 -0.5631 -2.5635 -1.6123
21351SOL     OW68899   4.031   7.364   3.300  0.4880 -0.1736 -0.5235
21351SOL    HW168900   4.109   7.409   3.268  3.2388 -2.0808  2.7507
21351SOL    HW268901   3.977   7.434   3.337 -0.1716  1.3519 -4.0082
21352SOL     OW68902   6.795   8.211   3.068 -0.8597  0.0043 -0.0666
21352SOL    HW168903   6.784   8.257   2.985  0.8658 -1.1002 -0.9706
21352SOL    HW268904   6.837   8.128   3.044 -0.0680 -0.2301  1.9347
21353SOL     OW68905   4.425   8.984   1.590  0.3493 -0.4198  0.3064
21353SOL    HW168906   4.377   8.933   1.655 -1.2504  2.0164  1.1553
21353SOL    HW268907   4.510   9.002   1.630  1.0943 -2.5696 -0.1512
21354SOL     OW68908   8.468   7.598   0.890 -0.8009 -0.0598  0.2665
21354SOL    HW168909   8.530   7.668   0.870  0.6975 -1.6568 -0.9708
21354SOL    HW268910   8.446   7.560   0.805 -1.8917 -0.8439  0.8705
21355SOL     OW68911   5.673   9.536   9.024  0.0755 -0.3227  0.3731
21355SOL    HW168912   5.741   9.479   8.988  0.9430  0.8761  0.0751
21355SOL    HW268913   5.624   9.566   8.948  0.2215  0.0908  0.4420
21356SOL     OW68914   6.562   6.644   7.967  0.3380 -0.3637  0.0429
21356SOL    HW168915   6.644   6.694   7.965  1.2711 -1.8533 -0.4202
21356SOL    HW268916   6.589   6.553   7.958 -1.4658 -0.7874 -1.9176
21357SOL     OW68917   8.043   7.009   8.696 -0.4132 -0.4810 -0.1228
21357SOL    HW168918   7.978   7.028   8.628 -0.6408 -1.1686 -0.1023
21357SOL    HW268919   8.059   7.094   8.737 -0.4801 -0.1040 -0.8496
21358SOL     OW68920   7.932   7.048   9.504  0.8715  0.5326 -0.2719
21358SOL    HW168921   7.941   7.029   9.411  0.4576 -1.0861 -0.0152
21358SOL    HW268922   7.874   6.979   9.537 -3.3391  3.8802  0.2322
21359SOL     OW68923   9.678   8.916   1.507  0.3855 -0.1878  0.0604
21359SOL    HW168924   9.759   8.959   1.481 -0.6720  1.0322 -1.3671
21359SOL    HW268925   9.706   8.832   1.543  2.4201  1.1460  1.7845
21360SOL     OW68926   6.167   9.537   0.213  0.4443 -0.0843 -0.4758
21360SOL    HW168927   6.161   9.583   0.129 -0.8930 -0.3965 -0.5808
21360SOL    HW268928   6.248   9.487   0.208  0.2046 -0.3815 -1.7396
21361SOL     OW68929   8.519   8.430   0.244  0.1764 -0.3899  0.3069
21361SOL    HW168930   8.587   8.401   0.305  0.8129  0.6599  0.1230
21361SOL    HW268931   8.475   8.502   0.290 -0.5195 -0.7711  0.2427
21362SOL     OW68932   7.998   7.469   0.373  0.4255 -0.5118  0.1842
21362SOL    HW168933   8.008   7.428   0.287 -1.0464  1.3331 -0.9709
21362SOL    HW268934   7.966   7.399   0.430  0.4313 -1.5461 -1.0388
21363SOL     OW68935   5.950   7.106   0.590 -0.5708 -0.2211  0.5528
21363SOL    HW168936   5.948   7.099   0.495  0.7743 -0.6362  0.5327
21363SOL    HW268937   5.880   7.168   0.611 -0.3336  0.5317 -0.7680
21364SOL     OW68938   7.288   7.961   1.163  0.1887  0.9341 -0.6287
21364SOL    HW168939   7.323   7.952   1.252  0.1693 -0.1203 -0.7114
21364SOL    HW268940   7.245   8.046   1.162 -1.7482  0.0513  1.0527
21365SOL     OW68941   6.504   7.741   0.310 -0.1158  0.1730 -0.0024
21365SOL    HW168942   6.572   7.771   0.371 -0.0872  1.3325 -0.5854
21365SOL    HW268943   6.432   7.714   0.367 -0.4157  2.0327  0.5663
21366SOL     OW68944   8.103   8.383   0.945 -0.1677 -0.1894 -0.4252
21366SOL    HW168945   8.062   8.298   0.961 -2.3442  0.6928 -1.0341
21366SOL    HW268946   8.141   8.376   0.858  0.9795 -0.9840  0.1073
21367SOL     OW68947   6.688   7.217   2.269 -0.1839  0.1447  0.0706
21367SOL    HW168948   6.737   7.135   2.277 -0.3814 -0.7322 -4.7796
21367SOL    HW268949   6.755   7.285   2.262  0.0729 -0.0230  0.8120
21368SOL     OW68950   5.776   8.482   1.025 -0.3153  0.1780 -0.0795
21368SOL    HW168951   5.706   8.482   1.090  0.0364 -2.3819  0.3897
21368SOL    HW268952   5.759   8.560   0.972 -2.3780  0.6742  1.1995
21369SOL     OW68953   7.833   8.913   8.969  0.2740 -0.6601  0.0819
21369SOL    HW168954   7.910   8.873   9.009  0.9881  1.2736  0.7843
21369SOL    HW268955   7.759   8.861   9.001  1.2217 -2.2232 -0.1800
21370SOL     OW68956   5.605   0.017   1.204  0.7489  0.5138  0.1152
21370SOL    HW168957   5.536   0.067   1.249  0.9058  0.6311  0.2242
21370SOL    HW268958   5.560  -0.023   1.130  0.4013 -0.0179  0.6060
21371SOL     OW68959   6.178   7.319   9.484  0.0258 -0.1505  0.7885
21371SOL    HW168960   6.113   7.254   9.461 -0.0468 -0.5371  2.0385
21371SOL    HW268961   6.212   7.291   9.569  2.7058 -0.6508 -0.3355
21372SOL     OW68962   5.989   7.909   2.885 -0.0872 -0.5926  0.3306
21372SOL    HW168963   6.080   7.899   2.910  0.1168 -1.0957 -0.5380
21372SOL    HW268964   5.950   7.963   2.953  0.7746 -0.6718  0.8943
21373SOL     OW68965   5.149   7.147   2.444 -0.2732 -1.0327 -0.2953
21373SOL    HW168966   5.057   7.120   2.455 -0.6313  0.7454  1.7462
21373SOL    HW268967   5.150   7.239   2.471  1.8614 -0.5727 -1.7294
21374SOL     OW68968   8.343   6.450   0.767  0.1743 -0.2321  0.7012
21374SOL    HW168969   8.348   6.369   0.818  0.6229  0.0081  1.0466
21374SOL    HW268970   8.255   6.451   0.732  0.4885 -1.3916 -0.1591
21375SOL     OW68971   5.907   4.540   1.024  0.4551 -0.3952 -0.5378
21375SOL    HW168972   5.868   4.471   0.971 -1.2305  0.5543 -0.5909
21375SOL    HW268973   5.952   4.597   0.962 -1.5539  0.7413 -1.0522
21376SOL     OW68974   6.644   6.260   0.098 -0.3201 -0.1654 -0.3504
21376SOL    HW168975   6.664   6.315   0.174 -1.5694 -0.4830  0.2535
21376SOL    HW268976   6.723   6.208   0.084 -0.6417 -1.4321  1.9406
21377SOL     OW68977   6.382   8.290   1.627  0.0599 -0.0935 -0.4257
21377SOL    HW168978   6.367   8.212   1.681 -0.3035  0.7197  0.7062
21377SOL    HW268979   6.474   8.287   1.604 -0.1870 -1.3980 -1.2866
21378SOL     OW68980   4.722   9.404   0.048  0.1889  0.8134 -0.3947
21378SOL    HW168981   4.647   9.417  -0.011 -0.0107  1.3361 -0.0365
21378SOL    HW268982   4.766   9.489   0.049  0.4039  0.7000 -0.0753
21379SOL     OW68983   5.067   9.641   9.439 -0.1641  0.3674 -0.2465
21379SOL    HW168984   5.127   9.592   9.384  1.6621  2.2722 -0.0952
21379SOL    HW268985   5.027   9.705   9.380 -0.3308  0.5627  0.0737
21380SOL     OW68986   4.901   7.481   0.687  0.4104  0.4117  0.1218
21380SOL    HW168987   4.828   7.508   0.742 -0.1477  0.7438 -0.7613
21380SOL    HW268988   4.914   7.554   0.626  0.6610 -0.1615 -0.5314
21381SOL     OW68989   6.134   7.236   1.309 -0.5529 -0.4348  0.0745
21381SOL    HW168990   6.129   7.252   1.404  0.3374  2.6698 -0.2922
21381SOL    HW268991   6.137   7.140   1.301 -0.4277 -0.7968  3.1747
21382SOL     OW68992   6.955   6.902   9.675  0.2874  0.0371 -0.2232
21382SOL    HW168993   6.938   6.978   9.618 -0.5194 -0.3177 -0.4739
21382SOL    HW268994   6.936   6.826   9.619 -0.9781 -0.3175  0.6320
21383SOL     OW68995   2.783   1.783   1.468  0.3075  0.6506 -0.7248
21383SOL    HW168996   2.876   1.783   1.490  0.2560 -0.9454 -0.4103
21383SOL    HW268997   2.777   1.725   1.391 -0.2696  1.7449 -1.5346
21384SOL     OW68998   6.735   7.520   2.671  0.2349  0.3133 -0.5043
21384SOL    HW168999   6.808   7.502   2.612  0.8456 -0.5510  0.4845
21384SOL    HW269000   6.682   7.441   2.669  0.2802  0.2574  0.1140
21385SOL     OW69001   8.177   9.857   1.818 -0.1261  0.1452 -0.3579
21385SOL    HW169002   8.216   9.874   1.732 -1.7523 -0.7657 -1.3360
21385SOL    HW269003   8.114   9.787   1.802  0.5474 -1.0627  1.8869
21386SOL     OW69004   5.190   8.863   3.225 -0.0520  0.2283  0.5000
21386SOL    HW169005   5.148   8.908   3.298 -0.5116  1.5792 -0.5590
21386SOL    HW269006   5.131   8.790   3.205  0.5350 -0.7212  2.0205
21387SOL     OW69007   7.224   0.067   9.047  0.3270 -0.4184 -0.3594
21387SOL    HW169008   7.146   0.020   9.077  0.6226  0.5865  2.2608
21387SOL    HW269009   7.189   0.147   9.007 -0.0280 -0.5125 -0.2460
21388SOL     OW69010   5.815   8.909   8.540 -0.1595  0.4541  0.2929
21388SOL    HW169011   5.783   8.820   8.524  0.8940  0.3047 -1.1939
21388SOL    HW269012   5.907   8.898   8.563  0.3902  1.2015 -1.3461
21389SOL     OW69013   5.162   9.083   1.565  0.0718  0.5106  0.1825
21389SOL    HW169014   5.138   9.016   1.629  0.8905  0.2796  0.2602
21389SOL    HW269015   5.248   9.056   1.533 -1.1821 -0.5510 -2.5890
21390SOL     OW69016   6.249   8.665   9.325 -0.1407  0.2042 -0.3904
21390SOL    HW169017   6.246   8.574   9.354  0.8531  0.4978  0.6866
21390SOL    HW269018   6.329   8.671   9.272 -1.2713 -0.0180 -2.2003
21391SOL     OW69019   6.408   4.590   4.170 -0.6159 -0.0826 -0.7102
21391SOL    HW169020   6.378   4.680   4.153 -1.3892 -0.1313  0.3060
21391SOL    HW269021   6.484   4.600   4.227 -0.4889 -0.0595 -0.8840
21392SOL     OW69022   6.319   7.008   1.029 -0.1646 -0.0675  0.2583
21392SOL    HW169023   6.301   7.026   1.121 -0.5565 -0.4494  0.2584
21392SOL    HW269024   6.283   7.082   0.982  1.4421  0.9284  0.5190
21393SOL     OW69025   4.449   8.909   0.612 -0.1788  0.2758 -0.0159
21393SOL    HW169026   4.483   8.923   0.701 -0.7077 -1.0277  0.4143
21393SOL    HW269027   4.517   8.857   0.569 -1.1969 -1.6438  0.5913
21394SOL     OW69028   5.791   7.764   1.791  0.2326  0.1933 -0.2438
21394SOL    HW169029   5.739   7.815   1.730  0.2402 -0.1384 -0.5327
21394SOL    HW269030   5.762   7.793   1.878  0.9313  1.3720 -0.3940
21395SOL     OW69031   4.488   9.213   0.211 -0.1228 -0.6129 -0.1989
21395SOL    HW169032   4.411   9.249   0.167  0.1815  2.0689  1.2964
21395SOL    HW269033   4.452   9.161   0.283 -0.6262  1.0700  0.8358
21396SOL     OW69034   5.522   7.941   1.449 -0.7512 -0.3228 -0.1350
21396SOL    HW169035   5.449   7.999   1.472  0.5145  1.5368 -0.5231
21396SOL    HW269036   5.531   7.883   1.525 -0.3959  1.7914  1.5508
21397SOL     OW69037   6.613   7.802   9.587  0.1460 -0.3627  0.2418
21397SOL    HW169038   6.594   7.827   9.497  0.8870 -1.6851 -0.2974
21397SOL    HW269039   6.705   7.825   9.599 -0.4275  1.6777  1.3508
21398SOL     OW69040   4.777   8.996   3.199 -0.0438  0.3236 -0.6215
21398SOL    HW169041   4.752   8.912   3.159  1.5245  0.4612 -2.0023
21398SOL    HW269042   4.715   9.059   3.162  0.9303  0.3229 -2.3508
21399SOL     OW69043   7.877   8.024   3.186 -0.4255 -0.1154  0.0668
21399SOL    HW169044   7.828   7.973   3.122  2.0480 -1.0769 -1.2149
21399SOL    HW269045   7.963   8.036   3.146  0.8224  0.3795  2.6859
21400SOL     OW69046   6.344   7.616   2.075 -0.0331 -0.7769 -0.0274
21400SOL    HW169047   6.278   7.651   2.135  0.6329  0.1809  0.1793
21400SOL    HW269048   6.396   7.556   2.128  0.8408  0.4161  0.5033
21401SOL     OW69049   6.551   7.490   0.616  0.0669 -0.0256 -0.4835
21401SOL    HW169050   6.456   7.497   0.605  0.1616  1.3221 -0.6536
21401SOL    HW269051   6.578   7.578   0.642  1.4574  0.0033 -1.9053
21402SOL     OW69052   4.811   2.361   2.436  0.2780 -0.4311 -0.3747
21402SOL    HW169053   4.778   2.283   2.480  1.8299 -1.7773 -1.4788
21402SOL    HW269054   4.905   2.359   2.450  0.2543  1.9188  0.5464
21403SOL     OW69055   4.871   7.802   1.703 -0.4329  0.1554  0.0955
21403SOL    HW169056   4.935   7.828   1.771 -0.2191  0.6453 -0.2843
21403SOL    HW269057   4.866   7.707   1.710 -0.5135  0.2074  0.8931
21404SOL     OW69058   4.381   9.726   1.028 -0.7812 -0.4331  0.1203
21404SOL    HW169059   4.436   9.801   1.007  1.1598 -2.0460 -0.8444
21404SOL    HW269060   4.441   9.653   1.037 -2.6211 -1.9649  0.7715
21405SOL     OW69061   8.097   4.680   0.590  0.5837 -0.5560  0.4114
21405SOL    HW169062   8.120   4.711   0.503 -1.3547  1.2768  0.4633
21405SOL    HW269063   8.170   4.708   0.645  1.0930 -0.3343 -0.3616
21406SOL     OW69064   6.195   8.728   0.921  0.6390 -0.0983  0.2403
21406SOL    HW169065   6.270   8.674   0.944  1.9677  1.1632 -0.8986
21406SOL    HW269066   6.233   8.804   0.875 -1.3200  0.6210 -0.3121
21407SOL     OW69067   7.084   9.248   0.887  0.0346  0.3013 -0.3653
21407SOL    HW169068   7.167   9.265   0.931 -1.4570  0.3187  2.6714
21407SOL    HW269069   7.043   9.334   0.877 -0.4315  0.1100 -0.1303
21408SOL     OW69070   5.531   9.263   0.831 -0.5918  0.4804 -0.3932
21408SOL    HW169071   5.506   9.355   0.827  1.9650  1.3372  1.0876
21408SOL    HW269072   5.604   9.255   0.769 -0.0177 -0.2597  0.3605
21409SOL     OW69073   3.585   7.024   0.512 -0.0677  0.5780  0.0675
21409SOL    HW169074   3.544   7.110   0.518  0.6703  0.8885  0.9596
21409SOL    HW269075   3.676   7.042   0.491  0.0581  0.0095  0.0933
21410SOL     OW69076   7.073   9.018   0.099  0.0379  0.0253 -0.3654
21410SOL    HW169077   7.070   9.072   0.178  0.7639  1.2831 -1.1602
21410SOL    HW269078   7.132   8.945   0.122 -0.3088 -0.0106  0.4577
21411SOL     OW69079   6.508   3.612   3.896 -0.1358 -0.4629  0.1016
21411SOL    HW169080   6.553   3.536   3.860 -0.2059  0.0067 -1.0540
21411SOL    HW269081   6.547   3.625   3.982  1.7082 -0.3116 -0.6845
21412SOL     OW69082   6.455   9.290   2.409 -0.2276  0.0757  0.5657
21412SOL    HW169083   6.376   9.337   2.383 -0.2809 -0.4540 -0.2632
21412SOL    HW269084   6.424   9.203   2.434 -0.1839  0.5719  2.4948
21413SOL     OW69085   5.901   8.403   9.483  0.0828  0.7694  0.4489
21413SOL    HW169086   5.977   8.346   9.493 -0.3371  0.3059  1.0840
21413SOL    HW269087   5.833   8.347   9.445  0.6040  1.6515 -1.9840
21414SOL     OW69088   5.214   7.827   0.440  0.2872 -0.6217  0.6048
21414SOL    HW169089   5.160   7.779   0.378 -0.9421  2.3631 -0.8529
21414SOL    HW269090   5.191   7.919   0.426  3.5973  0.5995  2.0541
21415SOL     OW69091   5.866   7.398   0.410  0.0533 -0.2680 -0.0933
21415SOL    HW169092   5.802   7.358   0.469  0.3035  1.1870  1.2269
21415SOL    HW269093   5.820   7.405   0.326 -1.0301 -0.5137  0.4611
21416SOL     OW69094   8.273   9.370   2.277 -0.3058  0.1329  0.7393
21416SOL    HW169095   8.245   9.457   2.248 -1.4608 -0.0028  1.3736
21416SOL    HW269096   8.295   9.382   2.369  0.9123  0.0394  0.4708
21417SOL     OW69097   5.478   8.191   0.488  0.2432 -0.3605 -0.0276
21417SOL    HW169098   5.403   8.210   0.432  0.8023  0.9568 -0.3685
21417SOL    HW269099   5.545   8.159   0.428 -0.6768 -3.7540  0.5292
21418SOL     OW69100   9.095   6.791   0.242  0.7477  0.2500  0.0695
21418SOL    HW169101   9.135   6.871   0.208 -0.7345  1.5891  1.3503
21418SOL    HW269102   9.156   6.761   0.309  0.6694  1.0575  0.5073
21419SOL     OW69103   6.685   9.686   9.642  0.2836  0.4435  0.0033
21419SOL    HW169104   6.596   9.677   9.677  0.1951  0.2159 -0.2733
21419SOL    HW269105   6.716   9.770   9.676  0.5073 -0.1375  1.2815
21420SOL     OW69106   8.753   7.565   0.392 -0.5118  0.0717  0.3537
21420SOL    HW169107   8.763   7.474   0.364 -0.5449 -0.7792  2.8730
21420SOL    HW269108   8.830   7.581   0.447 -2.3058  0.3148  2.9333
21421SOL     OW69109   7.028   9.116   0.363  0.1547 -0.1309 -0.9709
21421SOL    HW169110   6.958   9.179   0.348  0.9078  1.1303  0.4977
21421SOL    HW269111   7.109   9.166   0.349  0.7708 -0.6575  0.4805
21422SOL     OW69112   7.537   5.983   2.684  0.3685 -0.1963 -0.1825
21422SOL    HW169113   7.448   6.001   2.656  0.6026 -0.2980 -1.0114
21422SOL    HW269114   7.528   5.950   2.774 -0.7341 -3.3941 -1.3258
21423SOL     OW69115   5.325   9.531   0.654  0.0725 -0.0506 -0.2350
21423SOL    HW169116   5.391   9.512   0.721 -0.1254  0.8609  0.2289
21423SOL    HW269117   5.346   9.471   0.582  1.7778  0.6530 -0.3555
21424SOL     OW69118   7.624   7.723   2.225 -0.4886  0.8556 -0.0937
21424SOL    HW169119   7.550   7.753   2.173 -1.0713  0.7250  0.6530
21424SOL    HW269120   7.590   7.649   2.275  0.8480 -0.9797 -1.7272
21425SOL     OW69121   4.776   9.259   1.623 -0.9368 -0.0712 -0.3899
21425SOL    HW169122   4.714   9.315   1.577 -0.5111  0.2315 -0.6108
21425SOL    HW269123   4.847   9.319   1.648 -0.1249 -0.6521 -1.2658
21426SOL     OW69124   5.863   7.546   3.485  0.0649  0.1424 -0.1145
21426SOL    HW169125   5.866   7.622   3.544  0.7749 -0.1192  0.1932
21426SOL    HW269126   5.944   7.551   3.435  1.4346 -1.8306  1.7318
21427SOL     OW69127   6.478   7.978   1.231  0.1729 -0.2068  0.3445
21427SOL    HW169128   6.468   8.046   1.164 -0.7143  0.1501  0.8240
21427SOL    HW269129   6.478   7.896   1.182  1.1316  0.1242 -0.2295
21428SOL     OW69130   6.225   8.244   0.398 -0.0813 -0.3589 -0.3812
21428SOL    HW169131   6.309   8.210   0.368  0.3141  0.1651  0.1076
21428SOL    HW269132   6.168   8.168   0.401  0.6565 -0.9018  0.2673
21429SOL     OW69133   7.937   8.624   2.152 -0.4651 -0.0393  0.6432
21429SOL    HW169134   7.887   8.608   2.233 -0.7218  1.6966  0.8715
21429SOL    HW269135   7.897   8.703   2.115  0.3638 -0.1851 -0.6191
21430SOL     OW69136   5.342   6.617   8.577  0.1071  0.3191  0.0400
21430SOL    HW169137   5.311   6.690   8.631  0.9710  0.0991  0.8519
21430SOL    HW269138   5.268   6.556   8.574 -0.2731  0.7697  0.1841
21431SOL     OW69139   7.541   8.485   2.631 -0.0631 -0.2920 -0.6269
21431SOL    HW169140   7.581   8.570   2.649 -1.5113  0.1692  0.6591
21431SOL    HW269141   7.611   8.432   2.594  0.9602  1.3512 -1.1379
21432SOL     OW69142   5.370   0.815   0.502 -0.1800  0.3914  0.4327
21432SOL    HW169143   5.351   0.887   0.563  2.3108  2.8258 -1.4299
21432SOL    HW269144   5.349   0.850   0.416  1.9650 -0.7089 -0.6276
21433SOL     OW69145   4.941   8.305   0.087 -0.6053  0.2476  0.2352
21433SOL    HW169146   4.924   8.322   0.180 -0.9186  0.1341  0.1992
21433SOL    HW269147   5.029   8.267   0.085 -0.5370  0.3934  0.4710
21434SOL     OW69148   8.034   8.359   1.774  0.5034 -0.3607  0.1333
21434SOL    HW169149   7.973   8.416   1.822  1.2171 -0.0508  0.6928
21434SOL    HW269150   8.026   8.387   1.683 -0.3336 -0.4601  0.1625
21435SOL     OW69151   4.581   8.508   0.820 -0.0279 -0.2602  0.0855
21435SOL    HW169152   4.636   8.564   0.764  1.3772  0.9006  2.4949
21435SOL    HW269153   4.571   8.427   0.769  0.0590  1.1750 -2.3858
21436SOL     OW69154   6.412   8.106   9.520  0.2623  0.0704  0.1016
21436SOL    HW169155   6.383   8.051   9.448  1.3444 -0.2701 -0.1038
21436SOL    HW269156   6.494   8.144   9.490 -0.2569  1.4888  0.4092
21437SOL     OW69157   7.318   7.109   9.577 -0.4668  0.0681  0.2619
21437SOL    HW169158   7.303   7.017   9.556 -0.8672  0.5089 -1.5331
21437SOL    HW269159   7.293   7.117   9.669  1.2174 -1.9596  0.9611
21438SOL     OW69160   5.863   8.585   0.288  0.1627  0.0984 -0.3982
21438SOL    HW169161   5.931   8.599   0.222  0.4119  0.0424 -0.1552
21438SOL    HW269162   5.871   8.492   0.310 -1.3585 -0.4345 -1.8783
21439SOL     OW69163   5.396   8.425   2.409  0.0900 -0.0150 -0.3646
21439SOL    HW169164   5.445   8.451   2.486  0.8719 -0.1460 -0.8088
21439SOL    HW269165   5.307   8.409   2.441 -0.1252  1.9302  0.1598
21440SOL     OW69166   7.854   8.516   0.387 -0.6269 -0.1290  0.3041
21440SOL    HW169167   7.869   8.610   0.376  1.0391 -0.5619 -1.6399
21440SOL    HW269168   7.759   8.506   0.375 -0.9928  1.3773  1.5315
21441SOL     OW69169   6.192   6.929   8.043  0.5234  0.1507 -0.0713
21441SOL    HW169170   6.246   7.007   8.030 -1.1782  1.4850  0.4895
21441SOL    HW269171   6.182   6.892   7.955  2.0646  0.0467 -0.2225
21442SOL     OW69172   5.870   1.174   0.968 -0.4119 -0.0821 -0.1396
21442SOL    HW169173   5.925   1.099   0.945 -1.8678 -0.9973 -0.7927
21442SOL    HW269174   5.799   1.136   1.020 -0.8036  0.9663  0.1171
21443SOL     OW69175   5.699   8.342   8.242 -0.5304  0.1012  0.5660
21443SOL    HW169176   5.768   8.283   8.212 -0.4526 -0.6271  2.0822
21443SOL    HW269177   5.683   8.316   8.333 -2.4088  0.6387  0.4233
21444SOL     OW69178   9.334   0.822   0.971  0.0951 -0.2441  0.0173
21444SOL    HW169179   9.428   0.819   0.992  0.5677  1.3144 -1.5949
21444SOL    HW269180   9.327   0.890   0.904 -2.4114  0.7571  1.1683
21445SOL     OW69181   4.437   7.849   0.429  0.3850 -0.1379 -0.5275
21445SOL    HW169182   4.441   7.855   0.334 -1.2591 -0.9646 -0.6728
21445SOL    HW269183   4.527   7.827   0.455  0.6124 -1.0707 -1.9959
21446SOL     OW69184   7.260   7.362   1.269  0.0291  0.1371 -0.1925
21446SOL    HW169185   7.290   7.420   1.200  0.1794  0.1498 -0.1173
21446SOL    HW269186   7.171   7.337   1.243 -0.3597  1.0792  0.2141
21447SOL     OW69187   6.472   8.540   9.737  0.5184  0.5146 -0.9851
21447SOL    HW169188   6.545   8.601   9.747  1.0118 -0.3433  1.4329
21447SOL    HW269189   6.510   8.463   9.694  1.0880  0.0804  0.2405
21448SOL     OW69190   6.003   6.353   2.400 -0.0672 -0.1572 -0.0494
21448SOL    HW169191   5.914   6.366   2.433  0.4452  0.1580  1.2849
21448SOL    HW269192   6.034   6.441   2.378 -0.8068 -0.4544 -2.6299
21449SOL     OW69193   7.428   5.723   5.379 -0.3539 -0.1187 -0.1376
21449SOL    HW169194   7.448   5.815   5.395 -0.0250 -0.2260  0.0803
21449SOL    HW269195   7.333   5.718   5.385 -0.2867 -0.0534  1.2445
21450SOL     OW69196   8.128   8.842   9.722  0.3808 -0.5504  0.0646
21450SOL    HW169197   8.184   8.863   9.797 -0.0390 -1.0086  0.5178
21450SOL    HW269198   8.189   8.816   9.653  0.8059  0.4463  0.0477
21451SOL     OW69199   6.198   7.695   2.487  0.1132  0.5776 -0.5291
21451SOL    HW169200   6.112   7.719   2.454 -0.6224  0.6104  1.2969
21451SOL    HW269201   6.229   7.775   2.531  1.6650  0.9832 -2.2291
21452SOL     OW69202   6.481   9.141   1.940  0.1928 -0.4741  0.8218
21452SOL    HW169203   6.559   9.150   1.994  0.5541 -0.4378  0.3029
21452SOL    HW269204   6.485   9.215   1.879 -0.8998  0.2570  1.5858
21453SOL     OW69205   0.174   5.704   0.300  0.5868  0.5433 -0.4243
21453SOL    HW169206   0.247   5.755   0.335  1.4969 -1.2856  0.4914
21453SOL    HW269207   0.096   5.755   0.324  1.3364  0.6807  2.0279
21454SOL     OW69208   8.262   6.573   2.591 -0.2124 -0.2041 -0.1655
21454SOL    HW169209   8.243   6.479   2.600 -0.4221 -0.0743  0.8330
21454SOL    HW269210   8.184   6.617   2.626 -0.7507  0.3686 -1.9975
21455SOL     OW69211   5.057   9.154   8.887  0.0020  0.2843 -0.2399
21455SOL    HW169212   5.132   9.211   8.871 -0.4953  0.5800 -1.6880
21455SOL    HW269213   5.028   9.177   8.975  2.5008 -0.9013  1.0037
21456SOL     OW69214   6.655   7.707   0.746 -0.1504 -0.3179 -0.3255
21456SOL    HW169215   6.739   7.666   0.764 -0.1095 -0.0742  0.0427
21456SOL    HW269216   6.640   7.765   0.821  0.5122  1.5221 -1.5422
21457SOL     OW69217   7.102   6.221   9.039 -0.1230  0.3945 -0.1916
21457SOL    HW169218   7.074   6.294   9.095 -1.0413  0.2223 -0.4098
21457SOL    HW269219   7.085   6.143   9.092 -0.0581  0.2878 -0.3284
21458SOL     OW69220   7.052   7.256   0.988  0.0142 -0.2173  0.3310
21458SOL    HW169221   7.022   7.298   0.908  2.1400  0.3503 -0.2371
21458SOL    HW269222   7.059   7.327   1.051  1.3540 -0.0710  0.0555
21459SOL     OW69223   5.699   6.625   1.674 -0.4251  0.2483 -0.0734
21459SOL    HW169224   5.682   6.672   1.756 -1.0404  0.4012 -0.2830
21459SOL    HW269225   5.640   6.666   1.611  0.5684  0.6146 -0.7703
21460SOL     OW69226   5.184   8.082   2.341  0.5451 -0.1943 -0.0950
21460SOL    HW169227   5.248   8.014   2.359 -0.6117 -1.2097  0.2769
21460SOL    HW269228   5.157   8.114   2.427  0.4104  0.0997 -0.2429
21461SOL     OW69229   6.293   7.733   4.842  0.3716  0.0217 -0.1177
21461SOL    HW169230   6.258   7.789   4.911 -2.5619  0.3053 -1.6478
21461SOL    HW269231   6.382   7.766   4.827  0.1059  1.7323  1.6316
21462SOL     OW69232   5.206   7.280   2.209  0.5393  0.2861 -0.4224
21462SOL    HW169233   5.231   7.216   2.143 -0.2366 -0.8304  0.3472
21462SOL    HW269234   5.183   7.229   2.286 -0.5406  1.4611  0.0745
21463SOL     OW69235   5.635   8.580   1.777  0.3721  0.2152  0.1899
21463SOL    HW169236   5.680   8.662   1.800  3.1280 -1.5298  1.4931
21463SOL    HW269237   5.627   8.533   1.860 -0.8837 -0.9853 -0.5760
21464SOL     OW69238   7.142   7.104   1.513  0.0653 -0.5015 -0.3842
21464SOL    HW169239   7.164   7.197   1.499 -2.7485  0.4886  0.9558
21464SOL    HW269240   7.205   7.074   1.577  0.5649  0.7390 -0.2555
21465SOL     OW69241   5.353   5.017   0.757 -0.0306 -0.1287 -0.1230
21465SOL    HW169242   5.301   5.019   0.677  0.1355  0.1205 -0.2255
21465SOL    HW269243   5.442   4.995   0.728  0.2404  0.9390 -0.1247
21466SOL     OW69244   6.386   0.224   7.366 -0.2611  0.2258  0.5133
21466SOL    HW169245   6.423   0.136   7.374 -0.1475  0.1170 -0.9278
21466SOL    HW269246   6.322   0.217   7.295  0.3207  1.4821 -0.1686
21467SOL     OW69247   5.811   0.847   3.407  0.5370  0.2043  0.0699
21467SOL    HW169248   5.802   0.837   3.312 -0.9710 -1.4893  0.3233
21467SOL    HW269249   5.741   0.908   3.431 -1.8745 -2.5270  0.4851
21468SOL     OW69250   7.513   1.111   3.133  0.5727 -0.2343  0.4847
21468SOL    HW169251   7.439   1.087   3.189  2.5566 -1.6510  2.6804
21468SOL    HW269252   7.564   1.173   3.186  1.6717 -0.3462 -0.4060
21469SOL     OW69253   6.283   9.690   2.347  0.2762 -0.1666  0.1637
21469SOL    HW169254   6.362   9.714   2.298  0.1586  0.0587  0.0808
21469SOL    HW269255   6.258   9.771   2.392 -0.4722  0.0376 -0.6017
21470SOL     OW69256   4.365   8.217   4.001 -0.0593  0.6075  0.3835
21470SOL    HW169257   4.349   8.298   3.954  0.4228  1.0464  0.9680
21470SOL    HW269258   4.457   8.196   3.982 -0.7219 -0.9035 -1.4357
21471SOL     OW69259   5.826   9.584   2.944  0.3122 -0.1827  0.1423
21471SOL    HW169260   5.743   9.573   2.898 -0.0414 -0.1347  0.7595
21471SOL    HW269261   5.885   9.521   2.903 -0.3299 -0.9755  0.4230
21472SOL     OW69262   4.559   6.772   0.862 -0.3080 -0.5294  0.1536
21472SOL    HW169263   4.508   6.726   0.928 -0.9441 -0.9721 -0.6380
21472SOL    HW269264   4.496   6.827   0.817  0.2493  0.3142  0.3655
21473SOL     OW69265   8.096   5.879   2.002 -0.9541 -0.0783 -0.2169
21473SOL    HW169266   8.081   5.792   1.964 -0.8449  0.0966 -0.6655
21473SOL    HW269267   8.124   5.933   1.928 -0.9821  0.3303  0.0689
21474SOL     OW69268   7.176   8.205   1.203 -0.5796  0.3050 -0.7053
21474SOL    HW169269   7.242   8.273   1.185  0.0900 -0.2345 -0.3124
21474SOL    HW269270   7.118   8.245   1.268  2.0288 -0.7815  2.5445
21475SOL     OW69271   4.118   9.312   3.377 -0.3657 -0.3152  0.0363
21475SOL    HW169272   4.054   9.366   3.330  1.2412  1.1119 -0.6252
21475SOL    HW269273   4.130   9.235   3.321 -1.2104 -0.4263 -0.0103
21476SOL     OW69274   4.950   7.254   0.893 -0.3637  0.1121 -0.7500
21476SOL    HW169275   5.041   7.279   0.912 -0.3092 -0.2136 -0.5641
21476SOL    HW269276   4.927   7.305   0.816  0.1563 -0.1827 -1.1100
21477SOL     OW69277   7.023   8.798   5.200 -0.2580  0.1991  0.3213
21477SOL    HW169278   7.010   8.770   5.110  2.3257  0.7811 -0.3164
21477SOL    HW269279   7.092   8.864   5.195 -0.2416  0.4458  2.6902
21478SOL     OW69280   5.834   1.132   3.058  0.2240  0.0694 -0.1917
21478SOL    HW169281   5.823   1.184   2.979 -0.1310 -1.9851 -1.5877
21478SOL    HW269282   5.745   1.122   3.093 -0.1772 -2.0352 -1.6469
21479SOL     OW69283   6.682   9.067   2.379  0.0545 -0.0052  0.2475
21479SOL    HW169284   6.691   9.162   2.372 -0.3177  0.1767  1.8085
21479SOL    HW269285   6.595   9.055   2.418  0.9529 -0.8493  2.1325
21480SOL     OW69286   7.923   0.674   9.167  0.3289 -0.1894 -0.8389
21480SOL    HW169287   7.852   0.623   9.127 -0.0996  0.4783 -0.9655
21480SOL    HW269288   7.993   0.672   9.102 -0.2525  0.6340 -1.5340
21481SOL     OW69289   3.901   9.600   3.757 -0.6449  0.2227  0.8088
21481SOL    HW169290   3.857   9.526   3.799 -0.4884 -0.2810  0.1148
21481SOL    HW269291   3.837   9.671   3.760 -1.2874 -0.3255  0.3385
21482SOL     OW69292   4.215   7.236   2.047 -0.1982  0.4394 -0.4662
21482SOL    HW169293   4.218   7.330   2.066  0.3336  0.1225  1.2401
21482SOL    HW269294   4.301   7.217   2.009 -0.4879  0.7269 -1.2668
21483SOL     OW69295   4.602   8.915   3.698 -0.6332 -0.4352 -0.2511
21483SOL    HW169296   4.518   8.949   3.728 -0.7369 -0.4772 -0.4904
21483SOL    HW269297   4.626   8.972   3.625  0.3806  0.6502  0.9027
21484SOL     OW69298   8.776   7.379   0.023  0.5547 -0.4091  0.2288
21484SOL    HW169299   8.789   7.381   0.118 -0.3633 -2.1974  0.4339
21484SOL    HW269300   8.715   7.306   0.008 -1.4217  1.4723 -1.5272
21485SOL     OW69301   5.428   8.254   3.780  0.7141 -0.1643  0.1630
21485SOL    HW169302   5.491   8.309   3.732 -0.9436  1.6230 -0.0996
21485SOL    HW269303   5.344   8.297   3.766 -0.9439 -3.4604 -1.0325
21486SOL     OW69304   6.645   9.270   2.142  0.0224 -0.2943  0.2467
21486SOL    HW169305   6.594   9.280   2.223  1.1034 -1.2083  1.0759
21486SOL    HW269306   6.730   9.308   2.163  0.4383 -0.8933 -0.3298
21487SOL     OW69307   6.224   8.827   1.805  0.0554  0.2036 -0.2834
21487SOL    HW169308   6.210   8.733   1.816 -0.0513  0.0281 -1.7409
21487SOL    HW269309   6.291   8.848   1.869  2.7731 -1.6278 -2.2755
21488SOL     OW69310   5.940   6.742   1.465  0.5212 -0.3163 -0.1359
21488SOL    HW169311   5.959   6.736   1.371  2.5086 -0.3720  0.2240
21488SOL    HW269312   5.881   6.669   1.482  1.3473 -1.2420 -1.0890
21489SOL     OW69313   4.664   7.562   2.975 -0.2406  0.1098  0.2043
21489SOL    HW169314   4.660   7.602   2.889  0.4285  2.2744  1.1055
21489SOL    HW269315   4.579   7.520   2.986 -0.7162  0.6843 -1.0865
21490SOL     OW69316   5.928   8.490   2.061  0.3293 -0.1896 -0.1070
21490SOL    HW169317   5.969   8.433   1.996  0.6621 -0.6484  0.4890
21490SOL    HW269318   5.970   8.465   2.144 -0.8835 -0.4099  0.4639
21491SOL     OW69319   4.499   8.358   1.491  0.2756 -0.5566 -0.1559
21491SOL    HW169320   4.445   8.402   1.426  0.7394  0.3412  0.0488
21491SOL    HW269321   4.437   8.331   1.560 -0.0674 -0.5970 -0.4776
21492SOL     OW69322   3.795   7.551   4.899 -0.2939 -0.0168  0.0482
21492SOL    HW169323   3.878   7.545   4.852 -0.0872  1.0373  0.2567
21492SOL    HW269324   3.737   7.600   4.839 -0.3116  0.5228  0.4971
21493SOL     OW69325   7.235   7.055   2.158 -0.2568  0.1710  0.3475
21493SOL    HW169326   7.301   6.993   2.187  0.1186 -0.2792 -1.3584
21493SOL    HW269327   7.281   7.139   2.152  0.2721 -0.2023 -1.1338
21494SOL     OW69328   4.378   9.421   2.659  0.4468  0.5484  0.0360
21494SOL    HW169329   4.343   9.378   2.581  0.4720  2.2252 -0.9506
21494SOL    HW269330   4.461   9.375   2.676  0.2443 -0.1167 -0.6698
21495SOL     OW69331   4.571   9.140   3.025  0.6999 -0.5790 -0.4402
21495SOL    HW169332   4.521   9.137   3.106  2.8052 -2.3169  0.9064
21495SOL    HW269333   4.579   9.233   3.004 -0.8138 -0.1591  0.7066
21496SOL     OW69334   7.812   7.948   1.051  0.0970  0.1434  0.5582
21496SOL    HW169335   7.830   7.854   1.054 -1.2708 -0.1896 -0.6213
21496SOL    HW269336   7.791   7.971   1.141  1.2507 -0.4960  1.0084
21497SOL     OW69337   7.000   6.493   3.555 -0.1012 -0.6346 -0.6177
21497SOL    HW169338   6.982   6.402   3.578 -1.2685 -0.6804 -1.6212
21497SOL    HW269339   7.087   6.491   3.515  0.3613 -1.1161  0.3806
21498SOL     OW69340   4.999   9.375   3.276 -0.3312  0.3536  0.0158
21498SOL    HW169341   5.091   9.359   3.257 -0.4629  0.3999 -0.6582
21498SOL    HW269342   4.973   9.299   3.330 -0.0896 -0.0283 -0.3996
21499SOL     OW69343   6.450   8.765   3.145  0.2023  0.0047 -0.2949
21499SOL    HW169344   6.540   8.756   3.177 -0.2398 -2.6987  0.4288
21499SOL    HW269345   6.434   8.859   3.147  2.8879  0.5474 -0.1446
21500SOL     OW69346   6.975   7.421   1.732  0.1477 -0.3167  0.2100
21500SOL    HW169347   7.067   7.402   1.713  0.1068 -0.0049 -0.3160
21500SOL    HW269348   6.926   7.351   1.689  0.2501 -2.4446  3.2102
21501SOL     OW69349   8.192   7.974   3.362  0.1879  0.4601  0.1441
21501SOL    HW169350   8.136   7.974   3.285 -0.2620  0.5976  0.4669
21501SOL    HW269351   8.165   8.052   3.411  0.1430  0.1077  0.6797
21502SOL     OW69352   6.628   6.931   1.719  0.0005 -0.4748  0.6402
21502SOL    HW169353   6.687   6.941   1.794  0.3492 -0.2577  0.3401
21502SOL    HW269354   6.685   6.897   1.649 -0.3878 -0.9801  0.5656
21503SOL     OW69355   5.946   8.318   2.724  0.7782  0.0344 -0.4125
21503SOL    HW169356   5.917   8.337   2.635  0.4497  0.2390 -0.2629
21503SOL    HW269357   5.952   8.403   2.767  2.6723  0.1143 -0.7486
21504SOL     OW69358   6.753   0.005   1.304 -0.1439  0.5403  0.1311
21504SOL    HW169359   6.834   0.055   1.293 -1.3453  2.4746 -0.3218
21504SOL    HW269360   6.715   0.003   1.216  0.3293 -2.1093 -0.0879
21505SOL     OW69361   5.653   6.395   3.546 -0.3161  0.3881 -0.4543
21505SOL    HW169362   5.701   6.459   3.492 -0.2510  0.7213 -0.0052
21505SOL    HW269363   5.581   6.445   3.584 -0.6580  0.0326 -0.6311
21506SOL     OW69364   7.331   9.859   2.624 -0.4638 -0.1708 -0.1842
21506SOL    HW169365   7.251   9.911   2.613  0.6092  1.3761 -0.9447
21506SOL    HW269366   7.323   9.789   2.560 -1.4005 -0.2857  0.0441
21507SOL     OW69367   5.591   9.137   3.084  0.2379 -0.5191 -0.1205
21507SOL    HW169368   5.615   9.155   2.993 -2.3625 -1.2625 -1.0410
21507SOL    HW269369   5.529   9.065   3.078 -0.4357 -0.2010  2.2178
21508SOL     OW69370   5.230   8.715   2.539 -0.2394  0.6633 -0.0525
21508SOL    HW169371   5.216   8.625   2.569  1.4078  0.8021  1.3242
21508SOL    HW269372   5.150   8.761   2.564 -0.4226 -0.0665  0.7788
21509SOL     OW69373   3.755   7.315   2.579  0.1742  0.1039  0.2316
21509SOL    HW169374   3.826   7.256   2.605 -0.8986 -1.6633 -0.6332
21509SOL    HW269375   3.701   7.323   2.657 -1.4256 -2.7937 -0.4056
21510SOL     OW69376   8.834   8.661   3.867 -0.2527  0.0613  0.1678
21510SOL    HW169377   8.807   8.737   3.920 -1.0141  0.8062 -1.2327
21510SOL    HW269378   8.753   8.614   3.849  0.3127 -1.6305  1.7410
21511SOL     OW69379   6.953   7.627   5.675  0.2305  0.0565  0.3521
21511SOL    HW169380   7.006   7.588   5.606 -1.1901 -0.1196 -0.6722
21511SOL    HW269381   6.983   7.718   5.679  0.3695  0.0507 -0.4591
21512SOL     OW69382   4.693   9.415   9.483 -0.1735 -0.1536  0.3605
21512SOL    HW169383   4.668   9.507   9.485 -2.4980 -0.7044 -0.1662
21512SOL    HW269384   4.626   9.373   9.428 -0.4368 -2.4878  2.3105
21513SOL     OW69385   6.525   8.246   3.165 -0.8848 -0.5171 -0.9296
21513SOL    HW169386   6.515   8.329   3.118 -2.0091 -1.1877 -1.9172
21513SOL    HW269387   6.619   8.228   3.162 -0.5058  1.0748 -0.0289
21514SOL     OW69388   4.799   9.472   4.855 -0.1599 -0.0628 -0.1392
21514SOL    HW169389   4.835   9.395   4.898  0.6214  0.9867  1.1446
21514SOL    HW269390   4.865   9.540   4.868 -1.4693  1.2157  0.0263
21515SOL     OW69391   6.266   9.087   4.021 -0.3428  0.2161  0.1202
21515SOL    HW169392   6.318   9.144   4.078  1.6607 -0.0928 -1.3015
21515SOL    HW269393   6.240   9.143   3.948 -0.9451  0.0340  0.1872
21516SOL     OW69394   7.032   8.858   3.245 -0.5858  0.2286  0.0837
21516SOL    HW169395   7.001   8.768   3.260 -1.5954  0.3280 -1.2624
21516SOL    HW269396   7.128   8.850   3.243 -0.6850 -1.2274 -2.1495
21517SOL     OW69397   8.643   7.407   1.896 -0.3862 -0.4013  0.1441
21517SOL    HW169398   8.702   7.471   1.937 -0.8058 -0.5426  1.0085
21517SOL    HW269399   8.641   7.431   1.804 -0.1997  0.5748  0.3794
21518SOL     OW69400   3.491   7.621   1.461 -0.1624 -0.6409  0.0682
21518SOL    HW169401   3.522   7.568   1.388  1.8106  0.3608  0.1158
21518SOL    HW269402   3.535   7.705   1.450 -1.5906  0.3047  1.1635
21519SOL     OW69403   5.900   8.577   1.514  0.7448  0.4796  0.0358
21519SOL    HW169404   5.910   8.671   1.501 -1.0434  0.5971 -0.9163
21519SOL    HW269405   5.989   8.542   1.516  1.4298  2.1805  0.3644
21520SOL     OW69406   5.884   7.410   3.151  0.1432  0.0483 -0.1036
21520SOL    HW169407   5.887   7.503   3.176  0.4133  0.1517 -0.5125
21520SOL    HW269408   5.843   7.409   3.065  0.9238 -0.1256 -0.4816
21521SOL     OW69409   5.064   9.487   4.228  0.1975 -0.2463 -0.2910
21521SOL    HW169410   5.008   9.410   4.237 -0.5603  0.4190  1.1476
21521SOL    HW269411   5.004   9.561   4.239  0.7148  0.6242 -2.7559
21522SOL     OW69412   6.108   0.711   0.334 -0.1807 -0.3182  0.2243
21522SOL    HW169413   6.112   0.682   0.243 -0.0227  0.3765  0.0052
21522SOL    HW269414   6.016   0.696   0.360  0.3034 -2.8122  0.7492
21523SOL     OW69415   5.738   6.186   0.793  0.1067  0.0986  0.0751
21523SOL    HW169416   5.766   6.107   0.840  2.3907  1.0251  0.4557
21523SOL    HW269417   5.665   6.158   0.738  0.1378 -2.0066  1.0186
21524SOL     OW69418   6.429   9.256   3.430 -0.1088 -0.3351  0.5027
21524SOL    HW169419   6.342   9.244   3.392 -0.2636  1.0952  0.3453
21524SOL    HW269420   6.460   9.339   3.392  1.5548 -1.0835  0.1326
21525SOL     OW69421   6.486   8.019   3.036 -0.4119 -0.2336  0.3556
21525SOL    HW169422   6.538   7.948   3.075 -1.2806 -0.5625  0.9311
21525SOL    HW269423   6.496   8.091   3.098  1.9201  0.8143 -1.0699
21526SOL     OW69424   7.481   8.498   3.322 -0.2460 -0.3061  0.0776
21526SOL    HW169425   7.408   8.531   3.270 -0.4167  1.0532  1.1228
21526SOL    HW269426   7.461   8.525   3.411  0.6890 -1.4306  0.6624
21527SOL     OW69427   8.140   7.680   0.462  0.3847  0.2581 -0.8117
21527SOL    HW169428   8.118   7.765   0.423 -1.3058  0.8220  1.1833
21527SOL    HW269429   8.089   7.617   0.410 -1.0843  0.8858 -0.1836
21528SOL     OW69430   6.518   6.784   3.603  0.2094 -0.1264 -0.2341
21528SOL    HW169431   6.516   6.849   3.532  2.3414 -1.0313 -1.1972
21528SOL    HW269432   6.610   6.766   3.616 -0.2807 -2.0061  0.9214
21529SOL     OW69433   9.076   0.279   1.731 -0.5022  0.2636  0.4027
21529SOL    HW169434   8.985   0.302   1.715 -0.4951 -0.1313 -0.2205
21529SOL    HW269435   9.113   0.264   1.644  0.6418  2.2223  0.4936
21530SOL     OW69436   7.685   8.428   2.955 -0.1297 -0.0777  0.1469
21530SOL    HW169437   7.732   8.393   3.030 -1.4175 -1.2206  0.4808
21530SOL    HW269438   7.665   8.350   2.902 -1.7934  0.3116  0.1528
21531SOL     OW69439   4.473   5.943   1.723 -0.3754  0.2564  0.1740
21531SOL    HW169440   4.407   5.923   1.789 -1.4271  1.0495 -0.5869
21531SOL    HW269441   4.541   5.877   1.736 -1.0636 -0.2588  1.3379
21532SOL     OW69442   5.147   7.576   4.232 -0.1707  0.2919  0.0609
21532SOL    HW169443   5.085   7.568   4.159  0.5271  1.2955 -0.6827
21532SOL    HW269444   5.094   7.564   4.310 -1.3917  1.4411 -0.5307
21533SOL     OW69445   9.254   0.516   2.784 -1.1491 -0.6833  0.1631
21533SOL    HW169446   9.178   0.460   2.797  0.3453 -2.9225 -0.2173
21533SOL    HW269447   9.286   0.494   2.696 -0.1911  0.3800  0.2215
21534SOL     OW69448   6.307   0.730   2.936 -0.0356  0.1988  0.0669
21534SOL    HW169449   6.239   0.679   2.892  1.0499  0.0846 -1.5726
21534SOL    HW269450   6.284   0.726   3.029 -0.3693 -2.7320 -0.0559
21535SOL     OW69451   7.810   0.696   3.006  0.8889 -0.5221 -0.2552
21535SOL    HW169452   7.887   0.736   2.968  1.2892 -0.0395  0.9970
21535SOL    HW269453   7.763   0.769   3.047 -0.6586 -0.6741 -1.6467
21536SOL     OW69454   7.552   8.732   2.328  0.1621  0.7542  0.2921
21536SOL    HW169455   7.541   8.760   2.237 -0.8789  1.1405  0.5139
21536SOL    HW269456   7.626   8.783   2.360 -0.9101  2.3792  0.3091
21537SOL     OW69457   5.929   8.823   1.703 -0.1416  0.1391  0.0241
21537SOL    HW169458   6.019   8.841   1.731 -0.2588 -0.8663  1.1177
21537SOL    HW269459   5.879   8.817   1.785 -1.6361  2.6740 -0.5833
21538SOL     OW69460   8.373   7.906   4.097 -0.5527 -0.3512  0.1504
21538SOL    HW169461   8.425   7.868   4.167 -0.2875  0.7830  0.5974
21538SOL    HW269462   8.369   8.000   4.118 -0.4182  0.0252 -1.3760
21539SOL     OW69463   7.076   7.886   5.713  0.2711 -0.1889  0.0918
21539SOL    HW169464   7.047   7.973   5.687 -0.9686 -1.2624 -2.4129
21539SOL    HW269465   7.156   7.902   5.763 -0.7065  2.4394  1.0349
21540SOL     OW69466   6.863   4.488   2.404  0.2600  0.4584 -0.1622
21540SOL    HW169467   6.802   4.464   2.474  0.1553  0.8065 -0.1353
21540SOL    HW269468   6.949   4.482   2.445  0.4020 -1.5855 -0.6051
21541SOL     OW69469   5.430   7.757   2.484 -0.5612  0.3038 -0.0250
21541SOL    HW169470   5.426   7.662   2.502  1.8105  0.1734  0.1225
21541SOL    HW269471   5.374   7.769   2.408 -0.8292 -1.2326 -0.1105
21542SOL     OW69472   6.865   7.537   1.369 -0.2965  0.1038 -0.0841
21542SOL    HW169473   6.847   7.582   1.286 -1.5504 -1.7235 -0.8956
21542SOL    HW269474   6.857   7.444   1.347  2.1334 -0.5803  1.4963
21543SOL     OW69475   6.628   7.372   4.536 -0.2167 -0.1236 -0.5433
21543SOL    HW169476   6.556   7.419   4.578  0.5022  0.5614 -0.0580
21543SOL    HW269477   6.671   7.326   4.608  0.3347  0.1514 -0.6918
21544SOL     OW69478   7.863   8.799   1.394 -0.1036 -0.1273 -0.2707
21544SOL    HW169479   7.941   8.745   1.382  0.6978  0.7751  0.6957
21544SOL    HW269480   7.892   8.888   1.373 -1.0891  0.1216 -0.6684
21545SOL     OW69481   5.266   8.911   1.325  0.3169  0.7001 -0.4028
21545SOL    HW169482   5.300   8.915   1.415 -1.4577 -0.8245  0.4247
21545SOL    HW269483   5.339   8.876   1.274  1.1671  0.9951  0.5593
21546SOL     OW69484   7.587   7.297   0.497  0.0171  0.1406 -0.1866
21546SOL    HW169485   7.534   7.363   0.541  0.3477  0.2915 -0.0120
21546SOL    HW269486   7.629   7.248   0.568 -0.7547 -0.7114 -0.2870
21547SOL     OW69487   8.090   6.768   2.246 -0.2396  0.7041 -0.6810
21547SOL    HW169488   8.079   6.861   2.228 -0.9397  0.7010 -0.2895
21547SOL    HW269489   8.182   6.759   2.270 -0.5366  1.5794  0.9355
21548SOL     OW69490   6.806   8.800   2.079 -0.2484 -0.3861 -0.0525
21548SOL    HW169491   6.851   8.859   2.018 -2.1929  0.5737 -0.6229
21548SOL    HW269492   6.836   8.829   2.166 -0.0730  0.4997 -0.3906
21549SOL     OW69493   6.622   8.865   5.815  0.1210  0.6547 -0.2726
21549SOL    HW169494   6.707   8.850   5.856 -1.2758 -0.6610  2.4194
21549SOL    HW269495   6.561   8.875   5.888 -1.8990  2.8798 -2.0864
21550SOL     OW69496   5.619   0.405   3.928 -0.6104  1.0305  0.0222
21550SOL    HW169497   5.539   0.378   3.884  1.3364 -2.1125 -2.0150
21550SOL    HW269498   5.639   0.334   3.989  2.0637  0.0600 -1.7541
21551SOL     OW69499   6.862   1.958   3.818  0.9223  0.0066  0.3734
21551SOL    HW169500   6.913   1.950   3.899  0.8753 -0.9218  0.3149
21551SOL    HW269501   6.928   1.954   3.748  0.8892  0.0637  0.3392
21552SOL     OW69502   5.790   7.860   3.495 -0.4877 -0.3757 -0.0107
21552SOL    HW169503   5.855   7.832   3.431 -0.5687 -1.2788  0.2910
21552SOL    HW269504   5.839   7.913   3.558 -0.1270 -0.6873 -0.0265
21553SOL     OW69505   8.380   9.306   4.264 -0.7417 -0.5429 -0.7634
21553SOL    HW169506   8.424   9.222   4.250  0.5962 -0.1587  0.8255
21553SOL    HW269507   8.321   9.315   4.189  1.1475 -1.5617 -2.4553
21554SOL     OW69508   6.519   9.362   5.631  0.2675 -0.5919 -0.3227
21554SOL    HW169509   6.444   9.411   5.664  0.4857 -0.1959 -0.4070
21554SOL    HW269510   6.481   9.294   5.575 -0.4139 -3.3468  3.0901
21555SOL     OW69511   6.667   9.517   0.434 -0.5616 -0.8383 -0.1236
21555SOL    HW169512   6.670   9.457   0.360 -2.1796  0.6370 -1.4938
21555SOL    HW269513   6.584   9.499   0.477 -1.8927  1.4106 -1.5553
21556SOL     OW69514   8.529   7.860   2.696 -0.7395 -0.3872  0.3858
21556SOL    HW169515   8.451   7.887   2.648 -1.1262 -0.6658  0.8442
21556SOL    HW269516   8.546   7.933   2.756 -0.2731 -0.0514 -0.1474
21557SOL     OW69517   6.020   7.235   1.964 -0.0282 -1.0828 -0.0744
21557SOL    HW169518   6.045   7.325   1.984 -0.3790 -1.1496  0.6969
21557SOL    HW269519   5.954   7.243   1.895  0.3538 -0.7819 -0.4073
21558SOL     OW69520   5.111   1.778   2.701 -0.1805  0.1656  0.5870
21558SOL    HW169521   5.144   1.688   2.696 -0.5035 -0.0130  1.4338
21558SOL    HW269522   5.095   1.792   2.794 -1.3477  0.6473  0.3360
21559SOL     OW69523   5.392   8.704   3.586 -0.1255 -0.1841 -0.1695
21559SOL    HW169524   5.336   8.688   3.509  0.6765 -1.2953 -0.5474
21559SOL    HW269525   5.383   8.798   3.603 -1.8288 -0.2563 -0.4252
21560SOL     OW69526   2.598   9.792   2.187  0.1013  0.5702 -0.4883
21560SOL    HW169527   2.573   9.741   2.110  2.8085  0.2758 -1.2911
21560SOL    HW269528   2.636   9.872   2.151  2.1738  0.0713  0.4195
21561SOL     OW69529   7.627   8.280   3.200  0.4263 -0.2081 -0.0905
21561SOL    HW169530   7.583   8.364   3.207  0.5738 -0.1490  0.1454
21561SOL    HW269531   7.567   8.224   3.151  1.2441  0.6858 -2.2324
21562SOL     OW69532   5.378   9.576   3.890 -0.6943 -0.5914 -0.2925
21562SOL    HW169533   5.288   9.561   3.863 -0.7420  0.5569 -0.8266
21562SOL    HW269534   5.376   9.659   3.937  0.2814  0.1177 -1.4421
21563SOL     OW69535   5.269   7.243   1.099  0.2490 -0.0970  0.2955
21563SOL    HW169536   5.317   7.259   1.181  0.3972  0.4326  0.1065
21563SOL    HW269537   5.216   7.165   1.118  2.0523 -1.4144  0.1379
21564SOL     OW69538   5.582   8.888   5.008 -0.2037 -0.1617 -0.5247
21564SOL    HW169539   5.552   8.797   5.010 -0.0192 -0.2149  0.4352
21564SOL    HW269540   5.586   8.913   5.101 -2.8905  1.7313 -0.8259
21565SOL     OW69541   5.913   8.550   4.899 -0.2801 -0.3917  0.1633
21565SOL    HW169542   5.940   8.480   4.840 -1.2549 -1.0432  0.4779
21565SOL    HW269543   5.976   8.620   4.882 -0.6997 -0.4419 -1.8428
21566SOL     OW69544   5.935   7.138   1.550 -0.2728 -0.9444  0.1390
21566SOL    HW169545   5.889   7.072   1.603 -0.8317 -0.3011  0.4702
21566SOL    HW269546   5.985   7.189   1.613 -0.5473 -0.4933 -0.0022
21567SOL     OW69547   5.646   7.225   3.148  0.2038  0.3890  0.3525
21567SOL    HW169548   5.650   7.277   3.228  0.7605  0.9173 -0.0111
21567SOL    HW269549   5.735   7.192   3.136  0.0155 -0.0841  0.2025
21568SOL     OW69550   4.802   7.702   2.740  0.5575 -0.8640  0.0683
21568SOL    HW169551   4.825   7.635   2.676 -1.0918  0.5896 -2.2208
21568SOL    HW269552   4.880   7.713   2.794  1.2232 -3.7764 -0.1908
21569SOL     OW69553   7.555   9.098   1.269 -0.1754  0.2022 -0.0911
21569SOL    HW169554   7.537   9.174   1.214 -0.0148  0.1148 -0.2683
21569SOL    HW269555   7.549   9.131   1.359 -1.6068  0.0846 -0.1201
21570SOL     OW69556   4.524   8.775   3.383  0.2369  0.5048  1.3600
21570SOL    HW169557   4.555   8.857   3.421  0.5427  1.4573 -0.8181
21570SOL    HW269558   4.603   8.722   3.371  0.7031  1.6364 -1.1512
21571SOL     OW69559   6.060   9.691   4.399  0.8297 -0.4159 -0.1754
21571SOL    HW169560   6.037   9.621   4.460  1.0974 -1.7467 -1.5604
21571SOL    HW269561   5.985   9.696   4.340  0.5680  0.8725  0.2341
21572SOL     OW69562   6.334   7.370   3.600 -0.4763  0.4552 -0.4452
21572SOL    HW169563   6.264   7.356   3.536 -1.5602  2.5253  0.1894
21572SOL    HW269564   6.349   7.283   3.639 -3.0296  0.0198 -0.2773
21573SOL     OW69565   2.492   7.724   4.269  0.0533 -0.9619 -0.0926
21573SOL    HW169566   2.465   7.656   4.331  1.5110 -0.4640  1.1388
21573SOL    HW269567   2.523   7.796   4.324 -0.0981  0.1315 -1.3972
21574SOL     OW69568   5.865   8.315   3.918 -0.5373 -0.6043  0.2794
21574SOL    HW169569   5.920   8.300   3.841  0.2704  2.1065  0.2400
21574SOL    HW269570   5.926   8.340   3.987 -1.5903  1.6568  0.4595
21575SOL     OW69571   7.621   6.582   4.205  0.6736  0.1053 -0.3709
21575SOL    HW169572   7.665   6.585   4.290 -0.8376 -0.0926  0.4717
21575SOL    HW269573   7.615   6.674   4.178 -2.5007  0.7145  1.8190
21576SOL     OW69574   6.518   9.503   1.900  0.5694 -0.1296 -0.1480
21576SOL    HW169575   6.517   9.598   1.891 -1.8096  0.0056  0.8810
21576SOL    HW269576   6.603   9.484   1.940  1.3830  1.4661 -1.0132
21577SOL     OW69577   5.946   8.430   3.144  0.3857 -0.5167  0.0697
21577SOL    HW169578   6.032   8.411   3.183  1.5768 -0.3760 -2.3190
21577SOL    HW269579   5.895   8.350   3.160 -0.0426  0.2930  3.7473
21578SOL     OW69580   7.737   9.701   4.314 -0.0448 -0.3669 -0.1592
21578SOL    HW169581   7.646   9.703   4.285 -0.4938 -1.1539  1.0772
21578SOL    HW269582   7.751   9.610   4.340  0.4289  0.1543  1.5830
21579SOL     OW69583   5.544   9.470   2.105  0.3376 -0.2856  0.1638
21579SOL    HW169584   5.499   9.439   2.026  0.0193  1.4601 -0.3896
21579SOL    HW269585   5.483   9.533   2.144  1.6301  0.9509  0.2594
21580SOL     OW69586   7.429   8.818   3.019 -0.1196 -0.7466  0.6633
21580SOL    HW169587   7.514   8.777   3.033 -0.4632 -2.2058 -1.1121
21580SOL    HW269588   7.443   8.879   2.947  0.2121  1.8875  2.8035
21581SOL     OW69589   5.967   8.045   5.211 -0.3226 -0.3318  0.1503
21581SOL    HW169590   5.964   8.126   5.161  1.6705 -0.3868 -0.1294
21581SOL    HW269591   6.034   8.060   5.278  0.9931 -2.1565 -0.6852
21582SOL     OW69592   4.552   8.292   2.317 -0.1290 -0.0400  0.2922
21582SOL    HW169593   4.583   8.237   2.245  2.9376  0.9029  0.7761
21582SOL    HW269594   4.481   8.241   2.357  1.1505 -2.6537 -0.5697
21583SOL     OW69595   6.941   5.828   1.906 -0.1185 -0.0300 -0.1221
21583SOL    HW169596   6.871   5.879   1.946 -0.5529 -0.6589 -0.0538
21583SOL    HW269597   7.021   5.859   1.947 -0.2741  1.2095 -0.7177
21584SOL     OW69598   6.209   9.314   2.595 -0.1451  0.2958  0.3572
21584SOL    HW169599   6.187   9.311   2.502  0.3133  2.8636  0.0902
21584SOL    HW269600   6.215   9.407   2.615  2.3782 -0.1936  2.3411
21585SOL     OW69601   4.823   7.580   1.476  1.1012  0.9420 -0.5001
21585SOL    HW169602   4.868   7.619   1.551 -0.5698  2.3777 -0.1887
21585SOL    HW269603   4.788   7.498   1.509  2.0687  0.6001 -0.2970
21586SOL     OW69604   5.335   9.809   2.388 -0.2552  0.2377 -0.1789
21586SOL    HW169605   5.289   9.761   2.457 -0.1384  1.1443  0.5525
21586SOL    HW269606   5.426   9.779   2.395  0.0228  1.2572  0.9415
21587SOL     OW69607   9.091   6.122   2.163 -0.8944  0.4810 -0.1146
21587SOL    HW169608   9.072   6.189   2.229 -0.2884  1.2556 -0.7091
21587SOL    HW269609   9.158   6.162   2.107  1.8535 -1.7356  1.3505
21588SOL     OW69610   7.073   0.267   9.624  0.2909  0.4835  0.1525
21588SOL    HW169611   7.032   0.346   9.588  1.2179  0.7535 -0.3521
21588SOL    HW269612   7.116   0.226   9.549 -1.5231 -1.4038  0.0650
21589SOL     OW69613   5.111   8.763   0.800 -0.0476  0.1733  0.6304
21589SOL    HW169614   5.185   8.789   0.745 -0.7353  0.5334 -0.1441
21589SOL    HW269615   5.113   8.667   0.800 -0.4982  0.1379 -0.6989
21590SOL     OW69616   5.593   3.146   5.451  0.8947 -0.2118  0.0325
21590SOL    HW169617   5.621   3.137   5.542 -1.8297 -1.1647  0.8788
21590SOL    HW269618   5.582   3.056   5.420  1.3434  0.1043 -1.1064
21591SOL     OW69619   5.130   8.593   4.300 -0.3561  0.7664 -0.5310
21591SOL    HW169620   5.121   8.599   4.205  0.3459  1.6121 -0.5606
21591SOL    HW269621   5.041   8.576   4.331 -0.7669  1.4551 -1.2791
21592SOL     OW69622   6.120   8.250   3.510  0.0589  0.2074  0.1005
21592SOL    HW169623   6.204   8.263   3.554  0.3001  0.5948 -0.4606
21592SOL    HW269624   6.115   8.155   3.496 -0.7993 -0.1480  2.4309
21593SOL     OW69625   5.847   0.870   3.673 -0.2620  0.3818 -0.2868
21593SOL    HW169626   5.833   0.965   3.670  0.3513  0.4543 -1.4802
21593SOL    HW269627   5.857   0.845   3.581  0.8781 -0.6313  0.0889
21594SOL     OW69628   5.182   8.724   2.250  0.0508 -0.3664  0.1245
21594SOL    HW169629   5.176   8.700   2.342  0.6000 -0.9412  0.0199
21594SOL    HW269630   5.223   8.649   2.208  1.2154  0.4758 -0.3277
21595SOL     OW69631   8.697   9.782   3.708  0.3362  0.4921 -0.3752
21595SOL    HW169632   8.691   9.799   3.614  0.7446  1.7407 -0.1955
21595SOL    HW269633   8.772   9.724   3.717 -1.3170 -1.8736 -1.0524
21596SOL     OW69634   8.060   8.712   1.241  0.5086  0.2681  0.5167
21596SOL    HW169635   8.115   8.652   1.291  0.3629  0.7145  1.2203
21596SOL    HW269636   8.114   8.790   1.229 -0.5352  1.4182  2.7434
21597SOL     OW69637   8.974   8.474   3.217 -0.1877  0.3861  0.0878
21597SOL    HW169638   9.011   8.549   3.171  0.3433  1.2054  1.7637
21597SOL    HW269639   9.048   8.416   3.234 -0.8860 -1.7419 -3.1469
21598SOL     OW69640   5.383   7.505   3.981 -0.4914  0.2971 -0.2385
21598SOL    HW169641   5.287   7.506   3.991 -0.6465  2.3253 -1.4239
21598SOL    HW269642   5.401   7.420   3.940 -1.8052 -0.0662 -0.1090
21599SOL     OW69643   5.628   9.124   0.046  0.2883  0.0269  0.2494
21599SOL    HW169644   5.640   9.030   0.031 -1.2162 -0.3149  1.0618
21599SOL    HW269645   5.643   9.163  -0.040 -0.7288 -1.1366 -0.4907
21600SOL     OW69646   7.314   9.773   5.646  0.1954  0.2784 -0.2936
21600SOL    HW169647   7.339   9.707   5.581  0.2696 -0.3640  0.3842
21600SOL    HW269648   7.245   9.731   5.698 -2.6955  2.0643 -2.3141
21601SOL     OW69649   6.058   7.530   2.019 -0.2525 -0.3339  0.3290
21601SOL    HW169650   6.075   7.620   1.991  0.2348 -0.6853 -0.5591
21601SOL    HW269651   6.086   7.528   2.111 -1.5688  0.7613  0.7771
21602SOL     OW69652   6.639   0.308   3.849 -0.4266  0.1542 -0.2032
21602SOL    HW169653   6.594   0.227   3.872 -1.4981  0.3248 -1.6057
21602SOL    HW269654   6.668   0.344   3.933 -2.5097 -0.1960  0.7162
21603SOL     OW69655   8.533   9.275   5.002  0.3523 -0.2390 -0.1928
21603SOL    HW169656   8.483   9.315   5.073 -1.7484 -0.4697 -1.4506
21603SOL    HW269657   8.613   9.243   5.044 -0.4424  0.3216  1.8931
21604SOL     OW69658   8.748   8.703   3.330 -0.1264 -0.2856 -0.1076
21604SOL    HW169659   8.760   8.796   3.346 -0.5133  0.0380 -1.5825
21604SOL    HW269660   8.826   8.662   3.368  1.0030  0.8331 -1.1464
21605SOL     OW69661   5.604   0.771   3.756  0.4549  0.2763  0.3876
21605SOL    HW169662   5.674   0.834   3.742  1.9050 -0.6809  2.6417
21605SOL    HW269663   5.634   0.692   3.711  0.1339  0.2716  0.1799
21606SOL     OW69664   3.576   9.588   1.802 -0.1404 -0.6364 -0.2071
21606SOL    HW169665   3.505   9.568   1.864  0.4086  0.5399  0.8377
21606SOL    HW269666   3.631   9.511   1.803 -0.8082 -1.1261 -0.1898
21607SOL     OW69667   5.595   0.686   1.294 -0.1391 -0.3693 -0.2922
21607SOL    HW169668   5.683   0.667   1.261 -0.0011  0.1359 -0.2252
21607SOL    HW269669   5.550   0.727   1.220 -0.3698 -0.7799 -0.3777
21608SOL     OW69670   7.364   9.102   3.947 -0.2489  0.2274 -0.4741
21608SOL    HW169671   7.271   9.102   3.970 -0.6844  1.6522 -2.0174
21608SOL    HW269672   7.367   9.136   3.858  1.6333 -1.5261 -1.1695
21609SOL     OW69673   9.031   9.209   2.015 -0.4231 -0.0995  0.6570
21609SOL    HW169674   8.970   9.209   1.941 -1.3398 -0.2347  1.3926
21609SOL    HW269675   9.104   9.154   1.986 -1.8063 -2.0202  0.6671
21610SOL     OW69676   6.226   9.004   3.069 -0.6479  0.3889  0.0094
21610SOL    HW169677   6.274   9.079   3.032 -0.5874  0.6227  0.5471
21610SOL    HW269678   6.286   8.967   3.133 -0.4306 -0.5199 -0.7054
21611SOL     OW69679   6.083   2.577   5.605 -0.1192  0.4311  0.3196
21611SOL    HW169680   6.097   2.535   5.520  0.8911  0.1554  0.6025
21611SOL    HW269681   6.031   2.655   5.585  0.3873  0.5484 -0.6088
21612SOL     OW69682   5.743   0.172   3.178  0.3424 -0.0086  0.4916
21612SOL    HW169683   5.774   0.082   3.192  0.4160 -0.0003  0.3860
21612SOL    HW269684   5.736   0.180   3.082 -1.9928 -0.6912  0.5348
21613SOL     OW69685   5.180   7.372   3.652 -0.2988 -0.2831  0.3422
21613SOL    HW169686   5.143   7.416   3.576 -0.9845 -0.4311  0.5867
21613SOL    HW269687   5.106   7.360   3.712 -0.0706 -1.5111  0.4029
21614SOL     OW69688   5.189   0.785   1.340 -0.4140 -0.0541  1.0595
21614SOL    HW169689   5.240   0.862   1.366  1.5314 -0.3998 -1.3687
21614SOL    HW269690   5.165   0.801   1.249 -2.0814 -1.3053  1.2199
21615SOL     OW69691   9.019   0.381   2.940  0.2461 -0.2060  0.1953
21615SOL    HW169692   8.980   0.297   2.913 -0.5081  0.9074 -2.4963
21615SOL    HW269693   8.984   0.397   3.027 -3.4820 -0.4702 -1.0983
21616SOL     OW69694   7.658   8.111   1.758  0.6297 -0.0416 -0.2325
21616SOL    HW169695   7.710   8.184   1.724 -0.2794  1.2119  0.9330
21616SOL    HW269696   7.691   8.034   1.712  0.1955  1.3471 -3.1257
21617SOL     OW69697   7.550   0.039   1.949 -0.3647  0.4976 -0.4911
21617SOL    HW169698   7.639   0.071   1.936  1.0184 -2.5621  0.5799
21617SOL    HW269699   7.541  -0.032   1.885 -1.1361 -0.7820  0.9906
21618SOL     OW69700   5.612   9.601   1.251  0.0831  0.3509 -0.4170
21618SOL    HW169701   5.583   9.582   1.162  2.3387  0.0976 -1.1806
21618SOL    HW269702   5.618   9.696   1.255 -0.3625  0.3781 -0.4270
21619SOL     OW69703   7.592   8.235   2.370  0.6771 -0.0500  0.0383
21619SOL    HW169704   7.530   8.276   2.310  2.9841  2.4498 -0.8813
21619SOL    HW269705   7.678   8.257   2.333  2.1768 -0.4859  2.9924
21620SOL     OW69706   6.161   9.294   1.050 -0.3112 -0.0695  0.0753
21620SOL    HW169707   6.101   9.234   1.094  0.8990 -1.0602  0.4466
21620SOL    HW269708   6.247   9.254   1.061  0.4936  1.5404 -0.0367
21621SOL     OW69709   7.649   7.489   2.378  0.3830  0.5370  0.2847
21621SOL    HW169710   7.590   7.500   2.452 -0.0419 -2.2535  0.4707
21621SOL    HW269711   7.737   7.488   2.417  0.2237  0.0721  0.6437
21622SOL     OW69712   3.520   7.114   2.887 -0.2446  0.4202 -0.1230
21622SOL    HW169713   3.536   7.066   2.968 -0.2831 -0.0559 -0.3937
21622SOL    HW269714   3.599   7.167   2.874 -0.0773  0.2047  0.0211
21623SOL     OW69715   6.087   9.762   0.356 -0.3117 -0.0616  0.7626
21623SOL    HW169716   6.161   9.821   0.370 -1.1606  0.8797  1.4569
21623SOL    HW269717   6.124   9.688   0.309  0.5449  1.6325 -1.4075
21624SOL     OW69718   6.473   6.388   4.774  0.8330 -1.0812  0.4513
21624SOL    HW169719   6.396   6.419   4.822  1.8349  0.7314  0.9829
21624SOL    HW269720   6.495   6.305   4.816 -1.0245 -1.8417  0.0395
21625SOL     OW69721   7.776   9.070   1.862 -0.9732  0.0127  0.5756
21625SOL    HW169722   7.732   9.146   1.897 -1.3426 -0.3944  0.9990
21625SOL    HW269723   7.804   9.096   1.774  1.8087  1.7845  1.8391
21626SOL     OW69724   3.537   8.274   3.909 -0.2976  0.3349 -0.6488
21626SOL    HW169725   3.590   8.256   3.987 -2.6507  0.1261  1.0177
21626SOL    HW269726   3.545   8.368   3.896  0.8617  0.2343 -0.7563
21627SOL     OW69727   5.510   9.071   2.287  0.4626 -0.7505 -0.1380
21627SOL    HW169728   5.532   8.997   2.344  0.6518  0.3355  1.2494
21627SOL    HW269729   5.590   9.086   2.236  0.1724 -1.9597 -1.0222
21628SOL     OW69730   5.937   9.847   3.012  0.1900 -0.0729  0.4135
21628SOL    HW169731   5.887   9.765   3.005  0.6336 -0.2432 -0.9045
21628SOL    HW269732   6.008   9.837   2.950  0.7060  1.0083  0.8173
21629SOL     OW69733   6.405   5.243   3.460  0.0265 -0.4003  0.3888
21629SOL    HW169734   6.483   5.190   3.447  0.1690 -0.1398  0.1656
21629SOL    HW269735   6.332   5.184   3.439  0.2310 -0.0397 -1.5771
21630SOL     OW69736   6.165   8.686   4.628  0.1209 -0.1245 -0.3227
21630SOL    HW169737   6.137   8.707   4.717 -0.6716  2.0261 -1.0242
21630SOL    HW269738   6.248   8.640   4.639  0.1561  0.3074  1.4959
21631SOL     OW69739   6.369   9.095   0.978  0.2081  0.1907 -0.4463
21631SOL    HW169740   6.440   9.156   0.960  0.2410  0.4274  0.4191
21631SOL    HW269741   6.413   9.013   1.000  0.3069  0.6550  1.3072
21632SOL     OW69742   5.707   8.880   0.143 -0.2758  0.0626  0.3179
21632SOL    HW169743   5.633   8.926   0.182  0.2392  2.2668 -1.1216
21632SOL    HW269744   5.677   8.789   0.133 -1.6120  0.1986  2.5658
21633SOL     OW69745   5.250   9.125   2.287  0.0520 -0.4858 -0.6768
21633SOL    HW169746   5.344   9.138   2.273 -0.3838  1.0385 -2.5508
21633SOL    HW269747   5.211   9.132   2.200 -1.8033 -1.2653  0.0360
21634SOL     OW69748   5.549   9.856   3.827  0.0442 -0.0285  0.7308
21634SOL    HW169749   5.565   9.793   3.757 -0.5512  0.4930  0.1101
21634SOL    HW269750   5.497   9.808   3.891  0.6361 -0.5243  0.8485
21635SOL     OW69751   6.951   7.046   3.884  0.0357  0.1023 -0.0063
21635SOL    HW169752   6.937   7.017   3.794 -1.0181 -2.0865  0.7979
21635SOL    HW269753   7.042   7.077   3.886 -0.0716  0.6331 -1.9034
21636SOL     OW69754   5.549   8.565   2.629  0.3171  0.0457 -0.3499
21636SOL    HW169755   5.633   8.549   2.586  0.2481 -0.0579 -0.4476
21636SOL    HW269756   5.563   8.538   2.720  0.3697 -0.0389 -0.3829
21637SOL     OW69757   7.355   0.475   4.920 -0.2346  0.2857  0.3914
21637SOL    HW169758   7.343   0.396   4.867  2.3391 -0.0225  0.1536
21637SOL    HW269759   7.296   0.463   4.995 -1.4900 -0.8121 -0.7178
21638SOL     OW69760   4.311   1.850   2.306 -0.0526  0.3928  0.3851
21638SOL    HW169761   4.337   1.849   2.398  0.9840 -1.9945  0.1303
21638SOL    HW269762   4.377   1.904   2.263 -0.2653  1.1216  0.9428
21639SOL     OW69763   9.062   7.845   3.741  0.0930 -0.3801 -0.1508
21639SOL    HW169764   9.081   7.923   3.688  1.5559  0.8773  2.0685
21639SOL    HW269765   9.030   7.880   3.824 -0.4178 -2.2177  0.4758
21640SOL     OW69766   7.786   6.287   0.299  0.7502 -0.2926  0.4423
21640SOL    HW169767   7.851   6.356   0.290 -0.1509  0.3743 -1.4648
21640SOL    HW269768   7.754   6.296   0.389 -0.2283  2.6219 -0.0888
21641SOL     OW69769   7.913   8.321   5.780 -0.0524  0.0111 -0.5915
21641SOL    HW169770   7.968   8.268   5.837 -0.2647 -0.3613 -0.7285
21641SOL    HW269771   7.925   8.410   5.811 -0.3051 -0.2021  0.1569
21642SOL     OW69772   8.020   6.427   6.889  0.5594 -0.4338 -0.5196
21642SOL    HW169773   8.112   6.431   6.917  0.6852  1.1065 -1.0477
21642SOL    HW269774   7.986   6.514   6.908 -0.2710 -0.3811 -2.0852
21643SOL     OW69775   6.498   0.020   3.917 -0.0749 -0.4712  0.4280
21643SOL    HW169776   6.477   0.066   3.998 -0.6849 -0.6921  0.3997
21643SOL    HW269777   6.579  -0.028   3.936  1.3056  1.5503  0.0923
21644SOL     OW69778   4.839   9.632   4.393 -0.2714 -0.2398 -0.1302
21644SOL    HW169779   4.834   9.654   4.486 -0.8347  1.1137 -0.4655
21644SOL    HW269780   4.778   9.692   4.350 -0.8443 -1.5645 -1.2614
21645SOL     OW69781   5.315   9.068   1.110 -0.8763 -0.2348  0.2114
21645SOL    HW169782   5.290   9.021   1.190 -0.5369 -2.1062 -0.7528
21645SOL    HW269783   5.347   9.153   1.142 -2.9194 -0.0029  1.8943
21646SOL     OW69784   7.953   7.569   0.775  0.3055  0.5350  0.3275
21646SOL    HW169785   7.858   7.554   0.772  0.6243 -1.7684 -0.3789
21646SOL    HW269786   7.980   7.570   0.683  0.8719  2.2871  0.4677
21647SOL     OW69787   6.346   9.493   0.874  0.2370  0.3060  0.0026
21647SOL    HW169788   6.358   9.451   0.959 -1.2577  1.1560  0.6772
21647SOL    HW269789   6.435   9.516   0.846  0.8585 -1.0640  0.7483
21648SOL     OW69790   5.674   8.216   4.239 -0.5822 -0.0546 -0.2354
21648SOL    HW169791   5.756   8.264   4.255 -0.4591 -0.6286  0.9913
21648SOL    HW269792   5.673   8.202   4.145 -0.2129  1.6172 -0.5290
21649SOL     OW69793   5.920   8.550   2.886 -0.7142 -1.2635  0.6116
21649SOL    HW169794   5.848   8.610   2.865  0.3753 -0.2559 -0.3511
21649SOL    HW269795   5.921   8.545   2.982 -1.4908 -0.5920  0.6580
21650SOL     OW69796   3.837   4.689   3.909  0.4561  0.0715 -0.0213
21650SOL    HW169797   3.788   4.611   3.882  0.3111  0.2473 -0.2684
21650SOL    HW269798   3.918   4.654   3.945  0.9090 -0.1511 -1.2060
21651SOL     OW69799   5.317   9.016   3.542  0.1107  0.1057 -0.2116
21651SOL    HW169800   5.360   8.980   3.464 -1.4545  0.4764 -1.2855
21651SOL    HW269801   5.390   9.040   3.600  1.2898 -1.2789 -1.0296
21652SOL     OW69802   7.024   8.634   2.316  0.4858 -0.1686  0.2190
21652SOL    HW169803   7.076   8.607   2.240 -2.9901 -1.7070 -1.8923
21652SOL    HW269804   7.006   8.726   2.302  0.6512 -0.2151 -0.3152
21653SOL     OW69805   8.125   8.971   1.783 -0.4549  0.3167  0.2004
21653SOL    HW169806   8.200   9.006   1.736  1.5623 -2.2784  1.2578
21653SOL    HW269807   8.098   9.042   1.842  0.0952  1.8430 -1.3273
21654SOL     OW69808   7.217   7.831   3.456  0.2688  0.3684  0.5341
21654SOL    HW169809   7.135   7.879   3.446 -0.7591 -1.5724 -0.7353
21654SOL    HW269810   7.225   7.817   3.551 -1.4052 -0.2914  0.6130
21655SOL     OW69811   8.155   7.708   0.986  0.1253 -0.4764 -0.0534
21655SOL    HW169812   8.188   7.788   0.946 -2.6288  0.9022  0.1544
21655SOL    HW269813   8.094   7.672   0.921  0.5475 -1.8559  0.2748
21656SOL     OW69814   7.840   8.350   3.762 -0.2778 -0.2080  0.0014
21656SOL    HW169815   7.806   8.362   3.674  0.4614  0.3973 -0.2090
21656SOL    HW269816   7.784   8.404   3.817  0.6889  1.3187 -0.4332
21657SOL     OW69817   4.841   6.664   2.666  0.2924 -0.4373  0.0550
21657SOL    HW169818   4.853   6.569   2.679  0.4568 -0.7817 -2.2166
21657SOL    HW269819   4.759   6.684   2.711  1.0121 -1.3234  1.8709
21658SOL     OW69820   5.268   9.662   2.628 -0.2191  0.1566  0.2642
21658SOL    HW169821   5.328   9.591   2.652  1.0897  0.6795 -1.2745
21658SOL    HW269822   5.181   9.628   2.651  0.3981 -1.7681 -0.0027
21659SOL     OW69823   6.552   8.170   2.526  0.3754 -0.0475 -0.0475
21659SOL    HW169824   6.518   8.209   2.607  0.5547 -0.2719  0.1356
21659SOL    HW269825   6.601   8.093   2.555  1.9718  0.8774 -0.2135
21660SOL     OW69826   7.490   7.895   2.892  0.4785  0.5330  0.0588
21660SOL    HW169827   7.447   7.889   2.807  1.0872  1.2858 -0.3187
21660SOL    HW269828   7.429   7.854   2.954 -0.7474  1.5509 -0.4561
21661SOL     OW69829   8.948   7.410   3.152 -0.0286  0.0488 -0.1632
21661SOL    HW169830   8.908   7.357   3.221 -1.0554  0.1036 -0.7094
21661SOL    HW269831   8.930   7.500   3.178 -0.5619  0.0669 -0.5749
21662SOL     OW69832   7.791   6.963   1.275  0.3073 -0.7808 -0.2012
21662SOL    HW169833   7.823   6.881   1.312  1.7220 -0.6127 -0.9637
21662SOL    HW269834   7.846   6.978   1.198  1.2478  1.7234  0.8469
21663SOL     OW69835   7.403   8.070   1.699  0.2868 -0.0063  0.2125
21663SOL    HW169836   7.484   8.086   1.747 -0.3473 -0.6713  1.5516
21663SOL    HW269837   7.389   8.149   1.647  0.5633  1.0862  1.7601
21664SOL     OW69838   6.175   8.968   0.249 -0.3331 -0.1901  0.2071
21664SOL    HW169839   6.134   9.042   0.206  0.6803  0.5191  0.4394
21664SOL    HW269840   6.261   8.999   0.276  0.5441 -1.7635 -0.6335
21665SOL     OW69841   3.787   7.457   4.103 -0.0296 -0.2553  0.4069
21665SOL    HW169842   3.734   7.413   4.036  0.9318 -1.1760  0.2241
21665SOL    HW269843   3.764   7.549   4.095 -1.1881 -0.5700 -0.0400
21666SOL     OW69844   5.689   9.250   2.166  0.5553 -0.5993 -0.1701
21666SOL    HW169845   5.639   9.331   2.168  2.9901  0.9909  0.3243
21666SOL    HW269846   5.716   9.240   2.075  1.9124  0.3044  0.0950
21667SOL     OW69847   6.988   9.402   4.982 -0.8631 -0.0270 -0.0120
21667SOL    HW169848   6.915   9.340   4.976 -1.6317  0.6791  1.4643
21667SOL    HW269849   6.980   9.458   4.905 -1.8793  0.0233  0.1228
21668SOL     OW69850   5.804   7.544   1.952 -0.6526  0.8053  0.5345
21668SOL    HW169851   5.818   7.621   1.897  1.2696  0.6784  0.7756
21668SOL    HW269852   5.891   7.523   1.985 -0.9279 -2.0891 -0.3434
21669SOL     OW69853   4.927   7.550   4.082  0.1461  0.0648  0.1712
21669SOL    HW169854   4.865   7.510   4.021 -1.3338  2.0659  0.2807
21669SOL    HW269855   4.950   7.634   4.042  0.9771  0.3844  1.2584
21670SOL     OW69856   4.529   6.285   4.105  0.3959  0.0332 -0.0465
21670SOL    HW169857   4.619   6.300   4.132  1.2271  0.1680 -2.5917
21670SOL    HW269858   4.516   6.190   4.115  0.5431  0.1223  1.0513
21671SOL     OW69859   7.886   9.834   6.400 -0.1794 -0.3835 -0.3988
21671SOL    HW169860   7.914   9.835   6.308 -0.2601 -0.2876 -0.4208
21671SOL    HW269861   7.950   9.888   6.445  1.5160 -2.6075  0.0596
21672SOL     OW69862   7.884   8.712   5.421 -0.0356 -0.6859  0.3439
21672SOL    HW169863   7.888   8.807   5.427  1.6156 -0.5395 -1.7948
21672SOL    HW269864   7.796   8.690   5.449 -0.4794  1.4763  0.8396
21673SOL     OW69865   7.137   0.433   4.738 -0.3298  0.1934 -0.1170
21673SOL    HW169866   7.091   0.508   4.774 -0.7723 -0.3853  0.5646
21673SOL    HW269867   7.166   0.461   4.651  0.0284  1.3421  0.3570
21674SOL     OW69868   5.382   8.953   3.027  0.1952  0.3739  0.5325
21674SOL    HW169869   5.308   8.915   3.076  0.1998  0.2631  0.4516
21674SOL    HW269870   5.389   8.900   2.948  0.0155  0.7227  0.2796
21675SOL     OW69871   6.988   0.104   5.876 -0.2299  0.1332 -0.3420
21675SOL    HW169872   6.903   0.061   5.885 -0.0020 -0.0406  1.3592
21675SOL    HW269873   6.987   0.143   5.789 -2.0305  0.0834 -0.3703
21676SOL     OW69874   6.245   9.569   5.073  0.4014  0.3377 -0.0848
21676SOL    HW169875   6.232   9.659   5.101  1.8557  2.1817 -4.5567
21676SOL    HW269876   6.167   9.523   5.105 -0.9201  3.3515  1.4614
21677SOL     OW69877   7.836   9.587   5.158 -0.4086 -0.0807  0.0650
21677SOL    HW169878   7.879   9.533   5.092  0.4042 -0.9553  1.2669
21677SOL    HW269879   7.901   9.654   5.179 -0.7589  0.3402 -0.2039
21678SOL     OW69880   5.804   8.719   4.363 -0.0881  0.0108  0.0170
21678SOL    HW169881   5.791   8.632   4.401  1.7830  0.1658  1.1512
21678SOL    HW269882   5.878   8.708   4.303 -1.0527  0.4440 -1.3072
21679SOL     OW69883   4.818   8.744   5.086  0.5626 -0.3036 -0.3750
21679SOL    HW169884   4.888   8.810   5.087 -0.0303  0.3324  0.4176
21679SOL    HW269885   4.752   8.780   5.027  1.5809 -1.6755 -2.4695
21680SOL     OW69886   7.183   7.278   5.452 -0.5726 -0.0184  0.0049
21680SOL    HW169887   7.164   7.274   5.545 -1.1676 -1.2446 -0.1499
21680SOL    HW269888   7.259   7.222   5.440 -1.1063 -0.6703 -0.3834
21681SOL     OW69889   9.455   6.978   6.277 -0.3405  0.1490  0.4544
21681SOL    HW169890   9.528   6.930   6.316  0.9686  1.7957  0.1685
21681SOL    HW269891   9.399   7.001   6.352  1.8412  2.7669  1.4477
21682SOL     OW69892   8.493   6.208   5.099 -0.3728  0.4987  0.0315
21682SOL    HW169893   8.451   6.286   5.061 -0.8986  1.5694  2.6035
21682SOL    HW269894   8.559   6.244   5.158  0.7616 -1.1073 -0.2143
21683SOL     OW69895   7.424   2.924   2.785  0.0734  0.4825  0.3735
21683SOL    HW169896   7.505   2.960   2.747 -0.6046  0.8331 -0.7716
21683SOL    HW269897   7.387   2.870   2.716 -1.4073  1.4749  0.3506
21684SOL     OW69898   4.221   9.851   4.500  0.5113  0.3222 -0.4126
21684SOL    HW169899   4.304   9.892   4.476  0.1318  2.0091  0.9481
21684SOL    HW269900   4.236   9.817   4.588  0.0034 -0.0797 -0.4774
21685SOL     OW69901   7.057   8.983   2.690  0.9912  0.0907 -1.0380
21685SOL    HW169902   7.075   9.073   2.663  5.1269  0.1479  1.0723
21685SOL    HW269903   7.070   8.983   2.785 -0.9254 -2.3859 -0.6588
21686SOL     OW69904   5.433   1.875   2.096  0.0327 -0.3086 -0.3040
21686SOL    HW169905   5.521   1.855   2.064  0.4385  0.0470  0.5679
21686SOL    HW269906   5.447   1.936   2.169 -0.8609 -1.2005  0.6422
21687SOL     OW69907   6.691   6.911   5.893  0.1186 -0.1069 -0.0053
21687SOL    HW169908   6.646   6.849   5.836 -0.0244  0.6005 -0.6711
21687SOL    HW269909   6.639   6.911   5.973  0.4610 -1.2909  0.2487
21688SOL     OW69910   8.708   8.415   3.031 -0.5086  0.6347 -0.6087
21688SOL    HW169911   8.696   8.327   2.996 -0.1677  1.2969 -2.5120
21688SOL    HW269912   8.783   8.450   2.982  2.2041  0.5501  3.0383
21689SOL     OW69913   5.764   8.068   3.973 -0.0171  0.0698 -0.0209
21689SOL    HW169914   5.836   8.123   3.944  1.1071 -1.3135  0.0244
21689SOL    HW269915   5.720   8.042   3.892  0.0539  0.2347 -0.1127
21690SOL     OW69916   7.445   7.391   2.573 -0.5427  0.1637  0.3305
21690SOL    HW169917   7.472   7.343   2.652  0.0822 -0.3449 -0.1792
21690SOL    HW269918   7.371   7.341   2.539 -1.0644  0.6032  0.8003
21691SOL     OW69919   6.487   9.515   3.764 -0.0442  0.3396  0.6798
21691SOL    HW169920   6.421   9.449   3.786  0.4930 -0.3012  0.4125
21691SOL    HW269921   6.444   9.571   3.699 -0.9188  0.9929  1.7636
21692SOL     OW69922   7.974   6.423   3.753 -0.3904 -0.1053  0.2715
21692SOL    HW169923   8.026   6.457   3.680 -1.6395  0.4519 -0.4065
21692SOL    HW269924   7.986   6.329   3.750  1.1390  0.0631  0.5919
21693SOL     OW69925   5.149   7.559   7.478  0.1488 -0.2861  0.1770
21693SOL    HW169926   5.085   7.511   7.425 -0.0104  0.5692 -0.4346
21693SOL    HW269927   5.184   7.625   7.418 -0.0665  0.7375  1.1594
21694SOL     OW69928   8.311   9.036   5.917 -0.0639  0.3699 -0.5965
21694SOL    HW169929   8.393   8.995   5.890  0.1957  0.8999 -0.6296
21694SOL    HW269930   8.301   9.111   5.859 -0.0343  0.9180  0.0872
21695SOL     OW69931   5.364   7.485   6.515 -0.3005 -0.8701 -0.3302
21695SOL    HW169932   5.329   7.407   6.558  0.3427 -0.6612  0.6191
21695SOL    HW269933   5.431   7.452   6.456 -0.8439 -1.1231 -0.8141
21696SOL     OW69934   8.595   0.173   4.641 -0.5553 -0.4534  0.5433
21696SOL    HW169935   8.585   0.134   4.555 -0.8053 -1.0838  0.8510
21696SOL    HW269936   8.574   0.266   4.628  1.6500 -0.0422 -0.5327
21697SOL     OW69937   7.436   7.544   4.519 -0.1984  0.1311  0.0001
21697SOL    HW169938   7.491   7.523   4.595  0.0155  0.3183 -0.0999
21697SOL    HW269939   7.465   7.632   4.493  0.0214 -0.0987 -0.5457
21698SOL     OW69940   7.771   1.254   3.510 -0.1445  0.1917  0.4056
21698SOL    HW169941   7.817   1.329   3.472 -0.7288  0.0954 -0.5370
21698SOL    HW269942   7.834   1.214   3.570  0.6445  0.6239 -0.1232
21699SOL     OW69943   6.890   6.969   6.428 -0.1670 -0.3023  0.1068
21699SOL    HW169944   6.947   6.967   6.505 -0.0441 -3.3360  0.0471
21699SOL    HW269945   6.811   7.013   6.458  0.2430 -0.5837  1.6795
21700SOL     OW69946   7.562   6.382   5.506 -0.4597 -0.1604 -0.2341
21700SOL    HW169947   7.590   6.455   5.561 -1.2656  1.1946 -1.5229
21700SOL    HW269948   7.639   6.359   5.454 -0.0313 -0.6508  0.6106
21701SOL     OW69949   6.371   7.486   2.778  0.0121  0.3529 -0.0029
21701SOL    HW169950   6.385   7.517   2.688  0.4471 -1.2608 -0.5071
21701SOL    HW269951   6.454   7.448   2.804  0.1650  1.5726  1.4378
21702SOL     OW69952   6.493   8.900   3.970  0.1560 -0.0063  0.7022
21702SOL    HW169953   6.415   8.955   3.966  0.7521  0.8223  0.1034
21702SOL    HW269954   6.514   8.895   4.064 -0.4806 -0.0686  0.8479
21703SOL     OW69955   7.517   9.557   5.840  0.7281  0.2180  0.0275
21703SOL    HW169956   7.512   9.573   5.746  5.9910  1.2306 -0.4282
21703SOL    HW269957   7.505   9.644   5.880  1.7042  0.4155 -0.0714
21704SOL     OW69958   5.285   9.018   4.013  0.0329  0.0515  0.5966
21704SOL    HW169959   5.269   9.080   3.942 -1.0062 -0.4549  0.3700
21704SOL    HW269960   5.324   8.942   3.971  0.3433  0.1366  0.7240
21705SOL     OW69961   6.110   7.475   0.485  0.7139 -0.0142 -0.4439
21705SOL    HW169962   6.139   7.405   0.544 -0.9100 -0.3146  0.0275
21705SOL    HW269963   6.021   7.452   0.462 -1.4304  3.7403  2.7971
21706SOL     OW69964   1.304   6.489   5.905  0.2589  0.2717  0.4239
21706SOL    HW169965   1.349   6.406   5.915 -1.5766 -0.7523  0.6496
21706SOL    HW269966   1.372   6.551   5.879  1.3981 -1.6407 -1.4318
21707SOL     OW69967   8.441   6.494   6.590  0.4742 -0.6424  0.2723
21707SOL    HW169968   8.376   6.553   6.627 -0.2783 -0.9429 -0.5449
21707SOL    HW269969   8.415   6.483   6.498  0.9434 -1.7556  0.2510
21708SOL     OW69970   5.154   6.584   5.071 -0.4232 -0.4614 -0.1548
21708SOL    HW169971   5.250   6.591   5.064 -0.5087  0.6961 -0.3531
21708SOL    HW269972   5.127   6.548   4.987 -0.1914 -0.3975 -0.2599
21709SOL     OW69973   8.065   7.772   4.479  0.1966  0.2043 -0.1287
21709SOL    HW169974   8.151   7.796   4.514  0.4077  1.0170 -1.1606
21709SOL    HW269975   8.073   7.782   4.384 -0.4676 -1.6049 -0.4222
21710SOL     OW69976   6.200   0.393   6.076  0.5604 -0.1420  0.6462
21710SOL    HW169977   6.146   0.383   6.155  0.6415  2.6553  1.1382
21710SOL    HW269978   6.141   0.370   6.005 -0.3765 -0.0412  1.3633
21711SOL     OW69979   8.020   7.056   6.166  0.4609 -0.2366  0.0467
21711SOL    HW169980   8.038   6.994   6.236  0.8913 -1.9502 -1.4884
21711SOL    HW269981   8.107   7.081   6.133  0.3049  1.3579  0.7404
21712SOL     OW69982   6.024   7.948   5.647 -0.1973 -0.0531 -0.0687
21712SOL    HW169983   6.020   8.012   5.576  0.2621  0.3879  0.3007
21712SOL    HW269984   6.022   8.000   5.727 -1.3319 -0.5713  0.2717
21713SOL     OW69985   6.082   6.627   5.540 -0.3987  0.1481 -0.1867
21713SOL    HW169986   6.172   6.626   5.573 -0.4310  2.3353  0.1222
21713SOL    HW269987   6.028   6.615   5.619 -0.4162 -1.5428 -0.4189
21714SOL     OW69988   5.121   8.594   5.519  0.4058 -0.2563  0.3743
21714SOL    HW169989   5.079   8.667   5.565  1.5393  0.5428  0.1645
21714SOL    HW269990   5.090   8.516   5.565 -0.1609  0.4030  1.1335
21715SOL     OW69991   7.182   7.903   4.084 -0.2568 -0.2900 -0.4089
21715SOL    HW169992   7.172   7.998   4.079 -0.5607 -0.2545  0.7131
21715SOL    HW269993   7.253   7.884   4.023  1.1502  0.8932  0.7744
21716SOL     OW69994   6.279   9.829   3.032  0.3822 -0.1861  0.2684
21716SOL    HW169995   6.193   9.786   3.038  1.3171 -2.2691 -0.4135
21716SOL    HW269996   6.321   9.788   2.957  2.1556  0.4701  0.8613
21717SOL     OW69997   4.633   7.882   4.347 -0.3966  0.3987 -0.2279
21717SOL    HW169998   4.573   7.895   4.274  0.3791  1.1007 -0.7670
21717SOL    HW269999   4.642   7.969   4.386  0.0864  0.2542 -0.0098
21718SOL     OW70000   6.946   8.154   2.621 -0.9356 -0.0242 -0.1443
21718SOL    HW170001   7.028   8.123   2.662 -1.8834 -0.3766  1.6143
21718SOL    HW270002   6.972   8.232   2.572  0.4747 -0.1439  0.3471
21719SOL     OW70003   7.609   1.154   2.670 -0.4841 -0.8108 -0.2202
21719SOL    HW170004   7.649   1.104   2.741  1.3009 -0.6899 -1.0657
21719SOL    HW270005   7.598   1.242   2.706  2.0680 -0.2776 -0.5567
21720SOL     OW70006   6.913   7.775   6.830  0.2573 -0.0471  0.2790
21720SOL    HW170007   6.936   7.835   6.759  0.2152 -0.3195  0.0308
21720SOL    HW270008   6.901   7.831   6.906 -2.3598  0.5945 -0.5094
21721SOL     OW70009   6.501   1.032   3.921  0.5200 -0.2900  0.0693
21721SOL    HW170010   6.411   1.063   3.931  0.1148 -0.1943 -2.9378
21721SOL    HW270011   6.555   1.110   3.931  0.0511  0.1065 -0.4066
21722SOL     OW70012   5.234   8.333   6.167 -0.0443  0.5785 -0.1685
21722SOL    HW170013   5.204   8.329   6.076 -0.0904  0.8490 -0.1652
21722SOL    HW270014   5.308   8.394   6.164  0.8912 -0.5205 -0.2864
21723SOL     OW70015   6.224   7.759   5.796  0.0280  0.3239 -0.3548
21723SOL    HW170016   6.138   7.752   5.755  0.1570 -0.0901 -0.5596
21723SOL    HW270017   6.281   7.790   5.726  0.3022 -0.6360 -0.5686
21724SOL     OW70018   7.159   6.743   6.839  0.6088 -0.4556 -0.0741
21724SOL    HW170019   7.225   6.702   6.783  1.8607  1.1378  0.1573
21724SOL    HW270020   7.075   6.719   6.798  1.4500  0.4190 -2.4929
21725SOL     OW70021   5.091   1.974   3.589 -0.0213  0.7324 -0.2081
21725SOL    HW170022   5.120   1.995   3.500 -0.4496  2.5483  0.0500
21725SOL    HW270023   5.029   2.043   3.611  1.1888  1.1751  2.0625
21726SOL     OW70024   6.686   5.859   2.486 -0.5425  0.7393 -0.8637
21726SOL    HW170025   6.743   5.905   2.424  0.2167  0.4946 -0.3560
21726SOL    HW270026   6.735   5.858   2.568 -1.7340  1.4903 -0.1015
21727SOL     OW70027   7.292   8.340   7.697  0.1563 -0.3181  0.6928
21727SOL    HW170028   7.352   8.339   7.622 -2.1769  0.9101 -1.3512
21727SOL    HW270029   7.304   8.427   7.735 -0.4673  0.0406  0.1011
21728SOL     OW70030   4.643   8.524   4.827 -0.6145 -0.0041 -0.0955
21728SOL    HW170031   4.728   8.486   4.847 -0.9488  0.2010  2.0686
21728SOL    HW270032   4.648   8.550   4.736  1.5449 -0.2291 -0.0868
21729SOL     OW70033   4.757   1.473   2.254 -0.3936  1.0881 -0.2036
21729SOL    HW170034   4.769   1.381   2.277 -1.8955  0.7545 -0.6517
21729SOL    HW270035   4.686   1.503   2.310  0.7802  2.2890  0.6888
21730SOL     OW70036   9.206   6.463   3.170  0.3985  0.0412 -0.1755
21730SOL    HW170037   9.191   6.405   3.096  2.1700 -0.3546 -0.2757
21730SOL    HW270038   9.235   6.546   3.130 -0.3221  0.4029  0.0312
21731SOL     OW70039   5.295   6.767   5.904 -0.5983 -0.2457 -0.2056
21731SOL    HW170040   5.309   6.712   5.827 -0.2051 -0.9670  0.3680
21731SOL    HW270041   5.204   6.749   5.929 -0.4866 -0.5943 -0.0498
21732SOL     OW70042   8.183   0.558   3.499 -1.0888 -0.7827 -0.4085
21732SOL    HW170043   8.213   0.467   3.490 -1.4026 -0.8063 -1.3887
21732SOL    HW270044   8.234   0.606   3.433  0.9712  0.2696  1.7973
21733SOL     OW70045   7.836   7.900   6.332  0.2220 -0.0524  0.8219
21733SOL    HW170046   7.804   7.840   6.401  0.0800  0.1017  0.8923
21733SOL    HW270047   7.758   7.918   6.279  0.3613 -0.2689  0.5490
21734SOL     OW70048   8.197   6.664   4.487 -0.0672  0.2100 -0.2751
21734SOL    HW170049   8.115   6.659   4.437 -0.5640 -1.5776  0.6410
21734SOL    HW270050   8.262   6.624   4.429  0.0962  1.2557 -0.8373
21735SOL     OW70051   7.481   9.322   3.465  0.0109  0.6087  0.4210
21735SOL    HW170052   7.524   9.238   3.447  0.8541  0.9971  0.6134
21735SOL    HW270053   7.511   9.380   3.394 -0.5029  0.7743  0.3343
21736SOL     OW70054   7.117   9.400   5.375 -0.1263  0.0263  0.0899
21736SOL    HW170055   7.108   9.408   5.470 -1.3194 -0.1028  0.0116
21736SOL    HW270056   7.173   9.324   5.363  0.2160  0.1780  0.6962
21737SOL     OW70057   7.639   6.401   5.116 -0.0585 -0.7177  0.1031
21737SOL    HW170058   7.674   6.468   5.174 -2.0970 -0.7170  1.4511
21737SOL    HW270059   7.557   6.375   5.157 -1.5103 -0.8947 -2.6563
21738SOL     OW70060   5.635   7.754   3.698 -0.2347 -0.2664 -0.6776
21738SOL    HW170061   5.606   7.816   3.766  0.8006 -0.9993  0.4630
21738SOL    HW270062   5.662   7.810   3.625  0.8651  0.6700  0.4026
21739SOL     OW70063   6.968   7.407   4.581  0.1930  0.0677 -0.1571
21739SOL    HW170064   6.922   7.395   4.664  1.9247  0.7480  0.9578
21739SOL    HW270065   7.032   7.335   4.579  2.0956  1.6592  0.5313
21740SOL     OW70066   7.002   9.516   6.524  0.7340 -0.2572  0.1293
21740SOL    HW170067   6.933   9.523   6.458  1.4998  0.0273 -0.6643
21740SOL    HW270068   7.084   9.524   6.474  1.3261  0.2698  1.1539
21741SOL     OW70069   5.990   7.912   4.287 -0.1075  0.9296  0.2130
21741SOL    HW170070   5.916   7.878   4.236  1.2477 -1.2054 -0.4870
21741SOL    HW270071   6.012   7.994   4.244 -0.2198  0.1200 -1.5137
21742SOL     OW70072   6.312   8.941   5.208 -0.0628  0.3127  0.2423
21742SOL    HW170073   6.309   8.916   5.115 -0.5527 -0.1500  0.3768
21742SOL    HW270074   6.224   8.922   5.241  0.1619  0.2934  0.8455
21743SOL     OW70075   7.215   7.663   4.701  0.5242  0.1342  0.2414
21743SOL    HW170076   7.280   7.643   4.634  1.3146  2.1776  0.3366
21743SOL    HW270077   7.193   7.755   4.687 -0.2250  0.2594  1.9932
21744SOL     OW70078   6.859   7.215   5.530 -0.4979 -0.1738 -0.6856
21744SOL    HW170079   6.891   7.255   5.449 -0.1486  2.0227  0.4583
21744SOL    HW270080   6.811   7.285   5.574 -0.3209 -1.1692  1.1944
21745SOL     OW70081   5.453   8.648   4.974 -0.0712  0.7097  0.2221
21745SOL    HW170082   5.364   8.635   4.941  0.1719 -0.0081 -0.1687
21745SOL    HW270083   5.471   8.569   5.025  0.4343  0.7353  0.0833
21746SOL     OW70084   6.202   7.640   7.022 -0.0891 -0.2203 -0.3926
21746SOL    HW170085   6.269   7.624   6.956  0.9577  0.5292  0.4384
21746SOL    HW270086   6.201   7.735   7.032  0.9578 -0.3568  1.7700
21747SOL     OW70087   7.694   9.360   5.324  0.0525 -0.0870  0.0173
21747SOL    HW170088   7.703   9.391   5.414 -0.5946 -0.2298  0.1406
21747SOL    HW270089   7.783   9.339   5.297  0.5394  1.8187 -0.0554
21748SOL     OW70090   7.919   2.288   5.292 -0.2584  0.8327  0.5701
21748SOL    HW170091   7.840   2.310   5.342 -1.4590  1.3862 -1.4650
21748SOL    HW270092   7.981   2.358   5.313 -0.0591  0.1157  2.5952
21749SOL     OW70093   8.175   9.054   2.969  0.3457  0.3389  0.2597
21749SOL    HW170094   8.115   9.105   2.914 -0.0762  0.0889  0.4834
21749SOL    HW270095   8.156   9.083   3.058 -0.1074 -0.4239  0.4127
21750SOL     OW70096   6.336   8.149   4.740 -0.1689 -0.0506  0.1165
21750SOL    HW170097   6.384   8.208   4.683 -0.6655 -1.0222 -1.3525
21750SOL    HW270098   6.404   8.098   4.786  0.2705  1.7307  1.5682
21751SOL     OW70099   6.023   0.135   7.567  0.0603  0.5242 -0.3480
21751SOL    HW170100   5.979   0.218   7.548  1.3766  1.2277 -0.4554
21751SOL    HW270101   6.107   0.161   7.606  0.2245 -0.7756  0.2326
21752SOL     OW70102   7.517   9.572   4.225  0.3309 -0.0690 -0.4186
21752SOL    HW170103   7.548   9.549   4.137 -0.8102 -2.3141 -0.3157
21752SOL    HW270104   7.422   9.559   4.220  0.2297 -0.0252  1.1048
21753SOL     OW70105   6.878   0.836   4.568  0.5570  0.3253 -0.0289
21753SOL    HW170106   6.971   0.848   4.550  0.3608 -0.2842 -1.5553
21753SOL    HW270107   6.833   0.886   4.500 -0.2550  0.8309  0.8435
21754SOL     OW70108   7.731   0.126   6.682 -0.9168  0.0320  0.3908
21754SOL    HW170109   7.691   0.209   6.708 -0.9771 -0.0335  0.5050
21754SOL    HW270110   7.815   0.152   6.643 -1.0315  0.1616  0.2273
21755SOL     OW70111   2.884   7.803   6.043  0.2875 -0.1841  0.2642
21755SOL    HW170112   2.971   7.763   6.034 -0.6155 -2.2772  0.3546
21755SOL    HW270113   2.827   7.731   6.070 -1.8208  0.7466 -1.4388
21756SOL     OW70114   3.719   9.107   4.505 -0.0675 -0.4129 -0.2859
21756SOL    HW170115   3.722   9.013   4.524 -0.1232 -0.5932 -1.1339
21756SOL    HW270116   3.750   9.149   4.585 -1.2371 -1.0956  0.5414
21757SOL     OW70117   5.301   7.867   4.278  0.2218 -0.1248 -0.7958
21757SOL    HW170118   5.212   7.843   4.249 -0.1045 -0.2378  0.2749
21757SOL    HW270119   5.312   7.823   4.362  0.0935  2.3456  0.6237
21758SOL     OW70120   5.134   6.651   5.612  0.4562 -0.9913  0.0912
21758SOL    HW170121   5.172   6.634   5.525 -1.8246  1.7229 -1.6119
21758SOL    HW270122   5.134   6.746   5.620 -0.7567 -1.1249  2.4552
21759SOL     OW70123   7.821   8.919   6.118 -0.1488  0.0955 -0.3879
21759SOL    HW170124   7.884   8.868   6.067  1.3377  1.4336  0.0249
21759SOL    HW270125   7.850   8.910   6.209 -1.5617 -0.6044  0.0265
21760SOL     OW70126   8.195   0.637   4.504 -0.0456  0.1074 -0.2837
21760SOL    HW170127   8.147   0.693   4.443 -0.5229 -0.3677 -0.3549
21760SOL    HW270128   8.268   0.602   4.452 -0.0544  0.2443 -0.3871
21761SOL     OW70129   6.376   8.534   3.286  0.3820 -0.4575 -0.6844
21761SOL    HW170130   6.456   8.559   3.334 -2.1730  1.1091  3.2190
21761SOL    HW270131   6.375   8.593   3.210  2.3121  0.3295 -0.1715
21762SOL     OW70132   4.401   8.076   4.627  0.3364 -0.4545 -0.6044
21762SOL    HW170133   4.474   8.112   4.577  1.9037 -2.6717 -0.0545
21762SOL    HW270134   4.390   8.137   4.700  3.0054 -1.0431  0.4030
21763SOL     OW70135   6.079   6.548   7.951  0.2418 -0.3144 -0.0313
21763SOL    HW170136   6.115   6.511   8.032  2.2310  0.3558 -0.5633
21763SOL    HW270137   6.153   6.551   7.890 -1.1770 -0.7132 -1.8772
21764SOL     OW70138   4.296   5.562   3.624 -0.5053  0.5176 -0.1240
21764SOL    HW170139   4.289   5.510   3.544 -1.4865  0.8541 -0.2631
21764SOL    HW270140   4.389   5.586   3.628 -0.5824  1.1332 -1.5738
21765SOL     OW70141   4.793   6.533   6.164 -1.0073  0.5039  0.9155
21765SOL    HW170142   4.725   6.593   6.194 -0.7498  0.3650  1.7824
21765SOL    HW270143   4.820   6.485   6.242 -0.2738  0.1972  0.4848
21766SOL     OW70144   4.972   7.773   3.913  0.3673  0.7013 -0.7163
21766SOL    HW170145   5.046   7.748   3.857  1.6377  1.0963  0.7260
21766SOL    HW270146   4.976   7.869   3.916 -0.2744  0.7319 -0.6923
21767SOL     OW70147   4.584   7.085   4.290  0.3692  0.6411 -0.6813
21767SOL    HW170148   4.574   7.178   4.314  0.9118  0.3436  0.8598
21767SOL    HW270149   4.676   7.066   4.312 -0.1085 -0.5950  0.3688
21768SOL     OW70150   5.872   8.252   4.802 -0.0800 -0.2974 -0.0857
21768SOL    HW170151   5.935   8.197   4.850  1.3666 -1.0815 -2.6473
21768SOL    HW270152   5.789   8.207   4.811 -0.1609  0.2000  2.5240
21769SOL     OW70153   5.955   9.014   2.981  0.2839  0.2269  0.5265
21769SOL    HW170154   5.918   8.948   2.923 -0.8375  0.5158  0.8956
21769SOL    HW270155   6.050   9.000   2.975  0.2078  0.2140 -1.3272
21770SOL     OW70156   6.892   8.802   2.582 -0.1901 -0.1681  0.1064
21770SOL    HW170157   6.880   8.835   2.493 -0.1495 -0.7448 -0.1152
21770SOL    HW270158   6.933   8.875   2.629  0.2157 -0.0219 -0.4600
21771SOL     OW70159   6.882   8.691   5.417 -0.7434 -0.1008  0.0340
21771SOL    HW170160   6.938   8.719   5.345 -0.9650 -0.3615 -0.2446
21771SOL    HW270161   6.942   8.671   5.488 -0.4094 -1.2282 -0.5460
21772SOL     OW70162   7.230   8.696   2.842  0.0304 -0.3416  0.0187
21772SOL    HW170163   7.279   8.727   2.918 -0.7119  0.9919 -0.0074
21772SOL    HW270164   7.294   8.694   2.771 -0.3636  4.1761 -0.7598
21773SOL     OW70165   7.672   7.225   2.388 -0.5853 -0.2789  0.9891
21773SOL    HW170166   7.662   7.310   2.344 -0.3802 -0.9031 -0.2980
21773SOL    HW270167   7.617   7.233   2.466 -0.7283  0.9676  0.7901
21774SOL     OW70168   7.222   7.892   4.997  0.0147  0.0285 -0.5802
21774SOL    HW170169   7.188   7.814   4.953  0.2398 -0.5304  0.2133
21774SOL    HW270170   7.148   7.924   5.050  0.4644 -0.7587  0.5674
21775SOL     OW70171   9.046   1.034   5.756 -0.3679 -0.2255  0.3010
21775SOL    HW170172   9.130   0.998   5.726  0.6018  0.6261  1.9131
21775SOL    HW270173   8.997   0.957   5.787  0.4591 -0.5351  0.8626
21776SOL     OW70174   6.172   8.328   4.173  0.2069 -0.1181  0.1832
21776SOL    HW170175   6.184   8.362   4.084  1.6955 -0.8705  0.0513
21776SOL    HW270176   6.257   8.343   4.215  0.4332 -2.1796  0.5960
21777SOL     OW70177   7.905   7.236   5.141  0.3951 -0.2409 -0.3360
21777SOL    HW170178   7.881   7.328   5.146  1.9643  0.3546 -2.2880
21777SOL    HW270179   7.897   7.204   5.230  0.7014  2.0223  0.5754
21778SOL     OW70180   7.631   9.787   5.681 -0.4489 -0.1810  0.4869
21778SOL    HW170181   7.697   9.739   5.730  0.1744  1.1910  1.0266
21778SOL    HW270182   7.680   9.829   5.611 -0.9518 -0.1154  0.1742
21779SOL     OW70183   5.446   6.783   2.151 -0.1570 -0.8287 -0.0314
21779SOL    HW170184   5.494   6.865   2.141  1.2627 -1.5514  0.5943
21779SOL    HW270185   5.387   6.799   2.225  2.2324 -1.2649  2.0837
21780SOL     OW70186   9.168   9.671   4.342 -1.0700 -0.7898 -0.3222
21780SOL    HW170187   9.220   9.751   4.333 -1.5150 -0.4397  0.1459
21780SOL    HW270188   9.177   9.627   4.258  1.1112 -1.4271  0.1883
21781SOL     OW70189   4.848   6.587   4.354  0.1033 -0.0838  0.1665
21781SOL    HW170190   4.778   6.650   4.337 -0.1992 -0.3244  0.4963
21781SOL    HW270191   4.924   6.623   4.310 -0.8487 -1.1329 -2.6136
21782SOL     OW70192   5.965   7.613   5.664  0.3774 -0.7913  0.0854
21782SOL    HW170193   5.959   7.530   5.616  0.4310 -0.9317  0.3240
21782SOL    HW270194   5.897   7.608   5.730 -2.0053  0.7962 -2.0754
21783SOL     OW70195   3.903   7.799   4.601  0.6688 -0.1371  0.1769
21783SOL    HW170196   3.883   7.777   4.510 -0.3396 -1.1561  0.6174
21783SOL    HW270197   3.942   7.886   4.597 -0.2106  0.2285 -1.1374
21784SOL     OW70198   5.170   0.847   3.032 -0.6101 -0.8510  0.2810
21784SOL    HW170199   5.122   0.782   3.083 -0.6559 -1.5203 -0.5953
21784SOL    HW270200   5.251   0.803   3.006 -0.2328 -0.2572  0.4272
21785SOL     OW70201   5.963   1.107   5.766  0.9134 -0.1631 -0.3789
21785SOL    HW170202   5.945   1.188   5.718  1.2342 -1.1593 -2.2524
21785SOL    HW270203   6.056   1.091   5.753  1.3578  0.2659  1.8280
21786SOL     OW70204   5.179   9.078   5.523 -0.3510 -0.0493  0.0482
21786SOL    HW170205   5.100   9.087   5.470  0.6335 -1.3819 -1.7655
21786SOL    HW270206   5.248   9.058   5.460  1.4368  0.9364  1.5838
21787SOL     OW70207   5.527   6.539   6.011 -0.5314  0.2432 -0.0619
21787SOL    HW170208   5.553   6.558   5.921 -0.4253  0.4938  0.0212
21787SOL    HW270209   5.608   6.509   6.053 -0.4901  0.5336  0.0630
21788SOL     OW70210   4.519   8.289   4.762 -0.4886 -0.0852 -0.2869
21788SOL    HW170211   4.562   8.351   4.820 -0.4735  1.5230 -1.9454
21788SOL    HW270212   4.432   8.326   4.746 -1.7193 -2.1016  1.1291
21789SOL     OW70213   8.193   6.696   5.126 -0.2891 -0.0039 -0.3759
21789SOL    HW170214   8.274   6.699   5.177 -0.8098  3.8190  0.5601
21789SOL    HW270215   8.222   6.695   5.035  0.9045  1.4143 -0.0574
21790SOL     OW70216   5.147   7.464   3.397 -0.5775  0.1215  0.8543
21790SOL    HW170217   5.217   7.406   3.368  0.7010  0.7724  2.5044
21790SOL    HW270218   5.192   7.542   3.430 -2.1371  1.0407  0.9150
21791SOL     OW70219   7.327   9.502   4.913 -0.0869  0.0427  0.0689
21791SOL    HW170220   7.279   9.473   4.990 -0.1528 -1.6732 -0.5682
21791SOL    HW270221   7.299   9.442   4.843  1.7583 -0.0082 -0.6980
21792SOL     OW70222   6.443   1.250   7.225 -0.3566  0.5319 -0.6235
21792SOL    HW170223   6.384   1.181   7.256 -0.3315  1.2173  1.0397
21792SOL    HW270224   6.400   1.331   7.252  1.5132  1.0456  1.0485
21793SOL     OW70225   5.765   7.164   4.650  0.6403  0.4243  0.1588
21793SOL    HW170226   5.791   7.176   4.742 -1.9383 -0.2864  1.0756
21793SOL    HW270227   5.775   7.250   4.610  2.1885  0.6603  0.9508
21794SOL     OW70228   7.218   9.466   6.224 -0.2384  0.1335  0.4847
21794SOL    HW170229   7.238   9.388   6.275 -0.3376  0.1451  0.5406
21794SOL    HW270230   7.222   9.438   6.133  1.1623  0.3805  0.4376
21795SOL     OW70231   4.677   8.744   2.270  0.3876  0.6153  0.5486
21795SOL    HW170232   4.740   8.815   2.280 -0.4815  1.3448  0.8820
21795SOL    HW270233   4.652   8.747   2.177  1.7308 -0.4582  0.1143
21796SOL     OW70234   6.387   8.551   7.367  0.0708  0.0039 -0.3291
21796SOL    HW170235   6.295   8.559   7.342  0.6824  0.8509 -2.5755
21796SOL    HW270236   6.399   8.458   7.384 -1.3095 -0.0438  0.5610
21797SOL     OW70237   4.821   9.729   6.328  0.1006  0.9275  0.0445
21797SOL    HW170238   4.824   9.715   6.422 -0.5588  1.0174  0.0834
21797SOL    HW270239   4.913   9.727   6.300  0.2288 -0.4388  0.4959
21798SOL     OW70240   7.267   8.218   5.116 -0.6095 -0.2804  0.1547
21798SOL    HW170241   7.235   8.261   5.195  2.2602 -0.0247  1.2738
21798SOL    HW270242   7.207   8.144   5.103 -3.1825  1.6149  0.5017
21799SOL     OW70243   7.432   0.161   4.810 -0.2244  0.2526  0.5220
21799SOL    HW170244   7.473   0.087   4.855  0.0107 -0.8389 -1.3975
21799SOL    HW270245   7.339   0.152   4.829 -0.0166  0.6291  1.8759
21800SOL     OW70246   9.387   8.269   4.829  0.5541 -0.3531  0.0191
21800SOL    HW170247   9.464   8.213   4.824 -0.7593 -2.1654 -1.7794
21800SOL    HW270248   9.401   8.323   4.906  2.2257 -2.7134  1.4957
21801SOL     OW70249   6.143   8.789   5.544  0.4212 -0.1670 -0.1553
21801SOL    HW170250   6.103   8.811   5.460 -0.4866 -2.3482 -0.3765
21801SOL    HW270251   6.208   8.721   5.523  2.0297  1.0383  0.6254
21802SOL     OW70252   5.166   0.623   5.604 -0.2527  0.1919  0.0708
21802SOL    HW170253   5.092   0.576   5.565  0.7522  0.5182 -2.4308
21802SOL    HW270254   5.243   0.573   5.578  0.5312  0.6803  1.3681
21803SOL     OW70255   5.918   0.107   3.622 -0.5316 -0.3929  0.2485
21803SOL    HW170256   5.885   0.040   3.562 -1.1927 -0.5811  0.8065
21803SOL    HW270257   6.000   0.136   3.583 -2.0347  1.1882 -2.0180
21804SOL     OW70258   8.941   1.914   3.550 -0.3884  0.1310  0.1785
21804SOL    HW170259   8.974   1.974   3.483 -0.7493  1.3524  1.0573
21804SOL    HW270260   8.979   1.829   3.527 -1.3254  0.2489 -2.1951
21805SOL     OW70261   4.985   0.027   5.301 -0.1217 -0.1407 -0.1825
21805SOL    HW170262   4.892   0.013   5.286  0.0148 -0.5154 -0.6996
21805SOL    HW270263   4.989   0.102   5.360 -0.7612 -0.3503  0.1377
21806SOL     OW70264   7.625   7.628   1.133  0.0882  0.3343  0.5930
21806SOL    HW170265   7.689   7.577   1.083 -0.6958  0.0630 -0.1468
21806SOL    HW270266   7.678   7.675   1.198  0.9233 -0.7868  0.7718
21807SOL     OW70267   8.609   8.666   6.577  0.2128  0.0427 -0.4778
21807SOL    HW170268   8.652   8.709   6.651 -0.6055  1.1216 -0.6078
21807SOL    HW270269   8.681   8.637   6.521  0.8372 -0.5181  0.5730
21808SOL     OW70270   6.160   7.241   0.917  0.7484 -0.3152 -0.5699
21808SOL    HW170271   6.170   7.245   0.822  0.4183  2.1573 -0.5519
21808SOL    HW270272   6.068   7.262   0.933  0.6927 -1.1166  0.3129
21809SOL     OW70273   6.109   8.868   4.140 -0.4614  0.0514  0.0692
21809SOL    HW170274   6.111   8.883   4.235 -0.2858 -1.7834  0.4013
21809SOL    HW270275   6.135   8.951   4.102 -0.4015  0.7940  1.6365
21810SOL     OW70276   6.770   6.468   4.635 -0.0086  0.6999 -0.8201
21810SOL    HW170277   6.814   6.384   4.652  0.3853  1.1343  0.4528
21810SOL    HW270278   6.797   6.524   4.708 -0.6961  1.7718 -1.3642
21811SOL     OW70279   6.448   0.454   2.888 -0.3334  0.7178  0.5326
21811SOL    HW170280   6.414   0.511   2.957 -2.2528 -1.2148  1.3277
21811SOL    HW270281   6.451   0.510   2.810 -1.5114  2.0782  1.4039
21812SOL     OW70282   7.781   9.294   4.894 -0.1798 -0.4708  0.6355
21812SOL    HW170283   7.779   9.252   4.808 -2.1812 -1.3728  1.0551
21812SOL    HW270284   7.865   9.339   4.897 -0.2904  0.0765 -2.0084
21813SOL     OW70285   8.059   9.665   4.238 -0.2793 -0.3553  0.6084
21813SOL    HW170286   8.019   9.729   4.297 -1.5561 -0.7728  0.2261
21813SOL    HW270287   8.028   9.580   4.270 -0.4943 -0.6274 -0.2836
21814SOL     OW70288   5.901   8.661   3.265 -0.6515  0.3623 -0.4289
21814SOL    HW170289   5.888   8.571   3.234 -2.2234  0.1245  0.7979
21814SOL    HW270290   5.983   8.657   3.315 -2.2495 -1.2069  2.2838
21815SOL     OW70291   5.759   6.896   3.144  0.0510  0.3381 -0.1368
21815SOL    HW170292   5.665   6.903   3.160  0.1062  1.6259 -0.2358
21815SOL    HW270293   5.799   6.892   3.231 -0.1196 -1.1066 -0.0936
21816SOL     OW70294   8.368   8.177   1.545  0.1580  0.0933  0.1897
21816SOL    HW170295   8.400   8.267   1.557  2.8678 -0.7950  0.3989
21816SOL    HW270296   8.357   8.144   1.633 -0.5770  0.1110  0.1104
21817SOL     OW70297   3.120   9.215   4.265 -0.1391 -0.1078 -0.7572
21817SOL    HW170298   3.120   9.157   4.340 -0.3661  2.1730  1.1297
21817SOL    HW270299   3.199   9.268   4.276 -0.9487  1.2658 -1.2615
21818SOL     OW70300   7.090   8.802   4.106 -0.4833 -0.5910 -0.6141
21818SOL    HW170301   7.103   8.896   4.093 -2.0220 -0.0452  1.3063
21818SOL    HW270302   7.106   8.763   4.020  0.7289  1.3488 -1.3165
21819SOL     OW70303   4.009   8.611   3.892  0.4628  0.4819 -0.0410
21819SOL    HW170304   3.953   8.685   3.870  3.6251  3.1391  0.0261
21819SOL    HW270305   3.994   8.596   3.985 -1.0436  0.2105 -0.3070
21820SOL     OW70306   6.401   6.119   3.997  1.0993  0.3412 -0.8650
21820SOL    HW170307   6.485   6.139   3.956  1.9995 -0.9068  0.2838
21820SOL    HW270308   6.375   6.035   3.958 -0.0099  1.0545 -1.7466
21821SOL     OW70309   5.152   8.412   3.204 -0.0745  0.3694 -0.0748
21821SOL    HW170310   5.098   8.343   3.243 -1.3236  0.6081 -1.2664
21821SOL    HW270311   5.207   8.367   3.140 -0.8398  0.4337 -0.8024
21822SOL     OW70312   7.618   9.560   6.545  0.6038  0.1721 -0.4211
21822SOL    HW170313   7.562   9.636   6.560  0.9279  0.2294  0.5695
21822SOL    HW270314   7.562   9.499   6.496 -1.0976 -0.6019  2.2093
21823SOL     OW70315   6.141   5.146   7.388  0.5859  0.3183 -0.5059
21823SOL    HW170316   6.212   5.188   7.436  1.5352 -0.3387 -1.2860
21823SOL    HW270317   6.078   5.120   7.455  0.9666  1.1176  0.1808
21824SOL     OW70318   6.149   7.974   3.466 -0.1894 -0.1445  0.1825
21824SOL    HW170319   6.165   7.929   3.549 -0.0034 -2.8248 -1.1968
21824SOL    HW270320   6.215   7.939   3.407 -0.3078  1.7057 -1.1293
21825SOL     OW70321   7.753   9.383   3.359  0.7811  0.0707 -0.0940
21825SOL    HW170322   7.821   9.317   3.372  0.8572  0.1313 -0.1827
21825SOL    HW270323   7.702   9.381   3.440  0.5658 -0.3473 -0.2376
21826SOL     OW70324   6.309   8.023   2.435 -0.0725  0.3398 -0.0962
21826SOL    HW170325   6.402   8.030   2.456  0.1415 -0.4828 -0.7470
21826SOL    HW270326   6.267   7.999   2.518  0.1377  1.6985  0.4435
21827SOL     OW70327   6.412   0.158   4.136 -1.0282  0.1449 -0.0242
21827SOL    HW170328   6.317   0.153   4.143 -0.9488 -1.5792  0.2944
21827SOL    HW270329   6.443   0.140   4.225 -0.3903  0.2871 -0.2135
21828SOL     OW70330   7.832   7.404   3.360  0.2264 -0.3448 -0.1942
21828SOL    HW170331   7.765   7.469   3.338  0.0552 -0.4929 -0.1070
21828SOL    HW270332   7.880   7.392   3.278 -0.1312 -0.5632 -0.3752
21829SOL     OW70333   4.814   6.562   6.491  0.1045  0.2523  0.0180
21829SOL    HW170334   4.741   6.554   6.429  1.5004 -0.6053 -1.5764
21829SOL    HW270335   4.828   6.657   6.497 -0.7811  0.4045 -0.0757
21830SOL     OW70336   5.867   8.349   5.105  0.5687 -0.3105 -0.4259
21830SOL    HW170337   5.878   8.420   5.042  1.5887 -0.7988 -0.8173
21830SOL    HW270338   5.940   8.360   5.166  0.4297 -0.7130 -0.1844
21831SOL     OW70339   8.061   8.028   6.412 -0.6464  0.3109  0.1929
21831SOL    HW170340   7.974   7.990   6.395 -0.7570 -0.7666  2.7343
21831SOL    HW270341   8.117   7.989   6.345 -1.9344  0.3661 -0.9687
21832SOL     OW70342   7.003   7.427   5.057  0.2632  0.5896 -0.0564
21832SOL    HW170343   6.970   7.506   5.015 -1.3393 -0.0909 -0.1488
21832SOL    HW270344   7.036   7.373   4.984  2.0992  1.4549  0.0764
21833SOL     OW70345   7.534   6.676   3.609  0.5407 -0.6795  0.1712
21833SOL    HW170346   7.577   6.756   3.578  0.3197 -0.9180 -0.8047
21833SOL    HW270347   7.600   6.607   3.596  0.3984 -0.8028  0.1010
21834SOL     OW70348   5.345   7.146   3.560  0.0452  0.0845 -0.4093
21834SOL    HW170349   5.368   7.166   3.469 -0.3102  0.0262 -0.5124
21834SOL    HW270350   5.288   7.217   3.587 -1.3624 -0.8443 -0.8321
21835SOL     OW70351   7.307   8.230   4.615  0.1732 -0.0220 -0.3932
21835SOL    HW170352   7.332   8.287   4.542  0.6084  1.2450  0.7248
21835SOL    HW270353   7.234   8.274   4.657  1.0403  0.1759  0.9770
21836SOL     OW70354   7.115   9.121   4.065  0.4133  0.0476  0.5859
21836SOL    HW170355   7.046   9.143   4.127  1.2289  0.4277  1.3890
21836SOL    HW270356   7.131   9.202   4.016  1.0159  0.2763  1.1437
21837SOL     OW70357   7.050   9.036   2.983  0.1200  0.1365  0.4115
21837SOL    HW170358   7.081   8.958   3.029  0.2038 -0.6512 -0.9297
21837SOL    HW270359   7.100   9.108   3.020  0.0302 -0.4304  1.6890
21838SOL     OW70360   5.942   8.242   4.305 -0.0198 -0.3965 -0.4669
21838SOL    HW170361   6.009   8.289   4.255  0.2636  0.5608  0.7648
21838SOL    HW270362   5.990   8.201   4.377 -0.8384  1.1915  1.0614
21839SOL     OW70363   3.672   9.389   2.594  0.2571 -0.1981  0.1741
21839SOL    HW170364   3.649   9.480   2.615  1.5541  0.0945  0.4370
21839SOL    HW270365   3.604   9.361   2.533  0.8957  1.6421 -1.5383
21840SOL     OW70366   7.047   9.763   3.683 -0.1702  0.6274 -0.6898
21840SOL    HW170367   7.004   9.684   3.718  0.9564 -1.5083 -3.6975
21840SOL    HW270368   6.977   9.828   3.680 -1.3087 -0.3775  1.3241
21841SOL     OW70369   6.762   8.837   7.604 -0.2013 -0.3802 -0.0264
21841SOL    HW170370   6.789   8.871   7.689 -0.9659  1.9182 -0.6288
21841SOL    HW270371   6.712   8.908   7.564  1.8873 -0.4742 -3.2799
21842SOL     OW70372   5.391   6.551   3.711 -0.0861 -0.3502 -0.0327
21842SOL    HW170373   5.340   6.625   3.743  0.0089 -0.8210  1.2841
21842SOL    HW270374   5.426   6.510   3.790  2.7686  0.2333 -0.8550
21843SOL     OW70375   6.545   9.209   3.669 -0.0650 -0.4349  0.5652
21843SOL    HW170376   6.543   9.114   3.681  2.3500 -0.3378  2.6647
21843SOL    HW270377   6.517   9.223   3.579  0.3391 -3.2298 -0.0662
21844SOL     OW70378   4.487   8.069   5.726 -0.0462 -0.0525 -0.6586
21844SOL    HW170379   4.525   7.981   5.732  1.7708  0.6424 -1.1641
21844SOL    HW270380   4.551   8.119   5.675 -1.7580  1.1982 -1.6707
21845SOL     OW70381   4.892   8.312   5.435  0.0497  0.1305  0.7323
21845SOL    HW170382   4.955   8.328   5.505  0.5649  1.1893  0.0608
21845SOL    HW270383   4.855   8.399   5.417 -1.5929 -0.4575  1.0861
21846SOL     OW70384   7.576   8.746   7.112  0.3523 -0.3260  0.0439
21846SOL    HW170385   7.533   8.810   7.168 -0.9480 -1.0374 -0.0880
21846SOL    HW270386   7.647   8.711   7.165 -0.0099 -0.0009  0.7529
21847SOL     OW70387   6.998   9.594   5.158  0.3370  0.3982  0.3385
21847SOL    HW170388   7.016   9.558   5.071  1.0136  2.1514 -0.3125
21847SOL    HW270389   7.008   9.521   5.218  1.1137 -0.5786 -0.9400
21848SOL     OW70390   4.903   9.255   4.266  0.2442 -0.5967  0.0961
21848SOL    HW170391   4.828   9.281   4.319  0.5795  0.1924  0.1953
21848SOL    HW270392   4.955   9.198   4.322  0.2151 -0.3630  0.3595
21849SOL     OW70393   6.634   6.704   4.882 -0.2336  0.2779 -0.5661
21849SOL    HW170394   6.616   6.695   4.789 -2.2875 -0.9090 -0.1303
21849SOL    HW270395   6.719   6.662   4.895 -0.0595  0.2116 -1.8419
21850SOL     OW70396   7.122   7.853   7.409 -0.1734 -0.0991  0.6902
21850SOL    HW170397   7.035   7.821   7.435 -0.1159  0.1316  1.1950
21850SOL    HW270398   7.123   7.944   7.440 -0.1636  0.2435 -0.2984
21851SOL     OW70399   5.111   8.390   1.499  0.3707  0.3044 -0.1655
21851SOL    HW170400   5.023   8.409   1.468 -0.1164 -1.2110  0.2099
21851SOL    HW270401   5.109   8.297   1.522  1.5529  0.6820  1.6198
21852SOL     OW70402   7.797   8.761   3.582 -0.3067  0.5781  0.4355
21852SOL    HW170403   7.870   8.705   3.557 -1.9607 -1.2290 -0.5534
21852SOL    HW270404   7.811   8.842   3.533  0.3544 -0.2229 -0.7316
21853SOL     OW70405   5.984   8.278   2.265  0.3632  0.1709  0.4676
21853SOL    HW170406   6.043   8.303   2.336  2.0177 -1.3816 -0.2916
21853SOL    HW270407   5.917   8.223   2.307  0.8648 -0.0744  0.9540
21854SOL     OW70408   5.159   9.847   3.836 -0.5689 -0.4065  0.5726
21854SOL    HW170409   5.132   9.756   3.851 -2.7842  0.0386 -0.3045
21854SOL    HW270410   5.204   9.872   3.917 -2.4560 -1.4213  2.0469
21855SOL     OW70411   7.349   8.528   1.786 -0.1636 -0.2905  0.5976
21855SOL    HW170412   7.414   8.483   1.839 -0.1540 -1.1503 -0.1318
21855SOL    HW270413   7.389   8.614   1.767  0.1325 -0.2564  1.3630
21856SOL     OW70414   5.305   7.198   5.910 -1.0234 -0.0735  0.4118
21856SOL    HW170415   5.290   7.283   5.868 -0.6141 -0.2944 -0.2089
21856SOL    HW270416   5.218   7.166   5.933 -1.1594  0.6663  0.9657
21857SOL     OW70417   8.052   8.634   4.798 -0.2110 -0.2619 -0.0375
21857SOL    HW170418   8.059   8.542   4.772 -2.3171 -0.6625  0.6817
21857SOL    HW270419   8.045   8.631   4.894 -0.5523  0.6302 -0.0300
21858SOL     OW70420   7.101   9.645   3.446 -0.3822  0.3517 -0.0596
21858SOL    HW170421   7.072   9.707   3.379  0.7495  1.0597  0.0643
21858SOL    HW270422   7.102   9.697   3.526 -0.4246 -0.1227  0.2468
21859SOL     OW70423   6.969   8.858   7.329 -0.1180  0.1177  0.3269
21859SOL    HW170424   7.043   8.800   7.347  0.4631  0.4347 -0.8955
21859SOL    HW270425   6.929   8.822   7.249  0.7939  1.8353 -0.9853
21860SOL     OW70426   8.660   0.619   4.185  0.6315  0.3208  0.4695
21860SOL    HW170427   8.728   0.553   4.173  1.2381  0.6789  1.6946
21860SOL    HW270428   8.614   0.623   4.101  1.6422 -0.4657 -0.1409
21861SOL     OW70429   6.720   0.282   6.526  0.3380  0.2723  0.1891
21861SOL    HW170430   6.640   0.293   6.576  0.6396  2.0493  0.3469
21861SOL    HW270431   6.700   0.213   6.463 -1.5455  1.1307 -0.2082
21862SOL     OW70432   7.777   7.195   6.640 -0.2786  0.0959  0.2154
21862SOL    HW170433   7.863   7.160   6.617 -0.6577 -0.1424 -0.9305
21862SOL    HW270434   7.783   7.288   6.620 -0.8813 -0.2552 -1.8528
21863SOL     OW70435   7.219   9.257   9.368  0.1594 -0.3890 -0.2427
21863SOL    HW170436   7.291   9.238   9.309 -0.9333 -1.0447 -1.4133
21863SOL    HW270437   7.253   9.324   9.427  0.9469  1.1642 -2.3424
21864SOL     OW70438   7.572   9.440   5.011 -0.3360 -0.0455 -0.1250
21864SOL    HW170439   7.631   9.393   4.952 -1.0358 -1.1988  0.0581
21864SOL    HW270440   7.486   9.433   4.971 -0.8657 -1.0297  1.1026
21865SOL     OW70441   4.465   1.635   7.556  0.3206  0.0303  0.0122
21865SOL    HW170442   4.448   1.595   7.641  0.1782  1.3646  0.6213
21865SOL    HW270443   4.559   1.628   7.544  0.1247 -2.2057 -0.7846
21866SOL     OW70444   8.471   0.354   6.821 -0.8007  0.0434  0.4810
21866SOL    HW170445   8.544   0.406   6.789 -0.4979 -0.2209  0.7367
21866SOL    HW270446   8.474   0.273   6.769 -1.2297  0.2494  0.1297
21867SOL     OW70447   7.625   8.120   7.104 -0.7329  0.3274  0.6050
21867SOL    HW170448   7.543   8.098   7.148 -1.7672  0.4603 -1.1912
21867SOL    HW270449   7.679   8.041   7.114 -1.4569 -0.1375  0.9236
21868SOL     OW70450   4.130   8.234   6.172 -0.0234  0.3774  0.2088
21868SOL    HW170451   4.060   8.291   6.140  0.1797 -0.0702 -1.0589
21868SOL    HW270452   4.206   8.292   6.181 -0.5567  0.9072  1.7723
21869SOL     OW70453   6.770   1.604   7.291 -0.5288  0.1557 -1.1506
21869SOL    HW170454   6.818   1.629   7.212  0.8910 -3.6427 -1.6701
21869SOL    HW270455   6.679   1.623   7.271  0.1155  2.2551 -2.3809
21870SOL     OW70456   5.069   8.207   5.212  0.3581  0.0091  0.2359
21870SOL    HW170457   5.005   8.272   5.240  1.1533  0.2531  1.5570
21870SOL    HW270458   5.045   8.128   5.259  0.8879  0.0427  0.5687
21871SOL     OW70459   7.273   9.002   5.996 -0.3046  0.2188  0.5554
21871SOL    HW170460   7.341   8.946   5.957 -1.3004  0.7019 -2.1156
21871SOL    HW270461   7.219   8.942   6.047  0.4147 -0.6941  0.2815
21872SOL     OW70462   5.221   9.087   7.392  0.0830 -0.3498  0.1240
21872SOL    HW170463   5.142   9.139   7.378 -0.0382 -1.0730 -2.4945
21872SOL    HW270464   5.292   9.152   7.396 -0.4462  0.2012  0.6317
21873SOL     OW70465   6.152   9.335   5.246  0.1108  0.3677 -0.1549
21873SOL    HW170466   6.074   9.377   5.209  0.0253  0.1722 -0.2049
21873SOL    HW270467   6.122   9.247   5.270  0.3420  0.2565 -0.2693
21874SOL     OW70468   6.509   1.186   7.709 -0.0608  0.6810  0.2650
21874SOL    HW170469   6.505   1.260   7.649 -1.3409 -0.0767 -0.6137
21874SOL    HW270470   6.476   1.220   7.792 -0.7996  1.0455 -0.1776
21875SOL     OW70471   3.025   7.996   2.504 -0.2225 -0.4568 -0.5148
21875SOL    HW170472   2.948   8.038   2.543 -1.0845 -1.1689 -1.3881
21875SOL    HW270473   3.090   7.996   2.574 -2.4536 -3.7983  1.9046
21876SOL     OW70474   9.457   7.706   8.487  0.1407 -0.1383  0.7622
21876SOL    HW170475   9.500   7.773   8.434  2.3455  0.3343  2.9415
21876SOL    HW270476   9.395   7.754   8.542 -0.8487 -0.3972 -0.0946
21877SOL     OW70477   5.842   6.116   6.522 -1.0586  0.2962  0.6137
21877SOL    HW170478   5.771   6.148   6.578  1.0324  0.1554  3.5632
21877SOL    HW270479   5.854   6.025   6.547 -1.0696 -0.2673 -1.2671
21878SOL     OW70480   8.627   1.071   5.321 -0.2142 -0.1551 -0.1354
21878SOL    HW170481   8.584   1.047   5.403  0.0309  0.5193  0.2007
21878SOL    HW270482   8.597   1.160   5.303  0.1189 -0.1156 -0.5139
21879SOL     OW70483   6.696   2.869   6.347 -0.0750  0.3762 -0.1213
21879SOL    HW170484   6.630   2.807   6.378  0.5018  0.0071  0.3994
21879SOL    HW270485   6.757   2.878   6.420  0.3377  0.8734 -0.5159
21880SOL     OW70486   9.835   0.348   6.003 -0.1235 -0.0430 -0.1702
21880SOL    HW170487   9.909   0.393   5.963  1.1680 -1.1549  0.8980
21880SOL    HW270488   9.866   0.259   6.019 -1.2484 -0.1854  1.4606
21881SOL     OW70489   7.823   8.528   7.003  0.4593 -0.1165  0.0009
21881SOL    HW170490   7.899   8.472   6.986  0.9160  0.1762  0.9699
21881SOL    HW270491   7.860   8.617   7.004  0.6636 -0.1456  3.1985
21882SOL     OW70492   5.011   7.894   7.205  0.5021  0.6066  0.2485
21882SOL    HW170493   5.101   7.871   7.227  0.5534  0.8410  0.2874
21882SOL    HW270494   5.018   7.954   7.131  0.3720  0.5129  0.1596
21883SOL     OW70495   8.148   0.125   7.162 -0.1421 -0.1352 -0.5412
21883SOL    HW170496   8.217   0.102   7.100  1.3799  1.9241  0.3121
21883SOL    HW270497   8.084   0.174   7.110  1.6008  2.4515 -0.4241
21884SOL     OW70498   9.594   9.542   8.101 -0.5191  0.6897  0.2046
21884SOL    HW170499   9.594   9.448   8.120 -0.7165  0.2319 -1.8256
21884SOL    HW270500   9.573   9.583   8.185 -2.1896 -1.1583  0.7781
21885SOL     OW70501   7.868   9.661   3.891  0.0113 -0.2954  0.6104
21885SOL    HW170502   7.779   9.683   3.862 -0.2689  0.1161  1.7570
21885SOL    HW270503   7.860   9.573   3.927 -0.0329 -0.0854  1.1236
21886SOL     OW70504   5.732   7.255   6.699  0.0319  0.3870  0.1406
21886SOL    HW170505   5.672   7.327   6.722  0.1714  0.4332  0.3614
21886SOL    HW270506   5.773   7.283   6.618 -1.3909 -0.3329 -0.8675
21887SOL     OW70507   3.745   5.329   7.434 -0.0324 -0.1886 -0.5149
21887SOL    HW170508   3.821   5.297   7.386  1.2990  0.2716  1.1946
21887SOL    HW270509   3.692   5.251   7.449  0.6322 -0.7045 -0.8053
21888SOL     OW70510   8.341   6.926   6.417 -0.5731  0.0078  0.0008
21888SOL    HW170511   8.398   6.980   6.362  0.5422 -0.5433  0.5814
21888SOL    HW270512   8.380   6.931   6.504 -0.6181 -1.4542  0.1333
21889SOL     OW70513   5.173   9.150   6.898  0.3500 -0.1465  0.1932
21889SOL    HW170514   5.089   9.105   6.905 -0.0852  0.9033  3.3210
21889SOL    HW270515   5.228   9.108   6.964  1.2840  1.1373  0.2740
21890SOL     OW70516   6.867   0.766   6.808 -0.0386  0.0805  0.0476
21890SOL    HW170517   6.851   0.811   6.890  0.1322  0.7372 -0.2724
21890SOL    HW270518   6.831   0.678   6.821 -1.0199  0.5286  0.4357
21891SOL     OW70519   5.784   8.982   6.818  0.0342 -0.0078 -0.4651
21891SOL    HW170520   5.830   8.987   6.902  1.0669 -0.7192 -0.9714
21891SOL    HW270521   5.702   8.937   6.840 -0.4964  1.3225  0.4501
21892SOL     OW70522   7.874   7.607   7.371  0.8726 -0.4821 -0.5266
21892SOL    HW170523   7.882   7.678   7.433  0.2133 -0.2953 -0.6445
21892SOL    HW270524   7.830   7.537   7.420 -1.6872  0.4337 -1.3277
21893SOL     OW70525   5.429   9.057   6.459  0.3272 -0.1282 -0.1429
21893SOL    HW170526   5.403   9.050   6.551 -1.6885 -2.4796 -0.7686
21893SOL    HW270527   5.412   9.149   6.437 -1.5310 -0.0641  1.2363
21894SOL     OW70528   7.979   5.082   6.410  0.0656 -0.2791  0.3305
21894SOL    HW170529   7.991   5.038   6.326  0.0954  0.4569 -0.0646
21894SOL    HW270530   8.033   5.033   6.471 -2.2492 -2.6868  0.6219
21895SOL     OW70531   7.067   8.262   5.745  0.2499 -0.2872  0.4164
21895SOL    HW170532   7.051   8.332   5.808  1.6611  0.8628 -0.4709
21895SOL    HW270533   7.159   8.241   5.756  0.8182  0.6931 -1.9921
21896SOL     OW70534   3.804   0.089   5.471 -0.1095  0.6612  0.1670
21896SOL    HW170535   3.724   0.132   5.439 -1.3294 -0.7720  1.1524
21896SOL    HW270536   3.787   0.074   5.564  2.1846  2.1485  0.9178
21897SOL     OW70537   5.624   9.349   7.762  0.2967  0.0237  0.2613
21897SOL    HW170538   5.622   9.395   7.845  2.9446 -2.5390  1.9413
21897SOL    HW270539   5.717   9.345   7.739 -0.1745 -1.1889 -1.7157
21898SOL     OW70540   2.697   8.940   7.414  0.0385  0.3123 -0.1309
21898SOL    HW170541   2.788   8.922   7.437  0.4736  1.5804 -0.7220
21898SOL    HW270542   2.671   9.012   7.471 -1.3922 -1.5211  1.6574
21899SOL     OW70543   5.156   1.152   5.607 -0.5587  0.4741  0.0458
21899SOL    HW170544   5.113   1.206   5.541 -1.2912  1.3020  1.1755
21899SOL    HW270545   5.112   1.067   5.601  0.0922  0.1929 -1.2180
21900SOL     OW70546   7.588   7.145   5.348  0.0845  0.5029  0.5183
21900SOL    HW170547   7.499   7.112   5.332  0.5929 -1.9024  2.1820
21900SOL    HW270548   7.624   7.087   5.415  2.7482  1.7613  0.3099
21901SOL     OW70549   8.184   8.137   4.864  0.4105  0.1416 -0.1289
21901SOL    HW170550   8.220   8.172   4.946  0.6870  1.1053 -0.6433
21901SOL    HW270551   8.107   8.088   4.891  0.5810  0.3220  0.7261
21902SOL     OW70552   6.412   9.267   5.885  0.4234  0.0593  0.4485
21902SOL    HW170553   6.363   9.189   5.859 -1.3914  1.7678 -1.7984
21902SOL    HW270554   6.350   9.318   5.938  0.8966  0.8063  0.3089
21903SOL     OW70555   8.347   9.081   5.314 -0.0885 -0.1546 -0.2531
21903SOL    HW170556   8.283   9.117   5.375  0.5369 -0.3206  0.5185
21903SOL    HW270557   8.402   9.156   5.290 -0.7564  0.0642 -1.1896
21904SOL     OW70558   6.282   0.064   6.548 -0.3992  0.4078 -0.0567
21904SOL    HW170559   6.246   0.150   6.570 -2.4578 -0.5745  0.6609
21904SOL    HW270560   6.318   0.076   6.459 -1.1878  1.8463 -0.2169
21905SOL     OW70561   6.197   0.283   5.510 -0.2963  0.0696 -0.1806
21905SOL    HW170562   6.203   0.208   5.568  0.3395  0.6556  0.5238
21905SOL    HW270563   6.155   0.351   5.562  3.5811  1.8392  0.9573
21906SOL     OW70564   4.928   7.344   9.261 -0.1737  0.4959  0.2890
21906SOL    HW170565   4.891   7.410   9.203  0.2213  1.6601  1.3346
21906SOL    HW270566   5.003   7.386   9.302 -0.0866 -0.4969  1.2109
21907SOL     OW70567   4.069   1.734   8.182  0.2436 -0.0904  0.5707
21907SOL    HW170568   4.074   1.809   8.122  0.1692 -0.8182 -0.3838
21907SOL    HW270569   3.981   1.699   8.169  0.2617 -0.3122  1.0429
21908SOL     OW70570   8.093   0.586   5.384 -0.4877  0.0491 -0.0696
21908SOL    HW170571   8.094   0.562   5.477  0.8467 -0.1386 -0.1179
21908SOL    HW270572   8.170   0.543   5.347 -0.6272  0.6690 -1.1228
21909SOL     OW70573   5.090   9.296   3.884 -0.3432  0.0676  0.0314
21909SOL    HW170574   5.086   9.306   3.789 -0.6827  3.5714  0.2921
21909SOL    HW270575   5.017   9.239   3.905 -1.7936  1.2005 -1.6624
21910SOL     OW70576   6.455   9.641   5.314  0.4710 -0.7133  0.0077
21910SOL    HW170577   6.537   9.686   5.334  0.3445 -0.8125  0.7934
21910SOL    HW270578   6.388   9.691   5.360  0.3507 -1.7839  1.0750
21911SOL     OW70579   7.743   9.127   1.552  1.0157  0.5554 -0.3164
21911SOL    HW170580   7.651   9.106   1.563  0.8539  1.1200 -0.5673
21911SOL    HW270581   7.744   9.217   1.519  1.6826  1.1392  1.1583
21912SOL     OW70582   8.214   9.297   8.325 -0.1422 -0.2754  0.0109
21912SOL    HW170583   8.274   9.237   8.371 -1.0753 -0.8175  0.5586
21912SOL    HW270584   8.127   9.273   8.357 -0.7336  0.0159 -1.2928
21913SOL     OW70585   5.506   9.272   4.998 -0.6440 -0.3437 -0.0131
21913SOL    HW170586   5.573   9.322   4.953 -0.7002  0.2327  0.5299
21913SOL    HW270587   5.513   9.298   5.090 -1.1487 -0.7939  0.1653
21914SOL     OW70588   9.248   7.760   6.738 -0.1470  0.7758 -0.5412
21914SOL    HW170589   9.297   7.756   6.656 -0.1019  1.4931 -0.5600
21914SOL    HW270590   9.278   7.841   6.779 -0.9485  0.9732 -0.3238
21915SOL     OW70591   5.639   7.261   5.790  0.8943  0.2163  0.2771
21915SOL    HW170592   5.610   7.350   5.812 -1.0987 -0.5471  0.9400
21915SOL    HW270593   5.710   7.243   5.852  1.8426  1.5865 -0.3514
21916SOL     OW70594   5.768   7.677   6.973 -0.1302  0.2449 -0.2697
21916SOL    HW170595   5.768   7.611   7.042 -1.7554  0.7214  0.2393
21916SOL    HW270596   5.854   7.669   6.932  0.8937 -0.0409  1.8063
21917SOL     OW70597   5.940   6.563   4.685  0.6356 -0.0132  0.7285
21917SOL    HW170598   6.033   6.544   4.683  0.8811  1.1647 -0.4060
21917SOL    HW270599   5.934   6.655   4.659 -0.9939 -0.6960 -1.6613
21918SOL     OW70600   9.201   7.498   7.766 -0.3561  0.2988  0.1458
21918SOL    HW170601   9.207   7.464   7.677 -0.0022  0.5504  0.0738
21918SOL    HW270602   9.112   7.475   7.794 -0.2768 -0.2910 -0.0605
21919SOL     OW70603   7.180   6.210   7.051 -0.0749 -0.4399 -0.3769
21919SOL    HW170604   7.146   6.294   7.021 -0.8004 -1.2725 -1.9740
21919SOL    HW270605   7.271   6.209   7.022  0.4428  0.4474  1.0973
21920SOL     OW70606   4.424   9.225   6.058  0.6520  0.0848  0.0844
21920SOL    HW170607   4.519   9.222   6.046  0.3943 -1.1283 -2.0852
21920SOL    HW270608   4.392   9.274   5.982 -0.3934  2.0766  1.6923
21921SOL     OW70609   6.020   0.913   7.784 -0.0731  0.4848  0.0628
21921SOL    HW170610   6.095   0.944   7.732  0.2861 -1.6270 -0.7843
21921SOL    HW270611   5.944   0.953   7.743  0.1860 -1.2649 -2.2993
21922SOL     OW70612   6.478   9.659   6.019 -0.3784 -0.1444  0.0963
21922SOL    HW170613   6.519   9.676   5.934 -1.6043  0.8345 -0.3204
21922SOL    HW270614   6.395   9.615   5.998 -0.2895 -0.7008  0.8410
21923SOL     OW70615   4.025   7.829   5.439 -0.1560 -0.3259  0.1951
21923SOL    HW170616   3.938   7.869   5.443 -0.1920 -0.5217  1.8868
21923SOL    HW270617   4.049   7.835   5.346 -0.6737  2.5114  0.1361
21924SOL     OW70618   6.497   7.609   5.236  0.2398 -0.2533 -0.0118
21924SOL    HW170619   6.553   7.601   5.159  0.2044 -1.8798  0.1116
21924SOL    HW270620   6.465   7.700   5.233 -0.2132 -0.4279 -2.2236
21925SOL     OW70621   7.917   7.537   4.516  0.4202 -0.1802 -0.0776
21925SOL    HW170622   7.968   7.459   4.540  2.0114  1.2891  1.5599
21925SOL    HW270623   7.977   7.610   4.528 -1.4368  1.4538 -0.2159
21926SOL     OW70624   7.638   4.200   6.157  0.3339 -0.3508  0.3059
21926SOL    HW170625   7.702   4.272   6.161 -0.6214  0.5274  0.3870
21926SOL    HW270626   7.682   4.132   6.107  1.5458  0.0002  0.8399
21927SOL     OW70627   5.738   9.615   5.909 -0.1134  0.4673  0.0247
21927SOL    HW170628   5.793   9.688   5.878  0.5653  0.2018  0.5849
21927SOL    HW270629   5.696   9.649   5.988 -0.6652  0.6244 -0.3307
21928SOL     OW70630   8.209   7.055   7.480 -0.0289 -0.4608  0.2614
21928SOL    HW170631   8.293   7.057   7.435 -0.0059  0.6355  0.3192
21928SOL    HW270632   8.144   7.049   7.410  0.0021  1.3551  0.0165
21929SOL     OW70633   6.817   8.618   6.622 -0.4267  0.1761 -0.2688
21929SOL    HW170634   6.789   8.637   6.533 -0.1262 -0.9521 -0.6260
21929SOL    HW270635   6.756   8.551   6.653  0.2972 -0.4563 -0.1510
21930SOL     OW70636   5.358   7.407   4.642 -0.5432  0.1556  0.0567
21930SOL    HW170637   5.358   7.480   4.579  3.6789  1.1982  0.9827
21930SOL    HW270638   5.354   7.450   4.727  2.1050 -0.5306  0.6203
21931SOL     OW70639   6.447   8.681   6.143  0.0434  0.6310 -0.1636
21931SOL    HW170640   6.367   8.731   6.124  0.0756  0.9780  0.5560
21931SOL    HW270641   6.415   8.596   6.174 -0.0915  1.1151  1.0885
21932SOL     OW70642   6.140   7.952   7.559 -0.0449  0.0135  0.1299
21932SOL    HW170643   6.105   7.943   7.470 -1.0773 -0.3268  0.5590
21932SOL    HW270644   6.167   8.043   7.565  0.2445 -0.0144 -0.6048
21933SOL     OW70645   8.014   7.343   7.752  0.2881  0.2575 -0.2400
21933SOL    HW170646   8.006   7.436   7.773  2.4323  0.3642  0.3998
21933SOL    HW270647   8.066   7.341   7.671  2.3692 -0.3609  1.0367
21934SOL     OW70648   6.562   8.295   9.107 -0.0657 -0.1078  0.1472
21934SOL    HW170649   6.652   8.322   9.091  0.4027  0.5132  3.0942
21934SOL    HW270650   6.564   8.258   9.195 -2.6374 -0.3603  0.1740
21935SOL     OW70651   7.529   8.076   5.116 -0.1212 -0.0384 -0.3347
21935SOL    HW170652   7.461   8.139   5.091  1.6313  2.5613  0.9066
21935SOL    HW270653   7.570   8.115   5.194  2.5357 -1.6191 -0.7979
21936SOL     OW70654   7.192   9.197   5.809  0.1738  0.0954  0.0962
21936SOL    HW170655   7.218   9.118   5.855  0.3328  0.7957  1.2448
21936SOL    HW270656   7.111   9.174   5.764  0.2891 -0.7427  0.3144
21937SOL     OW70657   4.506   8.800   4.595  0.0130 -0.2415  0.3827
21937SOL    HW170658   4.429   8.852   4.618  0.4040 -0.5445  2.6227
21937SOL    HW270659   4.556   8.856   4.536 -0.3978  1.2664  1.3997
21938SOL     OW70660   8.110   7.757   6.603 -0.3790  0.7240 -0.3294
21938SOL    HW170661   8.142   7.817   6.671  0.7783 -1.3966  1.0858
21938SOL    HW270662   8.088   7.815   6.530  2.4177  2.7732  0.2562
21939SOL     OW70663   5.559   8.450   5.844  0.1269 -0.3202 -0.2986
21939SOL    HW170664   5.559   8.452   5.748  1.9300 -0.4432 -0.3298
21939SOL    HW270665   5.616   8.522   5.870  3.3926 -2.9238  0.4789
21940SOL     OW70666   5.957   8.822   7.383 -0.5618 -0.1083 -0.2431
21940SOL    HW170667   5.865   8.830   7.355 -1.4832 -1.4680  2.0656
21940SOL    HW270668   5.986   8.912   7.396 -2.0629  0.3237  0.3808
21941SOL     OW70669   8.406   8.540   6.441 -0.0947 -0.1234 -0.3653
21941SOL    HW170670   8.477   8.603   6.450  0.3971 -0.5176 -1.3202
21941SOL    HW270671   8.408   8.490   6.522  1.2626 -0.6559 -0.6986
21942SOL     OW70672   7.107   8.982   6.920  0.2311 -0.1491  0.0834
21942SOL    HW170673   7.170   8.930   6.971  2.7396  0.7212 -1.9333
21942SOL    HW270674   7.122   8.957   6.829 -1.3245  1.1903 -0.5988
21943SOL     OW70675   7.703   0.627   5.823  0.2083  0.3932  0.4288
21943SOL    HW170676   7.765   0.564   5.859 -1.1144  0.1101  2.3851
21943SOL    HW270677   7.633   0.632   5.889 -1.5712  1.1067 -1.4061
21944SOL     OW70678   7.619   0.192   5.265  0.6204 -0.1338  0.2811
21944SOL    HW170679   7.615   0.206   5.359 -1.3777 -0.5113  0.2810
21944SOL    HW270680   7.530   0.167   5.240  1.4741 -1.6633 -1.4566
21945SOL     OW70681   5.426   7.426   5.338  0.0572 -0.1662  0.3050
21945SOL    HW170682   5.491   7.496   5.323  0.8416 -0.5357  1.7019
21945SOL    HW270683   5.342   7.472   5.342  0.4649  0.5993  0.3374
21946SOL     OW70684   4.780   5.826   8.645  0.1744 -0.1022 -0.4671
21946SOL    HW170685   4.757   5.876   8.566 -0.8958 -0.2462 -0.2573
21946SOL    HW270686   4.704   5.772   8.662  0.5015 -0.2662  0.5315
21947SOL     OW70687   6.942   8.081   8.926  0.6322  0.3715  0.4873
21947SOL    HW170688   6.938   8.120   8.839 -0.1890  1.0045  0.7997
21947SOL    HW270689   6.904   7.994   8.916 -2.9144  1.7297  0.8908
21948SOL     OW70690   6.157   9.102   5.467 -0.2048  0.0306  0.0377
21948SOL    HW170691   6.089   9.078   5.404  1.4517  0.0773 -1.8624
21948SOL    HW270692   6.162   9.027   5.526 -2.6010  0.4665  0.9441
21949SOL     OW70693   5.747   8.754   6.312 -0.3218 -0.6320  0.0129
21949SOL    HW170694   5.663   8.786   6.279  0.3663  2.3248  0.8569
21949SOL    HW270695   5.735   8.750   6.407  0.7088  0.6389  0.2166
21950SOL     OW70696   6.322   7.723   6.441  0.2453  0.1094  0.2593
21950SOL    HW170697   6.310   7.654   6.376  1.6436 -0.9311  1.0513
21950SOL    HW270698   6.252   7.708   6.504 -0.8007  0.8041 -0.6862
21951SOL     OW70699   4.951   8.668   8.353 -0.0382  0.0150 -0.6369
21951SOL    HW170700   4.871   8.638   8.396  0.9200 -1.9389 -0.1253
21951SOL    HW270701   4.924   8.747   8.305 -2.4195 -0.9826 -1.0740
21952SOL     OW70702   7.374   9.484   3.692  0.3625 -0.4116  0.1262
21952SOL    HW170703   7.467   9.478   3.718  0.5667  0.9195 -0.2605
21952SOL    HW270704   7.375   9.474   3.597  0.7036  4.2284 -0.5797
21953SOL     OW70705   7.579   6.397   4.810 -0.2107 -0.0351  0.0463
21953SOL    HW170706   7.485   6.398   4.794 -0.2328  1.4470  0.1706
21953SOL    HW270707   7.589   6.428   4.900  0.4618  1.4421 -0.4992
21954SOL     OW70708   6.326   6.595   7.814 -0.1580 -0.2066  0.3596
21954SOL    HW170709   6.404   6.606   7.869 -0.5172 -1.3285  1.1131
21954SOL    HW270710   6.344   6.650   7.738  1.6308 -0.8774  0.2400
21955SOL     OW70711   7.617   0.320   8.741 -0.2410 -0.1594 -0.4855
21955SOL    HW170712   7.682   0.315   8.671 -0.0244 -0.0565 -0.2958
21955SOL    HW270713   7.533   0.313   8.697 -0.2076  1.8339 -0.9885
21956SOL     OW70714   6.026   0.468   5.627  0.7190  0.1405 -0.1687
21956SOL    HW170715   5.998   0.553   5.592 -0.5087 -0.8002 -1.5800
21956SOL    HW270716   5.986   0.463   5.714 -1.8457 -0.2553 -1.2943
21957SOL     OW70717   6.667   6.712   6.996 -0.7145 -0.5605 -0.1824
21957SOL    HW170718   6.716   6.775   7.049 -0.7270 -1.2869  0.7274
21957SOL    HW270719   6.586   6.757   6.973 -0.8767 -0.3633  0.7497
21958SOL     OW70720   4.401   0.502   8.688 -0.3004 -0.0763  0.1920
21958SOL    HW170721   4.471   0.437   8.696  1.1956  1.5490  0.9518
21958SOL    HW270722   4.337   0.461   8.629  0.7693 -2.0397  0.3131
21959SOL     OW70723   7.598   7.004   6.549 -0.2451 -0.2481 -0.2921
21959SOL    HW170724   7.653   7.076   6.579  1.2777 -1.7536  0.7422
21959SOL    HW270725   7.511   7.024   6.582 -0.2177  1.8501 -1.3402
21960SOL     OW70726   7.064   9.471   5.633  0.4521 -0.1633  0.1303
21960SOL    HW170727   7.072   9.540   5.699  0.7779  3.3293 -3.2039
21960SOL    HW270728   6.971   9.468   5.613  0.4847 -0.4772  0.0288
21961SOL     OW70729   5.506   8.176   9.031  0.4573  0.1248  0.6468
21961SOL    HW170730   5.442   8.187   9.100 -0.7828 -0.6802 -0.3253
21961SOL    HW270731   5.461   8.203   8.951  1.3140 -0.4666 -0.0707
21962SOL     OW70732   6.452   9.389   6.716 -0.2200  0.3286 -0.0222
21962SOL    HW170733   6.496   9.408   6.633  3.4246  0.3699  1.7109
21962SOL    HW270734   6.452   9.473   6.763 -2.0646  0.2642  0.1650
21963SOL     OW70735   6.729   0.349   4.115 -0.3531  0.4749  0.1837
21963SOL    HW170736   6.699   0.318   4.200 -2.4674  4.3159  1.0888
21963SOL    HW270737   6.823   0.363   4.125 -0.5549  0.7789  1.8332
21964SOL     OW70738   7.464   8.608   3.580  0.1192  0.2744  0.2966
21964SOL    HW170739   7.379   8.571   3.604  0.0634 -0.6598 -1.2083
21964SOL    HW270740   7.513   8.610   3.662 -0.5720 -1.3017  0.7788
21965SOL     OW70741   4.548   8.248   7.283  0.3207 -0.5775  0.2768
21965SOL    HW170742   4.464   8.206   7.300  0.7329 -2.4810 -1.8715
21965SOL    HW270743   4.546   8.269   7.189  2.2128 -0.6661  0.1684
21966SOL     OW70744   3.784   0.055   7.442 -0.0526  0.3500 -0.1952
21966SOL    HW170745   3.762  -0.032   7.409  0.6564 -0.1111  0.5127
21966SOL    HW270746   3.845   0.091   7.378 -0.4129  0.3765 -0.5341
21967SOL     OW70747   6.587   5.971   6.739  0.5495  0.6507 -0.3501
21967SOL    HW170748   6.605   5.908   6.670  0.6848  0.1526  0.1288
21967SOL    HW270749   6.538   6.041   6.696  1.7628  1.0022 -1.2331
21968SOL     OW70750   6.761   8.711   7.990 -0.5957  0.6575 -0.1242
21968SOL    HW170751   6.730   8.768   8.060 -2.0033 -0.2493  0.0215
21968SOL    HW270752   6.690   8.649   7.976  0.0719  0.2003 -1.6799
21969SOL     OW70753   6.985   7.291   7.247  0.0417 -0.0311 -0.1878
21969SOL    HW170754   6.903   7.277   7.200  0.3611 -2.0063 -0.2187
21969SOL    HW270755   6.966   7.363   7.307 -1.8812 -0.7899  0.1797
21970SOL     OW70756   6.947   9.410   7.015 -0.1127  0.2855 -0.5415
21970SOL    HW170757   6.985   9.474   7.075 -0.0476  0.3645 -0.6690
21970SOL    HW270758   6.859   9.395   7.050  0.4963 -0.9487  0.5952
21971SOL     OW70759   9.087   8.536   5.968 -0.5534  0.3747 -0.2124
21971SOL    HW170760   9.159   8.599   5.979 -0.8604  0.7466 -0.2876
21971SOL    HW270761   9.056   8.520   6.057 -1.0052  0.9687 -0.2547
21972SOL     OW70762   8.636   9.187   7.569 -0.1047 -0.0303 -0.9800
21972SOL    HW170763   8.707   9.134   7.534  1.2737  1.1026 -0.0129
21972SOL    HW270764   8.580   9.204   7.493 -1.5187 -4.0743 -1.0473
21973SOL     OW70765   7.137   8.543   5.800 -0.4665 -0.3133  0.0942
21973SOL    HW170766   7.217   8.578   5.840 -1.3085  1.5039  0.2779
21973SOL    HW270767   7.067   8.572   5.859 -1.3394 -1.2333 -0.4705
21974SOL     OW70768   8.037   8.700   3.792 -0.2105 -0.0040 -0.8235
21974SOL    HW170769   8.061   8.610   3.814  2.3800  0.4107 -1.6905
21974SOL    HW270770   8.028   8.701   3.697 -3.5423 -0.0023 -0.6307
21975SOL     OW70771   6.208   8.886   6.107 -0.4389 -0.2243 -0.0287
21975SOL    HW170772   6.161   8.855   6.029  2.8329 -1.0122 -1.8467
21975SOL    HW270773   6.138   8.916   6.166 -3.1506  3.3615 -4.3661
21976SOL     OW70774   4.813   6.751   5.433  0.0902  0.1999 -0.3515
21976SOL    HW170775   4.805   6.748   5.338 -1.5726  1.3592 -0.2751
21976SOL    HW270776   4.886   6.691   5.452 -0.1720 -0.8120 -2.2600
21977SOL     OW70777   4.553   7.651   4.642 -0.0695 -1.0175  0.2151
21977SOL    HW170778   4.513   7.587   4.701  1.0714 -1.7689  0.2092
21977SOL    HW270779   4.522   7.627   4.555  1.5365 -2.5637  0.0137
21978SOL     OW70780   6.679   9.256   6.893  0.1160  0.3425 -0.5133
21978SOL    HW170781   6.625   9.311   6.950 -0.3365  0.8467 -1.3962
21978SOL    HW270782   6.739   9.317   6.850  0.6576 -0.0705 -0.3561
21979SOL     OW70783   5.489   0.451   5.148  0.5710  0.1411  0.2235
21979SOL    HW170784   5.583   0.448   5.131  0.0493 -0.8109 -3.4369
21979SOL    HW270785   5.464   0.542   5.131  0.7980  0.4032  1.2364
21980SOL     OW70786   7.699   0.952   7.770  0.1055  0.6652 -0.0142
21980SOL    HW170787   7.735   0.872   7.731  1.0664  1.7844 -1.5349
21980SOL    HW270788   7.692   0.933   7.863 -0.7754 -1.5861 -0.4776
21981SOL     OW70789   6.159   8.610   5.988  0.1590 -0.4663 -0.7364
21981SOL    HW170790   6.201   8.650   5.912  0.5651  2.4508  0.8696
21981SOL    HW270791   6.065   8.614   5.969  0.3165 -1.7839 -1.9400
21982SOL     OW70792   8.775   9.094   6.024  0.0986  0.6162  0.5505
21982SOL    HW170793   8.732   9.156   5.966  0.9901 -0.5779 -1.5004
21982SOL    HW270794   8.807   9.147   6.097 -1.3480  2.1154  0.1653
21983SOL     OW70795   6.944   9.408   9.015 -0.4175 -0.1607 -0.2676
21983SOL    HW170796   6.969   9.318   9.034 -0.8455 -0.2254 -0.0031
21983SOL    HW270797   7.009   9.438   8.951  0.5747 -0.1907  0.6950
21984SOL     OW70798   8.216   7.795   3.917  0.5121  0.1206  0.0119
21984SOL    HW170799   8.270   7.842   3.981  3.1853  0.6603 -2.4543
21984SOL    HW270800   8.186   7.863   3.857 -0.2161 -0.6356 -0.4906
21985SOL     OW70801   7.505   9.681   4.608  0.6905  0.1657  0.3664
21985SOL    HW170802   7.418   9.690   4.569  1.1081  1.4407 -0.3454
21985SOL    HW270803   7.535   9.595   4.580 -0.2092 -0.1667  0.3726
21986SOL     OW70804   6.730   9.429   7.978  0.2047  0.5647 -0.6781
21986SOL    HW170805   6.649   9.384   8.004  0.3932  1.2698  1.2839
21986SOL    HW270806   6.759   9.383   7.899 -1.5367 -0.3820 -0.8094
21987SOL     OW70807   5.311   8.541   6.602  0.2708 -0.4084 -0.7380
21987SOL    HW170808   5.385   8.572   6.655 -1.7576  1.2890  1.3006
21987SOL    HW270809   5.254   8.497   6.665 -1.2144 -0.2616 -1.9353
21988SOL     OW70810   5.036   9.339   5.142  0.1073 -0.1559  0.3586
21988SOL    HW170811   5.086   9.380   5.071 -3.0810 -0.9444 -2.5954
21988SOL    HW270812   4.999   9.413   5.190  2.5200  0.3917  1.5480
21989SOL     OW70813   7.681   8.333   7.308  0.2623 -0.1581  0.0184
21989SOL    HW170814   7.600   8.323   7.358  0.4549  0.3930  0.4570
21989SOL    HW270815   7.740   8.266   7.342 -0.1331 -0.8076 -0.5639
21990SOL     OW70816   4.502   7.066   5.001  0.1712 -0.1690  0.3102
21990SOL    HW170817   4.477   6.994   4.943  0.9931 -1.0669  1.0260
21990SOL    HW270818   4.597   7.061   5.006  0.0813 -0.9241  2.6900
21991SOL     OW70819   3.977   7.291   8.291 -0.8022  0.0061 -0.3091
21991SOL    HW170820   3.909   7.355   8.267 -0.6453  0.8589  1.3990
21991SOL    HW270821   3.933   7.231   8.351  0.1596  1.1863  1.6682
21992SOL     OW70822   7.048   6.493   3.822  0.2669  0.1532  0.3252
21992SOL    HW170823   7.009   6.523   3.740  0.2855  0.4587  0.4282
21992SOL    HW270824   7.130   6.542   3.830  0.2308  0.1787  0.5620
21993SOL     OW70825   6.085   9.787   4.811 -0.0399 -0.2732 -0.2450
21993SOL    HW170826   6.052   9.810   4.724  0.1202 -2.8006 -1.0414
21993SOL    HW270827   6.129   9.703   4.799  0.0376 -0.6705  2.2727
21994SOL     OW70828   8.103   1.651   6.121 -0.0663 -0.8203  0.1619
21994SOL    HW170829   8.185   1.700   6.128 -0.2502 -0.4972  0.0860
21994SOL    HW270830   8.126   1.570   6.075 -0.1101  0.0342 -1.4399
21995SOL     OW70831   5.871   0.056   5.553 -0.0623 -0.5433  0.0525
21995SOL    HW170832   5.799   0.079   5.613 -1.0028 -1.7324 -0.5773
21995SOL    HW270833   5.834   0.066   5.466  1.4119  1.5263 -0.4018
21996SOL     OW70834   8.151   7.386   3.555  0.3539  0.8530 -0.5867
21996SOL    HW170835   8.203   7.397   3.635 -0.5188 -0.2161  0.1592
21996SOL    HW270836   8.215   7.357   3.489  1.3035  2.9177 -0.6451
21997SOL     OW70837   6.703   5.651   7.317 -0.2882  0.2514 -0.1803
21997SOL    HW170838   6.705   5.680   7.226 -1.7841 -2.4980 -1.2240
21997SOL    HW270839   6.776   5.696   7.359  0.5700  1.4570 -2.7808
21998SOL     OW70840   2.718   1.483   6.966  0.1885  0.0135 -0.1414
21998SOL    HW170841   2.663   1.526   6.900 -1.8187 -1.9022  0.1590
21998SOL    HW270842   2.779   1.429   6.915  0.8820  1.0443 -0.4445
21999SOL     OW70843   5.702   7.454   7.129 -0.2778  0.4091  0.3719
21999SOL    HW170844   5.737   7.384   7.074 -0.5008  1.2810 -0.9236
21999SOL    HW270845   5.745   7.442   7.213 -0.8409 -1.7018  0.4182
22000SOL     OW70846   6.456   7.977   7.604 -0.1460 -0.0766  0.7110
22000SOL    HW170847   6.418   7.892   7.628  1.1226 -1.1044 -0.7078
22000SOL    HW270848   6.521   7.994   7.671 -0.9659  0.1978  1.4567
22001SOL     OW70849   4.510   9.703   7.204 -1.2159 -0.3409  0.0960
22001SOL    HW170850   4.485   9.786   7.245 -3.2906 -1.2662  0.8684
22001SOL    HW270851   4.450   9.693   7.130  0.5490 -0.1044 -1.4240
22002SOL     OW70852   5.365   7.864   2.207  0.1998  0.0096 -0.1012
22002SOL    HW170853   5.380   7.943   2.155  2.1118 -0.4715 -0.3461
22002SOL    HW270854   5.365   7.793   2.143 -0.7726 -0.2839  0.2023
22003SOL     OW70855   0.149   0.970   7.544  0.3043 -0.3268 -0.3625
22003SOL    HW170856   0.112   0.890   7.508 -1.9140  0.9653 -1.2387
22003SOL    HW270857   0.175   1.021   7.468  0.2774  0.3772  0.0852
22004SOL     OW70858   7.432   9.182   4.896  0.2972 -0.3919  0.8283
22004SOL    HW170859   7.502   9.195   4.832  1.5612 -0.9674  2.0391
22004SOL    HW270860   7.428   9.087   4.908  0.1917 -0.2871  1.7014
22005SOL     OW70861   7.450   7.571   6.334  0.3881 -0.2525 -0.4217
22005SOL    HW170862   7.383   7.639   6.329  0.5081 -0.0874  0.1280
22005SOL    HW270863   7.404   7.496   6.372  1.1277  0.7246  2.6898
22006SOL     OW70864   5.256   8.129   5.532 -0.8256 -0.0672 -0.5337
22006SOL    HW170865   5.322   8.124   5.600 -1.2937  1.7900  0.1294
22006SOL    HW270866   5.300   8.174   5.459 -0.9412 -0.1015 -0.6246
22007SOL     OW70867   7.259   9.685   7.022 -0.2247 -0.2265  0.3754
22007SOL    HW170868   7.243   9.739   7.100  1.1145  0.6722  0.0714
22007SOL    HW270869   7.172   9.667   6.986 -0.8409 -0.3341  1.8478
22008SOL     OW70870   4.249   7.251   4.733 -0.0504 -0.7691 -0.0570
22008SOL    HW170871   4.287   7.163   4.739 -2.4180 -1.8722 -0.1390
22008SOL    HW270872   4.179   7.252   4.799  0.7533  1.5473  0.8628
22009SOL     OW70873   9.169   9.432   8.024  0.1582 -0.1725  0.6885
22009SOL    HW170874   9.128   9.515   8.003 -0.6778 -0.8730 -0.5374
22009SOL    HW270875   9.155   9.422   8.119  0.0486  0.9513  0.7970
22010SOL     OW70876   4.000   8.930   8.583 -0.3578  0.1903  0.3496
22010SOL    HW170877   4.034   9.018   8.602 -0.5337  0.5819 -1.0216
22010SOL    HW270878   3.985   8.931   8.489  1.2809 -1.9102  0.0033
22011SOL     OW70879   5.427   0.579   5.884  0.0046 -0.1242  0.4188
22011SOL    HW170880   5.412   0.542   5.971  1.0071 -1.7791 -0.0622
22011SOL    HW270881   5.366   0.532   5.827  0.0951  0.1817  0.0637
22012SOL     OW70882   9.107   9.323   6.798  0.9641 -0.1996 -0.6889
22012SOL    HW170883   9.111   9.269   6.876  0.1740 -0.0814 -0.5610
22012SOL    HW270884   9.185   9.378   6.803  0.8404 -0.0832  0.1029
22013SOL     OW70885   7.422   0.197   2.974  0.0015 -0.7921 -0.0532
22013SOL    HW170886   7.474   0.278   2.975 -1.1274 -0.0548  0.3403
22013SOL    HW270887   7.445   0.153   3.056  1.2780 -1.3354 -0.6618
22014SOL     OW70888   2.657   0.974   7.205 -0.1338 -0.2767 -0.3094
22014SOL    HW170889   2.738   0.979   7.154 -0.6584  2.1952 -1.0490
22014SOL    HW270890   2.651   1.059   7.248 -0.2279 -1.8880  3.2246
22015SOL     OW70891   6.225   0.482   5.129 -0.0605 -0.5447 -0.5937
22015SOL    HW170892   6.221   0.437   5.045  1.2417 -1.6886 -0.0818
22015SOL    HW270893   6.265   0.567   5.109 -0.2030 -0.6168 -1.1953
22016SOL     OW70894   5.985   8.881   6.262  0.2584 -0.1697 -1.0208
22016SOL    HW170895   5.932   8.956   6.288  1.4139  0.8260 -1.4560
22016SOL    HW270896   5.937   8.805   6.295 -0.6445  0.7818 -0.0833
22017SOL     OW70897   2.786   8.769   7.153 -0.0245 -0.3639 -0.0263
22017SOL    HW170898   2.792   8.705   7.224  1.2693  0.8002  0.9786
22017SOL    HW270899   2.701   8.810   7.165 -0.3456 -1.0316  0.0634
22018SOL     OW70900   8.214   8.935   3.587 -0.0678  0.0250  0.1319
22018SOL    HW170901   8.269   8.877   3.534 -1.7935  0.2326 -2.0112
22018SOL    HW270902   8.277   8.989   3.635  1.5794 -2.2068  0.6644
22019SOL     OW70903   8.036   9.496   5.495 -0.5670 -0.1583 -0.0315
22019SOL    HW170904   7.948   9.532   5.487 -0.2316  0.8390  0.6409
22019SOL    HW270905   8.071   9.498   5.406 -0.5932  1.0826 -0.0195
22020SOL     OW70906   7.885   0.885   7.219  0.5800 -0.1173 -0.6153
22020SOL    HW170907   7.903   0.820   7.152 -0.4761  0.2969 -1.3404
22020SOL    HW270908   7.790   0.882   7.230  0.5613  0.9495 -0.3214
22021SOL     OW70909   5.330   0.799   3.721 -0.2258 -0.6499 -0.5687
22021SOL    HW170910   5.299   0.870   3.777  0.0726 -0.7479 -0.2807
22021SOL    HW270911   5.425   0.801   3.729 -0.1730 -0.5407 -1.2251
22022SOL     OW70912   7.558   9.449   4.454 -0.1369  0.0507  0.0916
22022SOL    HW170913   7.543   9.491   4.370  1.8094 -0.2998 -0.4650
22022SOL    HW270914   7.652   9.456   4.469 -0.1621 -1.6100  1.3239
22023SOL     OW70915   3.992   0.112   6.711  0.5111  0.5598 -0.5460
22023SOL    HW170916   4.037   0.030   6.729  2.0279  1.6971  1.2879
22023SOL    HW270917   3.914   0.110   6.767 -0.1741 -0.1231 -1.4764
22024SOL     OW70918   8.095   0.692   6.892 -0.4670  0.0202  0.3433
22024SOL    HW170919   8.013   0.686   6.941 -0.0122  1.2080  1.3003
22024SOL    HW270920   8.081   0.762   6.829 -0.5439 -0.5088 -0.2375
22025SOL     OW70921   6.625   7.706   6.808 -0.4256 -0.3309 -0.2934
22025SOL    HW170922   6.682   7.695   6.884 -0.9367 -1.0884 -0.0180
22025SOL    HW270923   6.676   7.762   6.749  0.3026 -0.3895  0.2615
22026SOL     OW70924   7.197   9.285   6.461 -0.2261  0.0623 -0.1288
22026SOL    HW170925   7.228   9.229   6.390 -2.0916  1.2586 -2.0208
22026SOL    HW270926   7.107   9.257   6.477 -1.3137  2.5544 -1.3373
22027SOL     OW70927   6.670   8.658   6.367 -0.2290  0.0086 -0.2094
22027SOL    HW170928   6.631   8.673   6.281 -0.4931  1.9403  0.1929
22027SOL    HW270929   6.596   8.668   6.428 -0.1448 -1.8134  0.2494
22028SOL     OW70930   5.233   6.806   4.819 -0.6781 -0.7115  0.1771
22028SOL    HW170931   5.269   6.860   4.889 -0.7497  1.3408 -1.2815
22028SOL    HW270932   5.301   6.743   4.799  0.6197  0.6965  0.0040
22029SOL     OW70933   8.228   0.088   7.669 -0.1753  0.0665  0.5903
22029SOL    HW170934   8.135   0.108   7.668  0.0077  1.2605 -2.0589
22029SOL    HW270935   8.246   0.053   7.581  1.2029 -3.8946  2.2263
22030SOL     OW70936   6.412   7.493   4.673 -0.5430  0.6748  0.1818
22030SOL    HW170937   6.378   7.565   4.726 -0.8369  0.0339  0.8651
22030SOL    HW270938   6.365   7.415   4.703  1.0060 -0.1112  0.6733
22031SOL     OW70939   5.837   7.007   6.624 -0.0344 -0.3159 -0.4287
22031SOL    HW170940   5.813   7.081   6.681  1.9318 -0.0016  0.0636
22031SOL    HW270941   5.843   6.932   6.684  0.1670 -0.3903 -0.5411
22032SOL     OW70942   6.661   8.243   5.458 -0.0670  0.6133  0.2588
22032SOL    HW170943   6.601   8.198   5.517  0.7192  0.0393  0.6450
22032SOL    HW270944   6.694   8.317   5.509  3.2017 -1.7164  1.9370
22033SOL     OW70945   6.919   9.190   5.628 -0.3593  0.7886 -0.1482
22033SOL    HW170946   6.923   9.225   5.539 -2.3420 -2.3087 -1.6268
22033SOL    HW270947   6.847   9.238   5.669 -0.6871  0.9377 -0.8824
22034SOL     OW70948   6.796   1.712   5.360 -0.1986 -0.1627  0.1135
22034SOL    HW170949   6.700   1.712   5.355 -0.1951  1.0142 -0.1700
22034SOL    HW270950   6.815   1.707   5.454 -0.5289 -0.6111  0.1589
22035SOL     OW70951   6.905   8.190   6.799 -0.4552 -0.6572  0.2755
22035SOL    HW170952   6.837   8.199   6.865 -2.0456 -0.8253 -1.2763
22035SOL    HW270953   6.939   8.279   6.788 -0.6530 -0.5099  0.8085
22036SOL     OW70954   3.044   7.089   7.721  1.1116 -0.3275  0.0727
22036SOL    HW170955   2.958   7.053   7.702  1.4152 -0.0302 -2.0993
22036SOL    HW270956   3.041   7.178   7.685  1.8921  0.1772  1.1946
22037SOL     OW70957   6.499   9.805   4.998 -0.3596  0.0401 -0.1781
22037SOL    HW170958   6.509   9.884   5.052 -1.7008 -1.0291  1.7831
22037SOL    HW270959   6.453   9.835   4.920  1.3349  1.5864 -0.6636
22038SOL     OW70960   4.402   7.795   6.602 -0.3686 -0.2613  0.7786
22038SOL    HW170961   4.453   7.838   6.534 -0.5058 -0.5851  0.4670
22038SOL    HW270962   4.461   7.729   6.639  0.1015  0.6870  1.7795
22039SOL     OW70963   6.478   7.195   5.367  0.1509 -0.2302  0.0282
22039SOL    HW170964   6.520   7.115   5.336 -0.0065 -1.5919  2.9832
22039SOL    HW270965   6.522   7.214   5.450 -0.0732  2.5882 -0.4051
22040SOL     OW70966   6.911   7.967   7.014  0.4222 -0.2027  0.5135
22040SOL    HW170967   6.923   8.059   6.991  0.3109 -0.6527 -1.5487
22040SOL    HW270968   6.837   7.967   7.075  1.0088  1.1447  1.2650
22041SOL     OW70969   6.044   8.771   5.797  0.4834  0.5252 -0.1568
22041SOL    HW170970   6.031   8.865   5.796 -2.4087  0.2219 -0.1936
22041SOL    HW270971   6.073   8.750   5.708 -2.2806  1.0902 -1.2966
22042SOL     OW70972   2.631   8.940   4.164 -0.4053  0.1084  0.5129
22042SOL    HW170973   2.554   8.995   4.175 -1.3246 -1.6660  4.9918
22042SOL    HW270974   2.705   9.002   4.168 -1.4886  1.4011  1.5346
22043SOL     OW70975   5.663   6.157   6.737  0.0455 -0.3680 -0.0672
22043SOL    HW170976   5.602   6.095   6.778 -1.8583  0.3934 -1.5817
22043SOL    HW270977   5.631   6.243   6.765  0.4763  0.0415 -0.8067
22044SOL     OW70978   6.002   6.537   6.064  0.7279  0.5567  0.3221
22044SOL    HW170979   6.020   6.591   6.141  0.3825 -0.5602  1.2117
22044SOL    HW270980   6.088   6.511   6.031  0.8964  1.5656 -0.0773
22045SOL     OW70981   7.285   7.274   6.856  0.6298 -0.5371  0.0477
22045SOL    HW170982   7.315   7.187   6.832 -2.6720 -1.7442 -0.3218
22045SOL    HW270983   7.275   7.271   6.952 -1.0066 -1.1985 -0.1121
22046SOL     OW70984   5.122   8.554   5.175  0.8317  0.8999  0.5283
22046SOL    HW170985   5.134   8.647   5.193 -1.5479  1.0414  1.9208
22046SOL    HW270986   5.137   8.511   5.260  0.4305  0.2089  0.2564
22047SOL     OW70987   5.683   9.500   6.310  0.4802  0.2147 -0.0688
22047SOL    HW170988   5.702   9.586   6.348  0.6158  0.1463  0.0201
22047SOL    HW270989   5.588   9.495   6.308  0.3997  1.3002 -2.1434
22048SOL     OW70990   6.284   8.444   6.178 -0.0111  0.9595  0.0720
22048SOL    HW170991   6.240   8.514   6.131 -1.3047  1.6412  2.1577
22048SOL    HW270992   6.256   8.455   6.269  1.6646 -0.8096  0.8717
22049SOL     OW70993   8.044   7.988   3.722 -0.1538  0.6256 -0.3131
22049SOL    HW170994   7.989   8.029   3.789 -1.1642 -0.1883 -0.6313
22049SOL    HW270995   8.128   8.034   3.729 -0.0010  0.1036  1.9719
22050SOL     OW70996   7.977   6.127   5.359 -0.2815 -0.4484 -0.4826
22050SOL    HW170997   8.038   6.083   5.418  1.4570 -0.0393 -1.9149
22050SOL    HW270998   8.031   6.162   5.289 -1.8944  1.8334 -0.7101
22051SOL     OW70999   7.924   9.293   6.415  0.0911 -0.3211  0.3670
22051SOL    HW171000   7.990   9.276   6.348 -1.0865 -0.3997 -0.8253
22051SOL    HW271001   7.915   9.389   6.415 -0.1957 -0.3464  0.1148
22052SOL     OW71002   5.849   0.094   6.254  0.3459  0.0971  0.3990
22052SOL    HW171003   5.837   0.016   6.201 -1.6759  0.4296  0.2841
22052SOL    HW271004   5.779   0.091   6.319 -0.5084  2.3221 -0.2961
22053SOL     OW71005   4.948   9.120   7.317 -0.2689 -0.7524 -0.3594
22053SOL    HW171006   4.913   9.192   7.264  1.2131 -0.3421 -0.8194
22053SOL    HW271007   4.897   9.123   7.397  0.3795  1.4678  0.0427
22054SOL     OW71008   5.105   7.868   8.414  0.0467  0.0403  0.0880
22054SOL    HW171009   5.081   7.960   8.419  0.0859  0.0915 -0.6254
22054SOL    HW271010   5.071   7.838   8.330  0.9052 -0.3428 -0.1356
22055SOL     OW71011   5.344   4.960   7.388 -0.4258 -0.1961 -0.3579
22055SOL    HW171012   5.354   4.971   7.293  0.7764  0.0578 -0.2185
22055SOL    HW271013   5.415   4.903   7.413 -0.8607 -0.4253  0.3756
22056SOL     OW71014   6.966   0.130   7.195  1.1044  0.4191 -0.1111
22056SOL    HW171015   6.877   0.102   7.171  0.2095  1.0645  2.1430
22056SOL    HW271016   6.962   0.143   7.290  3.7124  0.2114  0.0962
22057SOL     OW71017   5.995   8.640   7.008 -0.4149  0.0158  0.3112
22057SOL    HW171018   5.980   8.733   7.024 -1.0634 -0.1808  0.8846
22057SOL    HW271019   6.004   8.634   6.913 -0.0182  0.7117  0.3001
22058SOL     OW71020   8.299   0.408   4.949 -0.3180 -0.1423  0.5081
22058SOL    HW171021   8.331   0.335   5.002 -2.9794  0.0051  2.5461
22058SOL    HW271022   8.303   0.376   4.859  0.4387 -2.0156  1.1638
22059SOL     OW71023   7.228   8.170   6.858 -0.5475  0.1455 -0.7212
22059SOL    HW171024   7.186   8.225   6.923 -1.6906  1.2917 -2.3579
22059SOL    HW271025   7.256   8.230   6.789 -1.6968 -1.2505 -2.4957
22060SOL     OW71026   8.870   8.793   7.122  0.6414 -0.6454  0.1106
22060SOL    HW171027   8.810   8.722   7.143 -3.0405  2.2004  0.3759
22060SOL    HW271028   8.878   8.791   7.027  1.4862 -1.9833  0.1845
22061SOL     OW71029   6.173   7.287   6.602  0.1880 -0.1406 -0.4697
22061SOL    HW171030   6.122   7.334   6.669 -0.0751  2.9688 -2.6003
22061SOL    HW271031   6.131   7.201   6.595 -2.0945  0.7848  0.8116
22062SOL     OW71032   6.219   6.819   8.299 -0.0404 -0.2952 -0.0256
22062SOL    HW171033   6.222   6.899   8.247 -0.4835  0.2637  0.7811
22062SOL    HW271034   6.293   6.767   8.269  0.3201  0.4726 -0.4746
22063SOL     OW71035   5.213   8.189   8.191  0.4560 -0.3235 -0.4479
22063SOL    HW171036   5.177   8.225   8.110 -0.4732  2.2551  0.9892
22063SOL    HW271037   5.306   8.211   8.187  0.0823  1.5568 -0.0418
22064SOL     OW71038   6.530   8.212   7.052  0.0824 -0.2189 -0.2442
22064SOL    HW171039   6.590   8.249   6.988 -0.4459 -0.8989 -1.1441
22064SOL    HW271040   6.478   8.286   7.082 -0.4507 -0.0781 -1.4649
22065SOL     OW71041   5.997   5.184   0.225  0.2011  1.2421  0.0734
22065SOL    HW171042   6.002   5.121   0.296  1.5955  1.1380 -0.0867
22065SOL    HW271043   6.013   5.269   0.267  0.7446  1.2110 -0.0638
22066SOL     OW71044   6.962   1.908   6.448 -0.4072 -0.5491  0.0149
22066SOL    HW171045   6.949   1.971   6.519 -0.1724 -0.8125  0.2896
22066SOL    HW271046   7.031   1.850   6.479  1.0465  0.4780 -1.1973
22067SOL     OW71047   5.751   0.979   7.710  0.6527 -0.2953  0.1282
22067SOL    HW171048   5.680   1.023   7.663  0.7207  1.1082  1.2858
22067SOL    HW271049   5.707   0.927   7.777  0.6975  1.1101  1.2927
22068SOL     OW71050   8.467   7.062   9.498  0.0781  0.3582 -0.4710
22068SOL    HW171051   8.373   7.054   9.512  0.2410 -1.5384 -0.1855
22068SOL    HW271052   8.506   7.044   9.584  0.7235  0.8947 -0.6396
22069SOL     OW71053   7.692   0.686   5.191  0.7949 -0.0676  0.7568
22069SOL    HW171054   7.714   0.762   5.136  2.6513 -0.3653  1.0095
22069SOL    HW271055   7.648   0.724   5.267  2.2085  0.8684  1.1579
22070SOL     OW71056   4.546   7.524   8.371  0.1387  0.3544 -0.6405
22070SOL    HW171057   4.572   7.432   8.380  0.9659  0.7632  1.8894
22070SOL    HW271058   4.450   7.520   8.365 -0.0846 -0.6336  2.0345
22071SOL     OW71059   7.655   6.641   0.273  0.2292  0.0779 -0.1123
22071SOL    HW171060   7.744   6.605   0.275  0.7783  1.2077 -2.0886
22071SOL    HW271061   7.605   6.583   0.330  2.2951 -0.3586  1.3589
22072SOL     OW71062   4.876   0.591   6.043  0.2616 -0.3732  0.0497
22072SOL    HW171063   4.875   0.634   5.958 -2.0189  0.3401  0.3815
22072SOL    HW271064   4.807   0.525   6.039 -1.2340  0.9572  1.9137
22073SOL     OW71065   7.364   8.234   8.553 -0.4384 -0.1829 -0.0243
22073SOL    HW171066   7.279   8.248   8.595 -0.6251  0.6681 -0.6458
22073SOL    HW271067   7.358   8.146   8.517 -0.4207 -0.7760  1.3608
22074SOL     OW71068   7.194   7.308   0.145 -0.2323  0.3202 -0.3572
22074SOL    HW171069   7.102   7.335   0.133 -0.6801 -1.2465 -0.6847
22074SOL    HW271070   7.201   7.226   0.096  1.2864  0.2766 -0.1009
22075SOL     OW71071   8.037   0.210   5.617 -0.5540 -0.6080  0.1099
22075SOL    HW171072   8.124   0.251   5.614  0.0416 -1.8592 -0.0649
22075SOL    HW271073   8.026   0.185   5.709 -0.0239 -1.8982 -0.1600
22076SOL     OW71074   7.847   9.201   8.096  0.4271 -0.3173  0.1772
22076SOL    HW171075   7.863   9.136   8.027 -2.4463 -0.3599 -0.5676
22076SOL    HW271076   7.756   9.188   8.121  0.9265  0.7777  2.9213
22077SOL     OW71077   9.798   9.257   7.355  0.2342 -0.3482  0.3251
22077SOL    HW171078   9.869   9.209   7.396  0.8518  0.5626  0.3549
22077SOL    HW271079   9.762   9.197   7.290  2.7956  0.0701 -1.6202
22078SOL     OW71080   6.125   7.335   7.895 -0.4182  0.1988  0.1442
22078SOL    HW171081   6.179   7.410   7.920  2.8657 -1.5879 -0.9461
22078SOL    HW271082   6.071   7.367   7.823 -0.2639  1.8749  0.7367
22079SOL     OW71083   6.281   8.394   9.411 -0.3506  0.8640  0.2306
22079SOL    HW171084   6.255   8.333   9.479 -1.1506  0.8326 -0.0915
22079SOL    HW271085   6.376   8.396   9.415 -0.3629  0.2963  0.8506
22080SOL     OW71086   6.087   9.152   6.846 -1.0585  0.6410  0.5569
22080SOL    HW171087   6.012   9.136   6.903 -0.9315  1.4308  0.9698
22080SOL    HW271088   6.051   9.150   6.758 -1.2306 -0.7320  0.6476
22081SOL     OW71089   7.354   0.650   9.102  0.1420 -0.0881 -0.0347
22081SOL    HW171090   7.259   0.654   9.091  0.0705 -1.6271 -0.1949
22081SOL    HW271091   7.383   0.582   9.042  1.4179  0.6421 -0.3014
22082SOL     OW71092   5.886   6.745   7.942 -0.3038  0.4089 -0.3496
22082SOL    HW171093   5.971   6.704   7.957 -0.7507 -0.2304  0.5739
22082SOL    HW271094   5.907   6.831   7.906  0.9414  1.6419  2.8797
22083SOL     OW71095   5.236   8.817   9.050 -0.1777  0.0026  0.0469
22083SOL    HW171096   5.170   8.848   8.988 -0.7381  1.1110  1.1727
22083SOL    HW271097   5.299   8.888   9.056  1.4695 -1.2339 -1.4001
22084SOL     OW71098   6.917   8.652   8.708  0.2530  0.1499  0.2527
22084SOL    HW171099   6.868   8.689   8.635 -1.4990  0.4965  1.5549
22084SOL    HW271100   6.968   8.725   8.742 -0.3225  0.4337  0.5037
22085SOL     OW71101   5.765   8.860   7.662  0.0484  0.3290 -0.9469
22085SOL    HW171102   5.832   8.892   7.722 -0.4663 -2.3321  1.2787
22085SOL    HW271103   5.774   8.764   7.666 -1.5998 -0.0005 -3.3291
22086SOL     OW71104   7.488   9.008   7.533  0.0181 -0.2227 -0.5151
22086SOL    HW171105   7.537   9.027   7.453 -0.0809  1.5253 -0.2148
22086SOL    HW271106   7.552   9.016   7.603 -0.2171 -0.1790 -0.3032
22087SOL     OW71107   5.946   9.165   9.424 -0.3800  0.2363 -0.5785
22087SOL    HW171108   5.898   9.247   9.423  0.0539  0.5834  1.6996
22087SOL    HW271109   5.913   9.117   9.348 -1.4877  2.0100 -1.2847
22088SOL     OW71110   7.162   9.756   7.281 -0.0131  0.3483  0.0513
22088SOL    HW171111   7.100   9.686   7.298 -0.7124  0.8198 -0.4758
22088SOL    HW271112   7.109   9.836   7.280  0.4455  0.6780 -1.2129
22089SOL     OW71113   7.528   9.305   8.784  0.1814 -0.0095  0.3497
22089SOL    HW171114   7.489   9.235   8.732  3.2407 -0.4526 -1.6169
22089SOL    HW271115   7.614   9.271   8.810  2.2334  3.1958 -1.4709
22090SOL     OW71116   6.196   8.690   0.509  0.4237  0.6651 -0.0522
22090SOL    HW171117   6.225   8.599   0.505  1.3573  0.9807 -0.7740
22090SOL    HW271118   6.124   8.689   0.572 -0.8968 -0.9336 -1.4847
22091SOL     OW71119   6.991   0.310   0.598 -0.0972  0.4726 -0.2165
22091SOL    HW171120   7.078   0.344   0.577  0.6506  0.3977  2.3563
22091SOL    HW271121   6.990   0.222   0.559  1.9675 -0.4582  1.6018
22092SOL     OW71122   7.489   7.613   8.999  0.3196 -0.1128 -0.0038
22092SOL    HW171123   7.543   7.610   9.079 -0.8933 -1.8896  0.8327
22092SOL    HW271124   7.497   7.703   8.968  3.2862 -0.1365  0.3762
22093SOL     OW71125   8.081   6.853   8.312  0.3139 -0.0450  0.3823
22093SOL    HW171126   8.042   6.914   8.248  1.0649  0.7768  0.6831
22093SOL    HW271127   8.011   6.792   8.332 -0.4356  0.6505 -0.0261
22094SOL     OW71128   3.973   8.490   7.816 -0.6594 -0.5018 -0.3460
22094SOL    HW171129   3.962   8.422   7.882 -1.4889 -0.0679 -0.0239
22094SOL    HW271130   3.902   8.474   7.753  0.6304 -1.4377 -1.6174
22095SOL     OW71131   5.662   0.174   8.917  0.2069  1.0733 -0.0749
22095SOL    HW171132   5.680   0.234   8.989  1.5046 -0.6503  1.1178
22095SOL    HW271133   5.725   0.103   8.928 -1.3084 -0.5765 -1.3526
22096SOL     OW71134   5.843   8.551   7.680 -0.4020  0.1520  0.0998
22096SOL    HW171135   5.802   8.516   7.759  1.0807  0.7565  1.1845
22096SOL    HW271136   5.929   8.509   7.677 -1.1987 -1.5372 -2.4457
22097SOL     OW71137   7.027   8.953   8.448  0.4017  0.0879 -0.2277
22097SOL    HW171138   6.969   8.992   8.513  1.7694 -0.0111  1.0909
22097SOL    HW271139   6.971   8.894   8.398 -1.2402  2.0371 -0.8369
22098SOL     OW71140   7.234   8.991   5.196  0.3831  0.0369 -0.8115
22098SOL    HW171141   7.300   9.027   5.256 -0.1740 -0.4669  0.1296
22098SOL    HW271142   7.198   9.068   5.151 -0.3196  0.6147  0.6824
22099SOL     OW71143   6.617   8.071   7.834 -0.4108 -0.1066  0.3844
22099SOL    HW171144   6.624   8.147   7.892 -0.4972  1.0653 -1.0662
22099SOL    HW271145   6.685   8.011   7.865  0.3629  1.0180  0.9345
22100SOL     OW71146   6.818   0.277   7.486  0.2718 -0.4674  0.3030
22100SOL    HW171147   6.789   0.245   7.571  0.1964  0.8391  0.7853
22100SOL    HW271148   6.909   0.302   7.501 -0.3162  1.6570  0.5589
22101SOL     OW71149   6.942   7.938   0.164 -0.4503  0.3416  0.2197
22101SOL    HW171150   6.869   7.983   0.121  0.5302  0.8932 -0.9032
22101SOL    HW271151   6.962   7.865   0.106 -0.5118 -0.1972  0.8583
22102SOL     OW71152   4.827   0.261   8.536  0.1809 -0.1215  0.1811
22102SOL    HW171153   4.737   0.285   8.556 -0.3325 -2.5349  1.0907
22102SOL    HW271154   4.875   0.277   8.618  0.6426  1.1644 -0.3023
22103SOL     OW71155   6.247   8.471   7.953  0.2024  0.1738  0.0618
22103SOL    HW171156   6.154   8.492   7.942 -0.3030 -2.4155 -1.2767
22103SOL    HW271157   6.285   8.484   7.867  0.9645  0.5830  0.4484
22104SOL     OW71158   8.937   7.121   6.339  0.0505 -0.2171  0.1917
22104SOL    HW171159   8.955   7.127   6.433 -1.3544  1.7237  0.4071
22104SOL    HW271160   8.945   7.211   6.307  0.3940 -0.8258 -1.5413
22105SOL     OW71161   6.242   9.234   0.379  0.1686  0.1268  0.4776
22105SOL    HW171162   6.323   9.184   0.372  0.0494  0.0212 -0.1662
22105SOL    HW271163   6.262   9.318   0.339 -0.4883 -0.4521 -1.1687
22106SOL     OW71164   5.630   8.646   7.117  0.0104 -0.1447  0.6689
22106SOL    HW171165   5.548   8.637   7.166  0.0680  0.7880  0.9505
22106SOL    HW271166   5.674   8.721   7.157  0.6811 -0.2046  0.0603
22107SOL     OW71167   4.867   2.034   9.358 -0.5162  0.0607  0.3783
22107SOL    HW171168   4.797   1.976   9.327  0.2763 -0.6902 -0.0420
22107SOL    HW271169   4.886   2.091   9.283 -0.5945  0.1878  0.4548
22108SOL     OW71170   6.114   9.703   6.607  0.3903 -0.3172  0.1270
22108SOL    HW171171   6.190   9.758   6.584  1.0585 -1.3814 -0.2782
22108SOL    HW271172   6.054   9.714   6.533  1.2839 -1.4770 -0.7951
22109SOL     OW71173   5.842   8.061   7.665 -0.1088 -0.0846 -0.0461
22109SOL    HW171174   5.791   8.070   7.585 -0.8680 -1.0248  0.3038
22109SOL    HW271175   5.850   7.966   7.678 -0.8131  0.0239  1.4644
22110SOL     OW71176   5.113   6.036   8.885 -0.0721  0.0971 -0.2158
22110SOL    HW171177   5.138   5.955   8.930  2.3758 -0.1693 -1.8864
22110SOL    HW271178   5.167   6.104   8.926 -1.2249  0.7165  0.3372
22111SOL     OW71179   7.403   0.910   7.541 -0.5547  0.0727 -0.3541
22111SOL    HW171180   7.429   0.930   7.451  1.1813  2.6117  0.6007
22111SOL    HW271181   7.392   0.995   7.583  2.3470 -0.8347  2.7453
22112SOL     OW71182   4.695   9.230   7.939  0.3385  0.5458 -0.0202
22112SOL    HW171183   4.685   9.188   7.854  1.5991  0.8206 -0.3238
22112SOL    HW271184   4.767   9.291   7.927  1.2543 -0.1665  1.5185
22113SOL     OW71185   6.506   3.641   8.841 -0.1084  0.2211 -0.0093
22113SOL    HW171186   6.520   3.639   8.746  0.8672  0.1604  0.1256
22113SOL    HW271187   6.456   3.722   8.856  1.8619  1.5720 -0.3335
22114SOL     OW71188   5.233   7.752   7.296  0.2390 -0.3355 -0.1107
22114SOL    HW171189   5.307   7.813   7.290  1.2243 -1.4721  0.0201
22114SOL    HW271190   5.247   7.691   7.223  1.0435 -2.2489  1.5653
22115SOL     OW71191   4.827   6.741   7.570  0.1871  0.4430  0.6819
22115SOL    HW171192   4.898   6.736   7.634 -0.0458  2.1049  1.1221
22115SOL    HW271193   4.833   6.831   7.535 -0.7118  0.0946 -0.4333
22116SOL     OW71194   6.104   7.562   8.191 -0.1300  0.0543 -0.8321
22116SOL    HW171195   6.129   7.623   8.261  0.1611 -0.6983 -0.2709
22116SOL    HW271196   6.049   7.497   8.235  0.8839 -0.9982 -1.0842
22117SOL     OW71197   6.663   1.182   9.074 -0.2572  0.5868 -0.0810
22117SOL    HW171198   6.748   1.222   9.058 -1.0865  2.1104 -0.8025
22117SOL    HW271199   6.684   1.098   9.116  1.5462  1.4842  0.9268
22118SOL     OW71200   6.696   7.115   9.202  0.1507  0.1185 -0.4123
22118SOL    HW171201   6.733   7.108   9.114 -1.3614  1.1080 -1.1655
22118SOL    HW271202   6.675   7.208   9.212 -0.7670 -0.1633  0.5418
22119SOL     OW71203   6.108   8.444   7.629 -0.3473 -0.2022 -0.0001
22119SOL    HW171204   6.172   8.379   7.601  0.2092 -0.8031  2.4217
22119SOL    HW271205   6.159   8.523   7.648 -0.1307 -0.8438  2.4545
22120SOL     OW71206   8.229   7.342   9.008 -0.1837 -0.2085  0.3034
22120SOL    HW171207   8.223   7.429   9.047  0.5974 -0.2663  0.5728
22120SOL    HW271208   8.267   7.288   9.077  1.5317 -0.2397 -0.6034
22121SOL     OW71209   8.049   7.906   9.446 -0.4738  0.2729  0.0684
22121SOL    HW171210   8.121   7.872   9.393 -1.6315 -0.5468 -1.0335
22121SOL    HW271211   7.996   7.829   9.466 -1.7732  1.0368 -0.3156
22122SOL     OW71212   7.276   9.400   6.716 -0.8101  0.0988 -0.2025
22122SOL    HW171213   7.212   9.470   6.709 -0.0818  0.7805 -0.0758
22122SOL    HW271214   7.267   9.351   6.634 -1.3803  0.2744 -0.2489
22123SOL     OW71215   8.233   7.890   8.453 -0.5240  0.8949 -0.2323
22123SOL    HW171216   8.324   7.881   8.484  0.2632  1.4892 -2.2443
22123SOL    HW271217   8.190   7.939   8.523  0.1656 -1.0528  1.6650
22124SOL     OW71218   8.378   0.736   7.358  0.4166 -0.0069  0.1899
22124SOL    HW171219   8.380   0.721   7.263  1.8620 -0.7028  0.2960
22124SOL    HW271220   8.286   0.726   7.382  0.2175 -1.1597 -0.9458
22125SOL     OW71221   8.114   8.786   0.888  0.2367 -0.0366 -0.1048
22125SOL    HW171222   8.150   8.872   0.910  0.3936 -0.1926  0.2712
22125SOL    HW271223   8.026   8.805   0.853  0.6074  0.3315 -0.8543
22126SOL     OW71224   9.374   9.253   8.670 -0.0625 -0.3780  0.6040
22126SOL    HW171225   9.311   9.238   8.601 -1.7020 -0.1508  1.9846
22126SOL    HW271226   9.443   9.188   8.655 -1.0020 -1.1436 -0.4926
22127SOL     OW71227   6.414   8.468   6.868  0.9803  0.6709 -0.3066
22127SOL    HW171228   6.365   8.546   6.843 -1.8432 -0.7742  0.2615
22127SOL    HW271229   6.459   8.493   6.949  0.6209  1.8850 -0.4677
22128SOL     OW71230   7.838   9.030   6.511 -0.6154  0.0019 -0.1541
22128SOL    HW171231   7.907   8.984   6.463 -2.2701 -1.5364 -1.1749
22128SOL    HW271232   7.836   9.117   6.472  0.3454 -0.1279 -0.5134
22129SOL     OW71233   7.361   1.024   1.361 -0.7077  0.6937  1.0494
22129SOL    HW171234   7.289   1.000   1.303 -0.9491 -0.8589  1.9414
22129SOL    HW271235   7.352   1.118   1.373 -1.7792  0.7316  0.0864
22130SOL     OW71236   6.281   8.437   0.567 -0.1014 -0.0709 -0.3189
22130SOL    HW171237   6.275   8.345   0.540 -3.1001 -0.1061  0.1005
22130SOL    HW271238   6.264   8.435   0.661  0.4240  0.8785 -0.2005
22131SOL     OW71239   8.865   0.113   9.247 -0.2360 -0.3426  0.0102
22131SOL    HW171240   8.924   0.053   9.293  0.8928  0.3925 -0.4482
22131SOL    HW271241   8.916   0.146   9.174 -0.0561  2.8090  1.4118
22132SOL     OW71242   6.873   9.727   6.958  0.2043 -0.0810 -0.3039
22132SOL    HW171243   6.829   9.711   7.041 -0.8363  0.0465 -0.8234
22132SOL    HW271244   6.860   9.821   6.942  0.4776 -0.0873 -0.5796
22133SOL     OW71245   7.215   7.233   8.286  0.1686 -0.0970  0.5313
22133SOL    HW171246   7.277   7.269   8.223  1.4899 -1.1469  1.1853
22133SOL    HW271247   7.258   7.156   8.321 -0.6524  0.2726  2.5011
22134SOL     OW71248   7.611   8.904   8.429  0.3305  0.0509  0.2391
22134SOL    HW171249   7.615   8.995   8.459  0.4214  0.2774 -0.4577
22134SOL    HW271250   7.520   8.878   8.444  0.6123 -0.1958  1.7219
22135SOL     OW71251   7.153   8.678   8.262  1.0061  1.2026 -0.4243
22135SOL    HW171252   7.168   8.621   8.338  0.2553 -1.6230 -2.2278
22135SOL    HW271253   7.057   8.682   8.255  1.0163  3.1750 -0.1038
22136SOL     OW71254   6.381   0.289   6.356 -0.0456 -0.6508  0.3393
22136SOL    HW171255   6.289   0.317   6.349 -0.2585 -1.0956  1.2377
22136SOL    HW271256   6.431   0.365   6.328 -0.7000 -0.6300 -0.8418
22137SOL     OW71257   6.637   0.664   9.145 -0.2039 -0.0984  0.0030
22137SOL    HW171258   6.547   0.653   9.115 -0.1394 -0.4980 -0.0607
22137SOL    HW271259   6.690   0.623   9.076 -0.0211 -0.5464  0.3985
22138SOL     OW71260   8.112   9.760   5.261 -0.0857  0.0621 -0.5772
22138SOL    HW171261   8.165   9.680   5.259  1.4210  1.0109 -2.7842
22138SOL    HW271262   8.129   9.802   5.177 -1.9251  2.0351 -0.0532
22139SOL     OW71263   7.147   7.870   7.119 -0.0447  0.0773 -0.1316
22139SOL    HW171264   7.115   7.859   7.209 -2.0274  1.4075 -0.6025
22139SOL    HW271265   7.072   7.905   7.071  1.2846  0.4343 -2.0824
22140SOL     OW71266   5.559   8.307   1.373 -0.9163  0.3313 -0.0261
22140SOL    HW171267   5.563   8.320   1.279  1.2669  1.2538  0.1269
22140SOL    HW271268   5.479   8.256   1.387 -0.4659 -1.2573 -2.5231
22141SOL     OW71269   7.126   6.436   6.570 -0.0306 -0.3334  0.1701
22141SOL    HW171270   7.037   6.411   6.544  0.3522 -1.7946  0.1623
22141SOL    HW271271   7.128   6.423   6.665  0.4684 -1.4115  0.0378
22142SOL     OW71272   5.801   9.057   8.856 -0.1014  0.3197  0.2363
22142SOL    HW171273   5.867   9.042   8.924 -0.2985 -2.7719 -0.1263
22142SOL    HW271274   5.778   8.969   8.825 -2.4438  1.4554 -1.5265
22143SOL     OW71275   8.696   8.971   7.832 -0.2838  0.0589  0.4420
22143SOL    HW171276   8.768   8.944   7.774 -1.2294 -0.3316 -0.5827
22143SOL    HW271277   8.620   8.922   7.800 -0.9812  0.3597  1.5974
22144SOL     OW71278   5.024   8.362   7.739 -0.4478 -0.0503 -0.1276
22144SOL    HW171279   5.085   8.337   7.669 -0.3634  0.8894 -0.4136
22144SOL    HW271280   5.012   8.457   7.727 -1.2236 -0.0564  0.5147
22145SOL     OW71281   5.523   6.919   9.725 -0.0489  0.1978  0.0435
22145SOL    HW171282   5.591   6.883   9.783  2.0355  1.6925 -1.3107
22145SOL    HW271283   5.511   6.852   9.658  0.3668  0.0575  0.1065
22146SOL     OW71284   4.230   7.832   7.408  0.3956 -0.0294 -0.7601
22146SOL    HW171285   4.263   7.773   7.340 -0.3746 -0.3069 -0.9045
22146SOL    HW271286   4.135   7.831   7.396  0.1828 -0.7048  0.8440
22147SOL     OW71287   6.768   8.982   8.194  0.0932 -0.0488  0.2716
22147SOL    HW171288   6.830   9.055   8.203  0.2728 -0.1247 -0.3211
22147SOL    HW271289   6.714   9.006   8.119  0.9425 -1.0845 -0.7180
22148SOL     OW71290   4.230   6.913   9.398  0.1097 -0.4989  0.3368
22148SOL    HW171291   4.230   6.823   9.365  1.1922 -0.0805 -0.8875
22148SOL    HW271292   4.262   6.966   9.324 -3.2917  1.3090 -0.0656
22149SOL     OW71293   9.546   8.424   8.838 -0.1227 -0.6493  0.2693
22149SOL    HW171294   9.546   8.393   8.929 -2.2339  1.1783  0.9958
22149SOL    HW271295   9.479   8.371   8.795 -0.1349 -0.5561  0.1743
22150SOL     OW71296   5.685   0.480   0.505 -0.0055  0.3798 -0.0019
22150SOL    HW171297   5.657   0.428   0.430 -1.0375 -0.2666  0.8016
22150SOL    HW271298   5.606   0.522   0.536  0.2592  0.0741  1.1436
22151SOL     OW71299   6.763   8.040   7.532 -0.1601 -0.0954 -0.0171
22151SOL    HW171300   6.783   8.055   7.625 -0.3867  3.2764 -0.3740
22151SOL    HW271301   6.669   8.055   7.525 -0.7460 -3.2602 -0.4314
22152SOL     OW71302   6.999   8.003   6.326  0.8001  0.0762 -0.0441
22152SOL    HW171303   6.920   8.048   6.298  0.1459 -0.7086  0.5054
22152SOL    HW271304   7.070   8.053   6.286 -0.0317 -0.4115 -2.2477
22153SOL     OW71305   6.576   8.414   6.655 -0.9333 -0.2847  0.3573
22153SOL    HW171306   6.564   8.489   6.596 -1.1234 -0.7116 -0.1496
22153SOL    HW271307   6.512   8.427   6.724 -1.9470 -0.7136 -0.4804
22154SOL     OW71308   7.228   0.831   0.642  0.7242  0.6949 -0.1188
22154SOL    HW171309   7.271   0.895   0.585  1.6301 -0.0057 -0.2550
22154SOL    HW271310   7.298   0.796   0.696  0.0372  0.6384  0.7516
22155SOL     OW71311   7.809   1.146   9.314  0.1883  0.8409 -0.1060
22155SOL    HW171312   7.883   1.087   9.324  0.8017  1.3557 -1.4210
22155SOL    HW271313   7.798   1.156   9.219 -3.3651 -1.4430 -0.1163
22156SOL     OW71314   6.163   7.457   8.810  0.1152 -0.8444  0.7140
22156SOL    HW171315   6.247   7.419   8.836  0.5321  0.6143  1.6431
22156SOL    HW271316   6.162   7.543   8.853 -1.9714 -0.9387  0.9219
22157SOL     OW71317   6.281   7.715   0.719 -0.2991  0.1300  0.1730
22157SOL    HW171318   6.322   7.747   0.800 -0.6512 -2.5767  1.5050
22157SOL    HW271319   6.194   7.686   0.745 -1.1155  0.8575 -1.5829
22158SOL     OW71320   7.512   5.421   8.960  0.0412  0.9007 -0.1385
22158SOL    HW171321   7.560   5.503   8.953 -0.7572  1.2618 -1.8166
22158SOL    HW271322   7.420   5.445   8.945 -0.5027  0.0025  1.4964
22159SOL     OW71323   6.543   8.497   8.327  0.5781 -0.7639  0.7655
22159SOL    HW171324   6.502   8.579   8.299 -1.0543 -2.3862 -2.1350
22159SOL    HW271325   6.536   8.498   8.422 -0.5386  1.8609  0.7529
22160SOL     OW71326   5.638   9.012   8.265  0.3649  0.0657 -0.2899
22160SOL    HW171327   5.550   8.975   8.258  0.2210  0.3268  0.0502
22160SOL    HW271328   5.695   8.948   8.223  0.1786 -0.7397  0.6446
22161SOL     OW71329   7.785   7.013   7.365  0.1537 -0.2499  0.8585
22161SOL    HW171330   7.859   6.984   7.311  0.3502 -1.5792  1.7869
22161SOL    HW271331   7.820   7.018   7.454  0.1178  2.9512  0.8170
22162SOL     OW71332   7.524   9.824   7.146  0.0364 -0.5031  0.3888
22162SOL    HW171333   7.551   9.871   7.225  2.4816 -0.7183 -0.2259
22162SOL    HW271334   7.536   9.888   7.076  3.6911 -1.9637 -0.4950
22163SOL     OW71335   8.129   8.096   8.638 -0.2898  0.1284 -0.0789
22163SOL    HW171336   8.134   8.189   8.656 -2.0984  0.4579 -1.0667
22163SOL    HW271337   8.169   8.055   8.715  1.9980  1.7001 -0.3320
22164SOL     OW71338   6.735   6.186   9.590  0.1115  0.5748 -0.5424
22164SOL    HW171339   6.811   6.191   9.648  0.2085 -0.9111 -0.5087
22164SOL    HW271340   6.661   6.211   9.645  0.4889  1.4375 -0.4140
22165SOL     OW71341   6.768   6.771   6.268 -0.0823 -0.1303 -0.0583
22165SOL    HW171342   6.781   6.693   6.323 -0.8565  0.3867  0.8961
22165SOL    HW271343   6.809   6.842   6.317  1.2535 -0.0364 -1.2622
22166SOL     OW71344   6.538   9.425   8.316  0.3895 -0.1257 -0.1223
22166SOL    HW171345   6.566   9.345   8.361 -0.1045  0.7270  1.7962
22166SOL    HW271346   6.522   9.397   8.226  0.4005 -2.1535  0.4525
22167SOL     OW71347   7.967   7.837   8.371  0.4948  0.0180  0.0688
22167SOL    HW171348   8.024   7.914   8.380  1.9488 -0.6085 -2.6903
22167SOL    HW271349   7.889   7.871   8.327  0.8070  0.0655 -0.4581
22168SOL     OW71350   7.101   7.909   9.319 -0.0379 -0.2506  0.0730
22168SOL    HW171351   7.009   7.906   9.346  0.1939  3.1588  1.7051
22168SOL    HW271352   7.098   7.947   9.231 -0.2128 -1.1015 -0.2985
22169SOL     OW71353   7.604   9.405   6.115  0.3236  0.7052 -0.2860
22169SOL    HW171354   7.543   9.385   6.043  0.9288  0.3516 -0.7101
22169SOL    HW271355   7.666   9.331   6.114 -0.5080 -0.0686  1.5346
22170SOL     OW71356   5.728   9.550   7.424  0.1238 -0.0612  0.1486
22170SOL    HW171357   5.739   9.593   7.339 -0.9340  0.3141  0.1795
22170SOL    HW271358   5.680   9.469   7.404 -0.8687  0.4329  0.4669
22171SOL     OW71359   7.863   0.186   9.431 -0.1759  0.3645 -0.1771
22171SOL    HW171360   7.802   0.238   9.484 -0.0839  1.2635 -0.9315
22171SOL    HW271361   7.950   0.210   9.464 -0.0833  1.3690 -1.0829
22172SOL     OW71362   6.425   7.913   6.786  0.3713 -0.5558 -0.0000
22172SOL    HW171363   6.468   7.827   6.785 -0.0082 -0.7571 -1.4937
22172SOL    HW271364   6.460   7.959   6.710 -1.3938 -0.4130 -0.7857
22173SOL     OW71365   5.994   5.730   9.362  0.6936 -0.3770 -0.4419
22173SOL    HW171366   5.948   5.699   9.440  1.2233  1.0363  0.4891
22173SOL    HW271367   6.008   5.652   9.309 -0.8755 -1.1650  0.2429
22174SOL     OW71368   7.936   5.874   6.536  0.2935  0.1865 -0.4905
22174SOL    HW171369   7.878   5.950   6.545 -0.8071 -0.5901 -0.6985
22174SOL    HW271370   7.951   5.866   6.442 -1.1584 -0.9327 -0.6677
22175SOL     OW71371   8.116   8.772   6.607 -0.7345  0.2202  0.9496
22175SOL    HW171372   8.098   8.831   6.534  1.0206 -0.4087 -0.0485
22175SOL    HW271373   8.211   8.777   6.619 -0.3549 -2.9774  0.2265
22176SOL     OW71374   5.513   8.668   8.199 -0.0821 -0.6674 -0.2751
22176SOL    HW171375   5.461   8.728   8.253  0.2751 -0.6289  0.0286
22176SOL    HW271376   5.604   8.694   8.214 -0.0251  0.4277 -2.1526
22177SOL     OW71377   6.280   8.959   8.405 -0.0261  0.7325 -0.4410
22177SOL    HW171378   6.244   8.939   8.319  1.4141 -1.0877 -0.6915
22177SOL    HW271379   6.222   9.027   8.440 -0.4247  1.8176 -2.9730
22178SOL     OW71380   6.237   9.339   7.542  0.2945 -0.1067 -0.4169
22178SOL    HW171381   6.197   9.355   7.456 -1.9394 -2.4571  0.0391
22178SOL    HW271382   6.236   9.425   7.585 -2.2887  0.4382 -1.3432
22179SOL     OW71383   9.293   8.375   8.198 -0.4348 -0.2923  0.3214
22179SOL    HW171384   9.260   8.398   8.111 -1.6401  0.3772  0.9227
22179SOL    HW271385   9.244   8.432   8.258  0.0642 -1.0290  1.4696
22180SOL     OW71386   5.735   7.180   8.533 -0.3293 -0.5516 -0.2662
22180SOL    HW171387   5.809   7.120   8.524  0.0415  0.1033 -1.8719
22180SOL    HW271388   5.701   7.190   8.445 -0.5606  1.3548  0.0042
22181SOL     OW71389   4.900   9.423   0.287  0.2861 -0.2166 -0.3712
22181SOL    HW171390   4.995   9.420   0.294  0.2959 -2.1461 -0.9355
22181SOL    HW271391   4.878   9.515   0.302  2.1245  0.0569  0.9341
22182SOL     OW71392   6.887   7.122   7.653  0.1460 -0.7980 -0.1770
22182SOL    HW171393   6.879   7.091   7.563 -1.7739 -0.2205 -0.2488
22182SOL    HW271394   6.936   7.204   7.645 -0.5093 -0.4555 -0.7723
22183SOL     OW71395   5.617   9.758   8.080  0.0419 -0.4400 -0.2809
22183SOL    HW171396   5.535   9.747   8.128 -0.9264 -1.5334 -2.0910
22183SOL    HW271397   5.592   9.803   8.000  1.4621  0.4720 -0.2427
22184SOL     OW71398   5.741   7.568   0.662  0.1370 -0.0202 -0.2455
22184SOL    HW171399   5.671   7.546   0.600  0.4352 -0.8031 -0.3065
22184SOL    HW271400   5.808   7.610   0.609 -0.5622  1.3834 -0.0793
22185SOL     OW71401   6.624   0.150   7.684 -0.0567  0.0130 -0.2852
22185SOL    HW171402   6.630   0.068   7.733 -2.1487 -0.6560 -1.0449
22185SOL    HW271403   6.581   0.126   7.602  2.0444  1.3702 -1.8757
22186SOL     OW71404   6.177   7.144   8.933  1.0002  0.0242  0.3897
22186SOL    HW171405   6.089   7.153   8.896  0.9427 -3.4925 -0.7729
22186SOL    HW271406   6.162   7.122   9.025  0.7812  0.9719  0.5952
22187SOL     OW71407   7.464   8.982   7.202  0.0783 -0.0781  0.2962
22187SOL    HW171408   7.377   9.003   7.237 -0.2153 -0.4918 -0.1708
22187SOL    HW271409   7.465   9.023   7.116  0.5633  0.4051  0.5262
22188SOL     OW71410   6.540   9.730   2.194 -0.5486 -0.0358 -0.4138
22188SOL    HW171411   6.605   9.753   2.127  0.0127 -0.4217 -0.0165
22188SOL    HW271412   6.537   9.807   2.252  1.2187 -0.8226  0.8306
22189SOL     OW71413   6.244   9.344   0.660  0.1469 -0.4916  0.3733
22189SOL    HW171414   6.269   9.373   0.747  4.5806 -2.9836  0.2131
22189SOL    HW271415   6.230   9.250   0.669  0.9479 -0.8447 -1.5978
22190SOL     OW71416   7.395   7.951   8.438  0.0849 -0.1914  0.1611
22190SOL    HW171417   7.346   7.998   8.370 -0.8478 -0.5608  0.5639
22190SOL    HW271418   7.337   7.880   8.464  1.6576 -1.9303 -0.7978
22191SOL     OW71419   5.792   7.868   8.580  0.0391  0.1577 -0.2258
22191SOL    HW171420   5.847   7.801   8.539  1.4626  0.4320  1.1003
22191SOL    HW271421   5.733   7.819   8.638  1.6599  0.0036  1.4072
22192SOL     OW71422   5.758   8.209   1.078  0.2013 -0.0815  0.1824
22192SOL    HW171423   5.848   8.189   1.103  0.6855  0.5765 -0.9434
22192SOL    HW271424   5.761   8.299   1.046 -0.9937  0.1831  0.7377
22193SOL     OW71425   8.055   8.975   5.872  0.2669  0.1694 -0.4346
22193SOL    HW171426   8.149   8.992   5.878 -0.0685  1.6881  1.3219
22193SOL    HW271427   8.042   8.893   5.919  0.9088 -1.1165 -2.3663
22194SOL     OW71428   6.194   0.135   8.784  0.3279  0.0607  0.6122
22194SOL    HW171429   6.256   0.202   8.757  0.4756 -0.2910  0.0684
22194SOL    HW271430   6.245   0.075   8.839  0.3749 -0.0031  0.5005
22195SOL     OW71431   9.360   0.086   8.198 -0.4763  0.7886 -0.0695
22195SOL    HW171432   9.270   0.107   8.223 -0.6170  1.3569 -0.9997
22195SOL    HW271433   9.376   0.138   8.119 -0.0739 -0.9454 -1.1931
22196SOL     OW71434   5.487   7.573   7.930  0.0710  0.0031  0.0823
22196SOL    HW171435   5.530   7.602   8.010  0.2340  0.3217 -0.1220
22196SOL    HW271436   5.509   7.639   7.865  0.4543 -0.5688 -0.3886
22197SOL     OW71437   5.950   9.711   7.927 -0.2214  0.0633 -0.6168
22197SOL    HW171438   5.951   9.663   7.844 -0.0260  0.2858 -0.7435
22197SOL    HW271439   6.042   9.727   7.947 -0.1660 -1.3776  0.4602
22198SOL     OW71440   6.221   8.046   6.555  0.8463  0.6570 -0.1802
22198SOL    HW171441   6.236   8.140   6.546 -0.9906  1.2327  1.7427
22198SOL    HW271442   6.234   8.029   6.649  2.5040 -1.3198 -0.7055
22199SOL     OW71443   6.975   8.187   8.247 -0.3181  0.9350  0.1984
22199SOL    HW171444   6.897   8.194   8.301 -0.0548 -0.8904  0.8981
22199SOL    HW271445   6.949   8.224   8.163 -2.1366 -0.1012  0.2373
22200SOL     OW71446   6.338   0.383   8.662 -1.0183  0.2941 -0.3964
22200SOL    HW171447   6.370   0.472   8.680  2.0388 -0.6160 -0.7579
22200SOL    HW271448   6.391   0.352   8.589 -2.6377 -1.5444 -0.8828
22201SOL     OW71449   6.201   6.843   7.367  0.0202  0.2163 -0.4089
22201SOL    HW171450   6.204   6.922   7.313  1.5919  1.6137  1.5642
22201SOL    HW271451   6.113   6.844   7.404 -0.9794 -0.6018 -2.5790
22202SOL     OW71452   7.035   7.742   9.855 -0.3203 -0.2372  0.1498
22202SOL    HW171453   7.090   7.701   9.923 -0.9769 -1.1429  0.1623
22202SOL    HW271454   7.010   7.669   9.798  1.1081  0.6667 -1.7370
22203SOL     OW71455   3.687   8.061   8.574 -0.3968 -0.1457  0.1468
22203SOL    HW171456   3.751   7.996   8.603  1.0571  2.0704  2.2625
22203SOL    HW271457   3.734   8.114   8.510 -0.1451  1.2711  1.4425
22204SOL     OW71458   4.679   8.850   0.476  0.5677  0.1395 -0.6611
22204SOL    HW171459   4.695   8.762   0.511 -0.8325 -0.4538 -1.4470
22204SOL    HW271460   4.714   8.847   0.387  2.0578  0.9435 -0.1491
22205SOL     OW71461   9.143   9.010   8.912  0.4366 -0.2305  0.4593
22205SOL    HW171462   9.124   9.037   8.822  1.6069 -1.0916 -0.0772
22205SOL    HW271463   9.094   8.929   8.923 -0.7297  0.5223  1.0675
22206SOL     OW71464   6.374   8.191   8.072  0.2659  0.3103  0.1811
22206SOL    HW171465   6.359   8.234   8.156 -1.7162 -0.1660  0.1041
22206SOL    HW271466   6.391   8.100   8.094 -0.5056  0.1340  0.0586
22207SOL     OW71467   4.910   0.294   7.278  0.4229 -0.3391 -0.1516
22207SOL    HW171468   4.914   0.209   7.234  1.9053  0.0794 -0.8712
22207SOL    HW271469   4.976   0.347   7.235  0.7054  0.6575  1.4141
22208SOL     OW71470   7.753   8.374   5.521  0.0954 -0.5720  0.4602
22208SOL    HW171471   7.733   8.385   5.614  0.3974  0.8848  0.3633
22208SOL    HW271472   7.722   8.454   5.479 -0.3743 -1.3641 -0.7695
22209SOL     OW71473   3.730   5.564   8.601 -0.9027  0.2243  0.2751
22209SOL    HW171474   3.755   5.591   8.690 -0.1312 -0.0553  0.1477
22209SOL    HW271475   3.695   5.476   8.612 -0.0711 -0.1241  0.2028
22210SOL     OW71476   7.179   9.826   8.394  0.6247 -0.3291  0.6164
22210SOL    HW171477   7.120   9.884   8.443  0.9791  0.2523  0.3670
22210SOL    HW271478   7.253   9.882   8.371 -0.4099 -0.0058 -2.3269
22211SOL     OW71479   5.684   1.747   8.261 -0.7510  0.5688 -0.2148
22211SOL    HW171480   5.776   1.770   8.269 -0.2848 -0.3809 -2.2583
22211SOL    HW271481   5.681   1.652   8.271 -1.3356  0.4663 -1.2110
22212SOL     OW71482   8.014   9.104   9.452  0.0310  0.3524  0.1735
22212SOL    HW171483   8.029   9.190   9.491  0.0574 -0.1142  1.2575
22212SOL    HW271484   8.102   9.071   9.432 -0.0056  0.7870 -0.7468
22213SOL     OW71485   5.122   7.893   1.215 -0.9165 -0.2980  0.2043
22213SOL    HW171486   5.034   7.896   1.177 -1.1271 -0.0568  0.7063
22213SOL    HW271487   5.125   7.967   1.276 -0.8708 -1.1308  1.2589
22214SOL     OW71488   0.310   6.631   7.625 -0.0281  0.0597  0.9108
22214SOL    HW171489   0.228   6.589   7.597 -0.2787  0.0409  1.6517
22214SOL    HW271490   0.378   6.569   7.599  0.0200  1.1693 -2.0144
22215SOL     OW71491   5.360   9.350   5.253  0.3049 -0.4999  0.2548
22215SOL    HW171492   5.336   9.434   5.295 -0.6477 -0.7074  0.1506
22215SOL    HW271493   5.325   9.357   5.164  0.5069 -0.8822  0.1454
22216SOL     OW71494   6.341   7.318   8.247 -0.3992 -0.0385  0.5373
22216SOL    HW171495   6.351   7.407   8.282 -2.3295  0.0826  0.8609
22216SOL    HW271496   6.417   7.271   8.280  1.0372  1.6258 -0.1708
22217SOL     OW71497   5.880   9.205   8.625  0.0030  0.2196 -0.2497
22217SOL    HW171498   5.837   9.168   8.702 -0.4228  0.8612 -0.1657
22217SOL    HW271499   5.822   9.276   8.597  0.6090  0.5855 -0.6118
22218SOL     OW71500   5.929   8.183   7.907 -0.3945  0.6476 -0.1546
22218SOL    HW171501   5.936   8.133   7.988 -3.1128  1.9306  1.0098
22218SOL    HW271502   5.909   8.118   7.840  0.9281 -0.3292  0.3690
22219SOL     OW71503   7.038   6.445   9.235 -0.7712 -0.0415  0.1014
22219SOL    HW171504   7.077   6.528   9.261  0.5800 -0.3845 -0.7389
22219SOL    HW271505   7.083   6.379   9.287 -0.3248 -0.4316 -0.7642
22220SOL     OW71506   4.382   7.513   6.771  0.4578  0.2797  0.0911
22220SOL    HW171507   4.331   7.520   6.851  0.7994  0.9202  0.2596
22220SOL    HW271508   4.468   7.549   6.793  1.1180 -1.1461 -0.0790
22221SOL     OW71509   6.760   9.105   9.308 -0.2349  0.1207 -0.1432
22221SOL    HW171510   6.759   9.178   9.246  1.4498 -0.0482 -0.4138
22221SOL    HW271511   6.797   9.142   9.388 -2.3918  0.3375  0.8238
22222SOL     OW71512   4.348   5.353   6.963  0.0764 -0.2502 -0.7578
22222SOL    HW171513   4.268   5.300   6.961  0.2647 -0.5753  0.0213
22222SOL    HW271514   4.416   5.296   6.927  0.6638 -1.2578  1.6911
22223SOL     OW71515   8.293   9.857   8.501  0.2750  0.1945 -0.1319
22223SOL    HW171516   8.324   9.772   8.531  0.5857  0.8229  1.4314
22223SOL    HW271517   8.215   9.837   8.449  0.2909 -1.0328  0.2829
22224SOL     OW71518   5.402   5.562   7.305 -0.1398 -0.2283 -0.1939
22224SOL    HW171519   5.411   5.496   7.237 -1.2218 -1.7109  1.0249
22224SOL    HW271520   5.449   5.526   7.381 -0.9233  0.2896  0.5652
22225SOL     OW71521   7.206   6.509   8.092 -0.3122  0.4096  0.2703
22225SOL    HW171522   7.183   6.418   8.109  1.0863  0.2170  1.3971
22225SOL    HW271523   7.124   6.551   8.067 -0.9517 -1.1801 -0.4166
22226SOL     OW71524   6.900   8.238   0.252  0.4033  0.4671  0.5004
22226SOL    HW171525   6.860   8.289   0.181 -0.8386  0.5499  1.2386
22226SOL    HW271526   6.994   8.246   0.236  0.1867  1.4755 -0.4478
22227SOL     OW71527   7.138   0.290   8.934  0.5986 -0.0930  0.4152
22227SOL    HW171528   7.049   0.261   8.915  0.0436 -0.0631  2.6989
22227SOL    HW271529   7.163   0.341   8.857 -0.7879 -1.3071 -0.8994
22228SOL     OW71530   7.058   7.497   1.126  0.0775  0.7457  0.4051
22228SOL    HW171531   6.978   7.542   1.102  0.8106  1.2123 -1.3393
22228SOL    HW271532   7.128   7.558   1.101  1.0113 -0.2545  0.4994
22229SOL     OW71533   7.575   8.392   7.983  0.0356  0.3012 -0.2337
22229SOL    HW171534   7.525   8.473   7.983  0.9794  0.8997  0.2638
22229SOL    HW271535   7.660   8.415   8.021 -0.1330 -1.2046  1.1947
22230SOL     OW71536   5.249   8.233   6.904 -0.6037  0.6554 -0.3670
22230SOL    HW171537   5.332   8.209   6.862  0.1698  0.7623  1.0341
22230SOL    HW271538   5.193   8.157   6.893 -0.0484  0.2840 -0.6608
22231SOL     OW71539   6.867   0.301   0.306 -0.1853 -0.1150  0.4908
22231SOL    HW171540   6.906   0.213   0.297  0.8292  0.4067 -0.5955
22231SOL    HW271541   6.822   0.299   0.390  1.9764 -0.8770  1.7146
22232SOL     OW71542   7.247   9.011   7.369 -0.1262 -0.7010 -0.3884
22232SOL    HW171543   7.320   9.017   7.430 -1.4308  2.1244  1.0847
22232SOL    HW271544   7.171   8.992   7.424 -1.2359  1.3288 -1.1110
22233SOL     OW71545   5.460   0.877   6.867 -0.0122 -0.5571 -0.3145
22233SOL    HW171546   5.546   0.835   6.863  0.5491  0.6010 -0.7404
22233SOL    HW271547   5.432   0.885   6.776 -0.3296 -0.4466 -0.2094
22234SOL     OW71548   5.714   9.573   6.984 -0.7626 -0.2989  0.3719
22234SOL    HW171549   5.663   9.513   7.038  0.7457 -0.6537  1.4584
22234SOL    HW271550   5.673   9.659   6.999 -2.1779 -0.8390 -0.2571
22235SOL     OW71551   7.162   7.794   8.349  0.1364  0.0596  0.0304
22235SOL    HW171552   7.154   7.843   8.268  0.3369  0.0318 -0.0063
22235SOL    HW271553   7.185   7.705   8.322  3.6239  0.7586  0.1945
22236SOL     OW71554   5.636   0.177   5.686  0.6323 -0.4523  0.0459
22236SOL    HW171555   5.563   0.120   5.661 -0.8855  1.6607 -0.5646
22236SOL    HW271556   5.603   0.227   5.760  1.4149  0.6247 -0.3176
22237SOL     OW71557   5.045   9.444   7.427 -0.6065 -0.5472  0.1083
22237SOL    HW171558   4.950   9.447   7.435 -0.7077  0.8538 -1.0936
22237SOL    HW271559   5.073   9.534   7.441  0.4126 -0.7081 -0.7854
22238SOL     OW71560   5.545   8.802   6.524  0.6472  0.5146 -0.1447
22238SOL    HW171561   5.469   8.788   6.580 -0.1782  1.1815 -1.0587
22238SOL    HW271562   5.529   8.887   6.483  1.3795  0.1878 -1.1414
22239SOL     OW71563   4.710   9.234   7.661  0.0259 -0.2252 -0.3164
22239SOL    HW171564   4.690   9.328   7.662 -0.1264 -0.2359 -1.3229
22239SOL    HW271565   4.805   9.230   7.656 -0.0259 -0.0829 -1.9622
22240SOL     OW71566   6.679   8.455   7.623 -0.2639  0.1301 -0.3935
22240SOL    HW171567   6.738   8.499   7.563 -1.4659  1.0385 -0.9638
22240SOL    HW271568   6.623   8.401   7.567 -0.1373 -0.5379  0.1085
22241SOL     OW71569   8.459   8.281   7.959  0.0734  0.0765 -0.2030
22241SOL    HW171570   8.399   8.355   7.964 -0.3155 -0.2309 -0.2665
22241SOL    HW271571   8.523   8.297   8.028  0.1934  0.6511 -0.4471
22242SOL     OW71572   4.356   6.691   6.101 -0.2624 -0.1181 -0.3018
22242SOL    HW171573   4.302   6.691   6.180 -0.5835 -1.1580 -0.5079
22242SOL    HW271574   4.311   6.750   6.041 -1.1668 -0.9520 -0.4585
22243SOL     OW71575   0.933   8.975   0.398 -0.1356  0.5356  0.4152
22243SOL    HW171576   0.913   9.022   0.479 -0.2748  0.4410  0.4359
22243SOL    HW271577   1.015   9.013   0.368  0.8135 -0.5835  1.4819
22244SOL     OW71578   4.614   8.944   0.025 -0.3494  0.2783  0.2187
22244SOL    HW171579   4.624   9.038   0.040  1.7343  0.0605  0.5351
22244SOL    HW271580   4.549   8.938  -0.045 -0.0566  1.9908 -0.2479
22245SOL     OW71581   7.453   5.548   9.267 -0.5770  0.0710  0.6864
22245SOL    HW171582   7.420   5.554   9.356  1.9505 -0.3096  1.7312
22245SOL    HW271583   7.549   5.546   9.276 -0.1223  2.1219 -2.1672
22246SOL     OW71584   8.919   7.713   9.032 -0.0428 -0.0647  0.2217
22246SOL    HW171585   8.880   7.798   9.049  1.1352  0.6149 -0.3355
22246SOL    HW271586   9.014   7.728   9.037  0.1807 -1.5547  1.0962
22247SOL     OW71587   5.675   7.411   7.593  0.1271  0.1159  0.3133
22247SOL    HW171588   5.729   7.436   7.518 -0.8282  2.3780  0.3135
22247SOL    HW271589   5.634   7.493   7.622 -1.2167 -1.0708  1.9654
22248SOL     OW71590   4.384   7.179   0.105  0.0352 -0.6892 -0.2137
22248SOL    HW171591   4.396   7.271   0.083  2.2627 -0.8563  0.0540
22248SOL    HW271592   4.397   7.175   0.200 -0.3074 -1.2493 -0.1837
22249SOL     OW71593   6.111   7.029   6.577 -0.1409  0.9199  0.0305
22249SOL    HW171594   6.016   7.026   6.570 -0.0857  0.5149 -0.5387
22249SOL    HW271595   6.135   6.946   6.619  0.0176  0.7295 -0.4406
22250SOL     OW71596   6.533   5.077   7.327 -0.2445 -0.1229  0.1239
22250SOL    HW171597   6.497   5.148   7.273 -0.8334  0.1690  0.8877
22250SOL    HW271598   6.574   5.122   7.401  0.4688 -0.5279 -0.0168
22251SOL     OW71599   8.872   0.865   9.026 -0.4882  0.0732 -0.3161
22251SOL    HW171600   8.801   0.912   8.982 -0.6272 -1.5799 -1.9636
22251SOL    HW271601   8.833   0.782   9.053 -0.4377  1.0299  3.1950
22252SOL     OW71602   7.418   9.618   6.332  0.2524 -0.5618  0.5833
22252SOL    HW171603   7.347   9.559   6.305  1.0759 -1.7798  1.0014
22252SOL    HW271604   7.480   9.617   6.259 -0.1069  0.4563  0.2435
22253SOL     OW71605   8.175   9.363   7.886  0.3188  0.0925  0.1283
22253SOL    HW171606   8.231   9.388   7.813  0.0784  0.4585  0.0670
22253SOL    HW271607   8.119   9.294   7.852  1.6880 -1.2871  0.5881
22254SOL     OW71608   7.155   7.690   2.799  0.2533  0.5337  0.0015
22254SOL    HW171609   7.240   7.670   2.761  1.0576 -0.8126  2.2936
22254SOL    HW271610   7.174   7.756   2.866 -0.8838  1.7909 -0.8639
22255SOL     OW71611   5.722   9.648   9.283 -0.0102 -0.0762 -0.3056
22255SOL    HW171612   5.676   9.729   9.303  0.5811  0.4131 -0.8653
22255SOL    HW271613   5.719   9.641   9.187  0.6839 -0.2596 -0.3238
22256SOL     OW71614   4.882   8.623   7.932 -0.2961  0.3131  0.4225
22256SOL    HW171615   4.909   8.713   7.913  0.2076  0.2942  1.0300
22256SOL    HW271616   4.960   8.581   7.968 -0.5723 -0.3244  0.2986
22257SOL     OW71617   7.457   5.267   9.176  0.1978  0.3576 -0.2863
22257SOL    HW171618   7.463   5.328   9.249 -0.3675 -0.3565  0.3796
22257SOL    HW271619   7.481   5.319   9.099  1.8055  0.8564  0.5200
22258SOL     OW71620   5.013   7.421   8.821 -0.5356 -0.3392 -0.6054
22258SOL    HW171621   5.057   7.506   8.826 -0.1216 -0.6017  0.2808
22258SOL    HW271622   4.920   7.443   8.808 -0.3972  0.2365 -0.6589
22259SOL     OW71623   6.982   0.104   0.839 -0.2260  0.2635  0.1671
22259SOL    HW171624   7.060   0.106   0.782 -0.7977  2.3287 -0.6180
22259SOL    HW271625   7.017   0.089   0.926  0.8828 -0.6758 -0.4058
22260SOL     OW71626   5.299   8.983   7.099 -0.5118  0.3925 -0.3002
22260SOL    HW171627   5.308   8.890   7.118 -0.8853  0.3849 -0.1324
22260SOL    HW271628   5.226   9.011   7.155 -1.2051  0.5224 -1.2463
22261SOL     OW71629   6.972   9.677   8.453 -0.8153  0.6949 -0.0820
22261SOL    HW171630   6.999   9.688   8.544 -0.2811 -0.3593 -0.1007
22261SOL    HW271631   7.047   9.708   8.402  1.2729 -3.7079 -0.1481
22262SOL     OW71632   6.316   7.637   0.473 -0.5352  0.1724  0.5673
22262SOL    HW171633   6.240   7.579   0.473 -0.0357 -0.5024  0.8788
22262SOL    HW271634   6.321   7.669   0.563 -0.7507  0.6350  0.4202
22263SOL     OW71635   4.462   8.020   9.450 -0.1885  0.3869  0.3558
22263SOL    HW171636   4.429   8.099   9.408 -4.0157 -0.7028  0.9230
22263SOL    HW271637   4.549   8.007   9.412 -0.5853  3.2506 -1.8881
22264SOL     OW71638   4.684   7.791   9.284 -0.3105 -0.3758 -0.5692
22264SOL    HW171639   4.718   7.755   9.366 -0.3057  0.0529 -0.3780
22264SOL    HW271640   4.700   7.885   9.292 -1.4270 -0.1864 -0.5350
22265SOL     OW71641   7.116   7.295   9.357  0.2869 -0.3419  0.6466
22265SOL    HW171642   7.021   7.298   9.356  0.2660 -0.3537 -1.5040
22265SOL    HW271643   7.138   7.220   9.414 -1.0757 -2.0308 -0.9430
22266SOL     OW71644   7.411   5.402   7.847  0.3867 -0.3125 -0.7375
22266SOL    HW171645   7.352   5.472   7.817  0.4511 -0.1454 -0.4840
22266SOL    HW271646   7.406   5.335   7.779 -0.0992 -0.3002 -0.7185
22267SOL     OW71647   5.835   7.314   1.769  0.1315 -0.2827 -0.2690
22267SOL    HW171648   5.882   7.388   1.731 -0.9142  0.8988  0.6365
22267SOL    HW271649   5.745   7.325   1.738 -0.3536 -0.2970  1.0791
22268SOL     OW71650   6.744   9.814   0.404  0.2224 -0.1361  0.7634
22268SOL    HW171651   6.693   9.734   0.394 -2.6424  1.5351  0.7768
22268SOL    HW271652   6.765   9.817   0.498  1.1312 -1.2316  0.6245
22269SOL     OW71653   7.115   8.804   0.346 -0.7559  0.8251  0.7578
22269SOL    HW171654   7.045   8.867   0.328  0.2385  2.1701  1.3806
22269SOL    HW271655   7.074   8.736   0.400 -1.2802  2.3001  2.2936
22270SOL     OW71656   4.735   7.488   9.087  0.2411  0.1427  1.0833
22270SOL    HW171657   4.639   7.488   9.087  0.2030 -1.1032 -0.0378
22270SOL    HW271658   4.759   7.573   9.123 -1.3374  1.9396 -1.7252
22271SOL     OW71659   4.911   5.579   9.337 -0.2615  0.0588  0.0178
22271SOL    HW171660   5.005   5.591   9.349 -0.2539  1.3806 -1.1867
22271SOL    HW271661   4.872   5.662   9.364 -1.0138 -0.1983 -0.2533
22272SOL     OW71662   6.005   8.236   9.167 -0.3036 -0.3632 -0.2311
22272SOL    HW171663   6.101   8.231   9.164 -0.3036 -0.3664 -0.2268
22272SOL    HW271664   5.978   8.153   9.206 -0.3721 -0.7926 -1.1792
22273SOL     OW71665   7.642   9.358   1.414 -0.3844  0.0455  0.0357
22273SOL    HW171666   7.597   9.351   1.498  2.9869  1.5003  2.1755
22273SOL    HW271667   7.619   9.445   1.382 -0.2015  0.2349  0.4126
22274SOL     OW71668   5.957   8.656   9.416  0.1836  0.7311 -0.4818
22274SOL    HW171669   6.052   8.664   9.425  0.1059  1.1320  0.0557
22274SOL    HW271670   5.937   8.569   9.449  0.0894  1.5882  1.9698
22275SOL     OW71671   6.971   9.110   7.843 -0.4349  0.3444 -0.4371
22275SOL    HW171672   6.899   9.058   7.879  0.6440 -1.9618 -1.3757
22275SOL    HW271673   6.937   9.143   7.759 -0.8503  0.4247 -0.2380
22276SOL     OW71674   6.255   8.648   7.738 -0.2234 -0.4780  0.0349
22276SOL    HW171675   6.337   8.692   7.716  0.3686 -0.6891  1.7179
22276SOL    HW271676   6.216   8.702   7.807 -0.0730 -1.9004  1.2819
22277SOL     OW71677   6.132   5.301   9.837 -0.1462 -0.0146 -0.4033
22277SOL    HW171678   6.194   5.309   9.910 -1.9067  2.5135  0.9694
22277SOL    HW271679   6.083   5.221   9.855 -0.8308  0.7799  1.4761
22278SOL     OW71680   4.074   5.772   0.466  0.5400  0.2451 -0.5215
22278SOL    HW171681   4.129   5.731   0.400  1.9455  0.4685  0.4545
22278SOL    HW271682   3.990   5.725   0.461  1.4700 -1.4618 -0.6960
22279SOL     OW71683   6.757   1.507   8.199 -0.0430  0.3029  0.3229
22279SOL    HW171684   6.805   1.468   8.126  0.2361  1.8087 -0.3481
22279SOL    HW271685   6.786   1.598   8.200 -3.0904  1.4029 -0.3393
22280SOL     OW71686   7.100   8.070   0.506 -0.1138  0.2678 -0.4752
22280SOL    HW171687   7.011   8.053   0.474 -0.5478  1.3874  0.0828
22280SOL    HW271688   7.120   8.159   0.476  1.0149 -0.1393 -1.0030
22281SOL     OW71689   5.351   6.882   9.148 -0.2796 -0.1695  0.9408
22281SOL    HW171690   5.409   6.891   9.072 -1.2854  1.9111  0.3237
22281SOL    HW271691   5.309   6.797   9.137  0.9914 -0.7322  0.2106
22282SOL     OW71692   7.138   5.211   0.614 -0.1532  0.1595  0.4973
22282SOL    HW171693   7.103   5.176   0.532  1.5769 -0.0315 -0.2114
22282SOL    HW271694   7.070   5.270   0.646 -0.4954  0.9610 -1.5625
22283SOL     OW71695   8.095   8.696   0.319  0.2993 -0.0808  0.4462
22283SOL    HW171696   8.068   8.726   0.232  0.8351 -1.2367 -0.1478
22283SOL    HW271697   8.079   8.771   0.376  0.8465  1.0459 -0.8140
22284SOL     OW71698   6.978   8.098   1.015 -0.8139  0.1691 -0.2752
22284SOL    HW171699   7.031   8.112   0.937  0.5022  0.0661  0.5607
22284SOL    HW271700   7.031   8.135   1.086 -2.6919  1.7639  0.3844
22285SOL     OW71701   6.793   7.319   0.693 -0.4932  0.4811 -0.4162
22285SOL    HW171702   6.876   7.366   0.693 -0.7334  0.9189 -0.0065
22285SOL    HW271703   6.728   7.387   0.712 -1.1358  0.4724 -2.3072
22286SOL     OW71704   7.389   9.220   9.159  0.0026  0.5854 -0.2217
22286SOL    HW171705   7.394   9.145   9.101 -2.4126 -0.5707  0.9116
22286SOL    HW271706   7.353   9.290   9.105  3.6200  1.5400 -1.6901
22287SOL     OW71707   3.826   0.212   1.273 -0.0063  0.5898  0.2160
22287SOL    HW171708   3.744   0.212   1.322  0.2927 -0.0655  0.7248
22287SOL    HW271709   3.824   0.131   1.222  0.8863 -0.0940  1.2088
22288SOL     OW71710   7.156   9.392   8.298  0.5349  0.0418 -0.4649
22288SOL    HW171711   7.067   9.428   8.300  0.8830  0.9110  0.1480
22288SOL    HW271712   7.153   9.318   8.359  0.2610  0.1590 -0.3312
22289SOL     OW71713   4.845   6.866   9.672 -0.4605  0.0139 -0.7807
22289SOL    HW171714   4.918   6.808   9.651  0.4084  0.6527  0.2955
22289SOL    HW271715   4.862   6.893   9.762 -1.9979  0.2599 -0.5343
22290SOL     OW71716   3.532   6.030   8.589  0.3920  0.0490 -0.1011
22290SOL    HW171717   3.554   6.019   8.496 -0.7853  1.1659 -0.5411
22290SOL    HW271718   3.481   5.953   8.611 -1.4230  0.9131 -1.0835
22291SOL     OW71719   6.605   8.894   9.235  0.0634 -0.0420  0.6100
22291SOL    HW171720   6.658   8.963   9.274 -0.2757  0.6147 -0.0763
22291SOL    HW271721   6.586   8.925   9.146 -0.6168 -0.7289  0.5038
22292SOL     OW71722   8.532   7.512   8.093  0.3484 -0.0048  0.6809
22292SOL    HW171723   8.452   7.461   8.081  1.6266 -2.3910  1.5418
22292SOL    HW271724   8.601   7.456   8.058  1.4763  3.2129 -2.8466
22293SOL     OW71725   4.931   9.150   8.611  0.1395  0.2606 -0.2916
22293SOL    HW171726   4.993   9.155   8.684  0.3505  1.0268 -0.5143
22293SOL    HW271727   4.979   9.182   8.535 -0.0884 -0.5083 -0.7752
22294SOL     OW71728   8.688   6.029   1.141  0.1484  0.0381 -0.0376
22294SOL    HW171729   8.753   5.990   1.199 -1.0818 -1.1611  0.5991
22294SOL    HW271730   8.609   6.038   1.196 -0.6484  0.1289 -1.1637
22295SOL     OW71731   5.727   8.545   9.640 -0.1412  0.0584  0.2438
22295SOL    HW171732   5.764   8.493   9.569 -0.0677  0.1981  0.1792
22295SOL    HW271733   5.694   8.481   9.703  0.3483 -0.0666  0.3760
22296SOL     OW71734   6.086   7.609   9.488  0.1233  0.2880 -0.0620
22296SOL    HW171735   6.009   7.599   9.433  0.3679  0.2989 -0.4076
22296SOL    HW271736   6.118   7.519   9.500 -0.7708  0.1228  1.2819
22297SOL     OW71737   9.206   0.066   1.254 -0.5699 -0.6058 -0.3258
22297SOL    HW171738   9.188  -0.020   1.292  0.1887 -1.2952 -1.4592
22297SOL    HW271739   9.293   0.057   1.216 -1.0637  0.2253 -1.7016
22298SOL     OW71740   6.551   9.559   2.415 -0.0171 -0.3664  0.2228
22298SOL    HW171741   6.534   9.633   2.358 -0.1315  1.1199  2.0990
22298SOL    HW271742   6.531   9.482   2.361  1.5450  0.8462 -2.2627
22299SOL     OW71743   5.620   8.525   7.495 -0.0666  0.7932  0.0259
22299SOL    HW171744   5.712   8.514   7.517 -0.3375 -2.1586  0.0852
22299SOL    HW271745   5.576   8.538   7.579  0.2230  1.5945  0.0542
22300SOL     OW71746   8.230   8.367   9.173  0.2439 -0.2828 -0.1721
22300SOL    HW171747   8.193   8.411   9.097  0.8990 -0.1534 -0.4221
22300SOL    HW271748   8.167   8.383   9.243 -0.1364 -0.0134 -0.5710
22301SOL     OW71749   6.819   7.810   8.885  0.0686  0.1524  0.4223
22301SOL    HW171750   6.880   7.762   8.941 -0.8437 -0.9541  0.4998
22301SOL    HW271751   6.833   7.775   8.797 -0.2278  0.1332  0.3816
22302SOL     OW71752   5.617   7.750   0.081  0.2612  0.2440 -0.3934
22302SOL    HW171753   5.566   7.787   0.009  0.3239  0.1466 -0.4891
22302SOL    HW271754   5.579   7.664   0.095  0.5447  0.0783 -0.6198
22303SOL     OW71755   6.403   0.627   0.420 -0.0480  0.7046 -0.9204
22303SOL    HW171756   6.311   0.646   0.403  0.3534  2.2947 -1.4872
22303SOL    HW271757   6.421   0.670   0.504  0.1174  0.1371 -0.6586
22304SOL     OW71758   7.290   5.575   0.561  0.1306  0.4202  0.2053
22304SOL    HW171759   7.350   5.636   0.518  0.3589  0.4753  0.5992
22304SOL    HW271760   7.346   5.519   0.614  0.0760 -1.0736 -1.2323
22305SOL     OW71761   8.220   7.917   0.831 -0.1236 -0.0067 -0.0096
22305SOL    HW171762   8.308   7.952   0.824 -0.1347  0.4669  1.8641
22305SOL    HW271763   8.177   7.944   0.749  0.9763  1.1517 -0.2328
22306SOL     OW71764   6.773   6.919   0.585  0.0826  0.1652  0.2232
22306SOL    HW171765   6.788   6.982   0.514 -2.4846  0.7276  0.0605
22306SOL    HW271766   6.695   6.953   0.630  0.2986 -1.4206  1.8890
22307SOL     OW71767   8.070   6.727   0.303 -0.0377 -0.4918  0.1058
22307SOL    HW171768   8.147   6.706   0.357  0.9072  0.4701 -0.8017
22307SOL    HW271769   8.070   6.822   0.299  0.7039 -0.5298 -2.6074
22308SOL     OW71770   5.909   8.025   8.863  0.3605 -0.3306 -0.3405
22308SOL    HW171771   5.964   8.010   8.941 -1.1341 -0.5823  0.7157
22308SOL    HW271772   5.949   7.971   8.795  1.0609 -1.0043  0.5773
22309SOL     OW71773   5.051   8.544   2.775  0.0214  0.4219 -0.4062
22309SOL    HW171774   5.093   8.467   2.812  0.4223  1.2067  0.8611
22309SOL    HW271775   5.042   8.525   2.682  0.6302 -0.9058 -0.2129
22310SOL     OW71776   7.346   7.221   9.195  0.0077 -0.1787  0.3196
22310SOL    HW171777   7.272   7.251   9.247 -0.5538  2.3298 -1.7207
22310SOL    HW271778   7.419   7.216   9.257 -1.3219 -0.5930  1.9387
22311SOL     OW71779   8.882   9.493   8.899 -0.2606 -0.4051  0.1813
22311SOL    HW171780   8.924   9.418   8.941 -0.0626 -0.4611 -0.1078
22311SOL    HW271781   8.809   9.515   8.956  0.8615  0.4521  1.3418
22312SOL     OW71782   6.653   6.481   9.480 -0.1988 -0.3705 -0.1482
22312SOL    HW171783   6.655   6.473   9.385 -1.5293 -0.7796 -0.1621
22312SOL    HW271784   6.683   6.396   9.512 -1.0862 -0.7169 -0.2181
22313SOL     OW71785   4.486   7.683   5.964 -0.3190 -0.2024 -0.3276
22313SOL    HW171786   4.478   7.718   6.052 -0.3161  0.3458 -0.5419
22313SOL    HW271787   4.421   7.612   5.960 -0.9510  0.3620 -0.1715
22314SOL     OW71788   5.508   9.622   8.799 -0.5011  0.1026  0.2013
22314SOL    HW171789   5.482   9.544   8.751  1.8921 -1.0503  0.6722
22314SOL    HW271790   5.554   9.677   8.735 -1.9076  1.0476 -0.0521
22315SOL     OW71791   3.958   9.837   2.021 -0.2584  0.1439  0.4580
22315SOL    HW171792   3.898   9.830   2.095  0.4875 -0.3142  1.0271
22315SOL    HW271793   3.958   9.931   1.999  0.4583  0.4863  1.8387
22316SOL     OW71794   6.450   9.075   9.453  0.3147 -0.1121  0.6778
22316SOL    HW171795   6.455   9.045   9.362  1.9077 -0.2985  0.8077
22316SOL    HW271796   6.356   9.071   9.474 -0.2015  0.8429 -1.2329
22317SOL     OW71797   7.089   0.916   0.856  0.2801 -0.0601  0.0350
22317SOL    HW171798   7.055   0.839   0.903 -0.8529 -0.7235 -1.7680
22317SOL    HW271799   7.129   0.880   0.777  1.5270  1.0791  0.1245
22318SOL     OW71800   7.037   0.077   0.455 -0.3405 -0.1079  0.1282
22318SOL    HW171801   7.075   0.120   0.379  0.3870 -1.6413 -0.4024
22318SOL    HW271802   7.041  -0.016   0.435 -2.4932 -0.4336  0.9538
22319SOL     OW71803   7.594   7.500   3.475  0.1880 -0.1147 -0.3725
22319SOL    HW171804   7.617   7.407   3.481 -2.4959 -0.9156 -0.8587
22319SOL    HW271805   7.553   7.519   3.560 -0.1164  0.3550 -0.6224
22320SOL     OW71806   6.510   6.672   1.705 -0.2402  0.1303 -0.3342
22320SOL    HW171807   6.509   6.766   1.720 -3.6912  0.3675 -1.1081
22320SOL    HW271808   6.484   6.663   1.613  0.5755 -1.5870 -0.4264
22321SOL     OW71809   6.675   0.283   9.708 -0.4303  0.3538 -0.0908
22321SOL    HW171810   6.606   0.327   9.658  0.4194  1.7586 -0.0903
22321SOL    HW271811   6.702   0.348   9.773  0.8474 -0.1813 -0.0599
22322SOL     OW71812   5.080   0.084   2.427 -0.1335 -0.0233  0.6158
22322SOL    HW171813   5.081   0.119   2.338 -1.3642 -1.1287  0.1310
22322SOL    HW271814   5.162   0.036   2.435  0.5178  1.0404  0.5044
22323SOL     OW71815   7.965   7.713   0.010  0.4682  0.5635 -0.3636
22323SOL    HW171816   8.034   7.678  -0.047  0.1875 -1.2232  0.3468
22323SOL    HW271817   7.884   7.699  -0.038  0.3303 -0.0045  0.0273
22324SOL     OW71818   6.314   9.063   7.689  1.2973  0.1250 -0.0946
22324SOL    HW171819   6.275   8.979   7.713 -0.2279  0.4101 -1.3531
22324SOL    HW271820   6.349   9.098   7.771  0.7017 -1.1047  0.7101
22325SOL     OW71821   7.347   9.648   2.435 -0.0604 -0.0268  0.2376
22325SOL    HW171822   7.421   9.588   2.443  0.8967  1.0611 -0.1911
22325SOL    HW271823   7.305   9.624   2.352  0.3588 -0.0439  0.0317
22326SOL     OW71824   6.640   1.201   0.368 -0.0412  0.6568  0.0396
22326SOL    HW171825   6.624   1.275   0.427  2.3569  1.1702  0.1765
22326SOL    HW271826   6.668   1.242   0.286  1.3998 -0.0564  0.1406
22327SOL     OW71827   7.396   1.399   1.693 -0.2733 -0.0580 -0.3812
22327SOL    HW171828   7.411   1.305   1.683  2.0660  0.2029  0.1922
22327SOL    HW271829   7.388   1.412   1.788 -0.0983  0.3775 -0.4238
22328SOL     OW71830   6.122   0.490   2.133  0.0473 -0.4292  0.5321
22328SOL    HW171831   6.218   0.495   2.139  0.0981  1.5865 -0.8513
22328SOL    HW271832   6.092   0.515   2.220  0.7397 -1.8973  1.2340
22329SOL     OW71833   4.035   9.250   3.955 -0.0361  0.6609  0.1311
22329SOL    HW171834   4.080   9.202   4.024 -2.1247 -2.4365 -0.4038
22329SOL    HW271835   3.949   9.272   3.992 -1.8500 -2.4845 -1.6798
22330SOL     OW71836   6.564   0.159   0.346  0.2018  0.4730 -0.3726
22330SOL    HW171837   6.601   0.211   0.417 -1.7815  0.2671  0.8841
22330SOL    HW271838   6.611   0.076   0.350  0.9460  0.9005 -0.0962
22331SOL     OW71839   7.666   7.779   1.882  0.4107 -0.0331 -0.1015
22331SOL    HW171840   7.709   7.830   1.813 -0.4833  0.6868 -0.1390
22331SOL    HW271841   7.726   7.706   1.898  0.4825 -0.4127 -1.8848
22332SOL     OW71842   6.243   7.840   9.477 -0.3014 -0.4837  0.9526
22332SOL    HW171843   6.324   7.840   9.427  0.1985  1.8530  1.6385
22332SOL    HW271844   6.212   7.749   9.473  2.9779 -1.7789  1.7412
22333SOL     OW71845   4.714   8.719   1.618 -0.4577 -0.1548  0.5953
22333SOL    HW171846   4.693   8.812   1.623 -0.9862 -0.1904 -0.5726
22333SOL    HW271847   4.630   8.675   1.623 -0.2575 -0.5407  0.5684
22334SOL     OW71848   6.661   0.003   1.034  0.0714 -0.2282  0.3204
22334SOL    HW171849   6.569  -0.024   1.032 -0.2457  0.4438  2.7570
22334SOL    HW271850   6.669   0.068   0.964 -1.5122  0.2841  0.5770
22335SOL     OW71851   7.588   0.619   0.535 -0.0834 -0.3148  0.4422
22335SOL    HW171852   7.499   0.626   0.501  0.9283  1.0576 -2.1844
22335SOL    HW271853   7.642   0.603   0.458  2.2090  1.1406  1.6324
22336SOL     OW71854   8.169   1.177   0.104 -0.4413 -0.1668 -0.1606
22336SOL    HW171855   8.091   1.223   0.074 -1.0646 -1.8504 -1.2673
22336SOL    HW271856   8.151   1.085   0.088  0.6234 -0.8932  2.3113
22337SOL     OW71857   6.452   0.046   0.816  0.4847 -0.2251  0.0726
22337SOL    HW171858   6.435  -0.013   0.742 -0.9283 -0.9370  0.9169
22337SOL    HW271859   6.370   0.045   0.866  0.6123  2.0308  0.4197
22338SOL     OW71860   6.175   0.813   7.036 -0.1686 -0.0303  0.0929
22338SOL    HW171861   6.103   0.753   7.056 -0.8383  0.5261 -0.6222
22338SOL    HW271862   6.142   0.869   6.966  1.2868 -0.3672 -0.9117
22339SOL     OW71863   5.880   8.466   2.497  0.3581  0.0886 -0.8489
22339SOL    HW171864   5.929   8.536   2.539 -1.7452 -0.0052  2.0350
22339SOL    HW271865   5.819   8.511   2.438 -1.9511  1.0016  1.9939
22340SOL     OW71866   4.796   0.237   1.435  0.0231 -0.6145  0.1805
22340SOL    HW171867   4.878   0.225   1.388  0.5166 -0.7217  1.0466
22340SOL    HW271868   4.728   0.220   1.370  0.6757 -0.1410 -0.6528
22341SOL     OW71869   4.780   1.149   0.397  0.0487 -0.0690  0.8618
22341SOL    HW171870   4.803   1.214   0.330  0.3101  0.9732  1.9384
22341SOL    HW271871   4.686   1.133   0.383  0.2659 -0.4674 -0.2518
22342SOL     OW71872   6.841   8.016   0.430  0.0076  0.0233  0.1737
22342SOL    HW171873   6.757   8.060   0.443 -0.0734 -0.2362  0.5528
22342SOL    HW271874   6.855   8.019   0.335  0.7965  2.3289  0.2927
22343SOL     OW71875   5.586   8.090   1.979  0.3058 -0.0387  0.2899
22343SOL    HW171876   5.526   8.153   2.020  0.4224 -0.3830  1.0170
22343SOL    HW271877   5.532   8.041   1.918 -0.0094  0.0954  0.4572
22344SOL     OW71878   6.324   0.130   9.133  0.1064 -0.5516 -0.4852
22344SOL    HW171879   6.328   0.204   9.073  0.2340 -1.3915 -1.5614
22344SOL    HW271880   6.368   0.160   9.212  0.7222  0.3150 -1.1333
22345SOL     OW71881   6.161   8.613   1.237 -0.4413 -0.1092 -0.2059
22345SOL    HW171882   6.250   8.609   1.201 -0.0055 -0.2694  0.8720
22345SOL    HW271883   6.115   8.539   1.197  0.8825 -2.0945  1.7542
22346SOL     OW71884   7.251   8.959   1.408  0.3620 -0.4669 -0.0684
22346SOL    HW171885   7.268   9.003   1.325  0.1310  0.2417  0.2549
22346SOL    HW271886   7.192   9.018   1.455  0.1814 -1.0406  0.4422
22347SOL     OW71887   6.473   5.892   8.632  0.0389  0.5420  0.3930
22347SOL    HW171888   6.452   5.896   8.725 -0.6296  0.5392  0.2433
22347SOL    HW271889   6.490   5.983   8.608 -1.2474  0.7425  0.1896
22348SOL     OW71890   5.258   7.025   0.862 -0.5972 -0.3660  0.4634
22348SOL    HW171891   5.340   7.030   0.813 -0.4075 -4.1027  0.1353
22348SOL    HW271892   5.191   7.006   0.797 -1.0460 -1.2683  1.1666
22349SOL     OW71893   7.846   7.265   1.419  0.4666  0.2318 -0.2365
22349SOL    HW171894   7.819   7.345   1.464 -0.0533  0.4793 -0.9694
22349SOL    HW271895   7.861   7.201   1.489 -2.7840 -0.1748  0.2251
22350SOL     OW71896   5.671   2.030   9.468  1.1759  0.4545  0.0940
22350SOL    HW171897   5.642   1.943   9.494 -0.4602  0.4045 -1.6732
22350SOL    HW271898   5.636   2.088   9.535 -0.9221  0.0987 -0.6225
22351SOL     OW71899   6.579   9.594   1.590  0.8260  0.3685 -0.9492
22351SOL    HW171900   6.672   9.605   1.570  0.9388  1.5447  0.1272
22351SOL    HW271901   6.575   9.593   1.685  0.1026 -3.2314 -0.8653
22352SOL     OW71902   5.221   9.222   0.076  0.4398  0.2738 -0.6116
22352SOL    HW171903   5.179   9.201  -0.007 -1.4289 -0.7948  0.5512
22352SOL    HW271904   5.261   9.140   0.104 -1.8841 -0.3769  1.1223
22353SOL     OW71905   7.580   1.425   9.123  0.5513 -0.0507  0.1723
22353SOL    HW171906   7.551   1.424   9.032 -0.8499 -0.5456  0.6097
22353SOL    HW271907   7.648   1.358   9.127  0.1514 -0.4951 -0.3704
22354SOL     OW71908   3.925   8.700   3.190  0.2653  0.8143 -0.0316
22354SOL    HW171909   3.954   8.609   3.201 -1.5389 -0.0778 -1.9711
22354SOL    HW271910   3.830   8.697   3.201  0.3379  2.8961  1.9405
22355SOL     OW71911   7.422   9.633   2.142  0.2098 -0.1629 -0.0526
22355SOL    HW171912   7.491   9.587   2.190 -0.2031  1.1848  1.9685
22355SOL    HW271913   7.377   9.565   2.092  1.2533 -1.5071  0.7816
22356SOL     OW71914   6.750   1.024   1.606 -0.0777  0.3112  0.3455
22356SOL    HW171915   6.791   0.985   1.683  0.7887  1.3781  0.4518
22356SOL    HW271916   6.662   0.986   1.604 -0.2774  0.5900  2.1248
22357SOL     OW71917   6.993   8.337   1.381 -0.0721  0.1897  0.2235
22357SOL    HW171918   6.990   8.429   1.356 -0.2379 -0.2028 -1.2463
22357SOL    HW271919   7.017   8.339   1.474  1.2477  1.6683 -0.1046
22358SOL     OW71920   7.173   0.013   1.108 -0.1440 -0.1122  0.0487
22358SOL    HW171921   7.246   0.039   1.053 -0.1217 -0.8197 -0.2704
22358SOL    HW271922   7.199   0.038   1.196  1.1842 -1.7456  0.1703
22359SOL     OW71923   7.251   1.865   2.146 -0.2334  0.3835 -0.2101
22359SOL    HW171924   7.211   1.852   2.060 -1.6449  0.5221  0.3854
22359SOL    HW271925   7.287   1.953   2.143 -2.8600  1.5739  0.2368
22360SOL     OW71926   7.480   9.049   1.532 -0.4671 -0.4769 -0.2071
22360SOL    HW171927   7.401   9.001   1.507 -0.5078 -0.7214  0.3630
22360SOL    HW271928   7.447   9.132   1.567 -0.4185 -0.2005 -0.8040
22361SOL     OW71929   7.968   0.910   9.582 -0.0793  0.0008  0.2815
22361SOL    HW171930   7.950   0.991   9.629  0.1514 -0.6995  1.6291
22361SOL    HW271931   7.886   0.888   9.539  0.2518  1.6950 -1.3433
22362SOL     OW71932   6.329   1.437   9.770  0.1982 -0.0337 -0.0566
22362SOL    HW171933   6.261   1.370   9.780 -1.0984  0.9812 -1.5765
22362SOL    HW271934   6.411   1.392   9.790 -0.8612 -1.4269  1.3593
22363SOL     OW71935   6.070   0.882   2.007  0.0954  0.7334  0.1824
22363SOL    HW171936   6.078   0.787   2.004  2.5392  0.7229  2.4556
22363SOL    HW271937   6.017   0.899   2.085 -1.3688  1.2716 -0.8919
22364SOL     OW71938   0.246   2.341   9.501 -1.0004 -0.3832  0.0046
22364SOL    HW171939   0.164   2.377   9.467 -1.9344  0.4151  2.8240
22364SOL    HW271940   0.224   2.251   9.525 -0.9865 -0.2531  0.5136
22365SOL     OW71941   7.662   7.582   0.703  0.1558  0.0086 -0.1354
22365SOL    HW171942   7.586   7.640   0.702  0.3896  0.3203 -1.4125
22365SOL    HW271943   7.637   7.511   0.762 -0.1999  1.2942  1.3191
22366SOL     OW71944   6.497   0.831   2.367  0.7487 -0.2050  0.5513
22366SOL    HW171945   6.494   0.801   2.275  1.8870 -1.4770  0.8993
22366SOL    HW271946   6.534   0.919   2.362 -1.3107  0.6979 -0.3790
22367SOL     OW71947   4.585   8.389   7.954  0.6427 -0.0870 -0.1007
22367SOL    HW171948   4.592   8.484   7.966 -2.3018  0.7201 -3.1423
22367SOL    HW271949   4.622   8.373   7.867 -1.2971 -1.2207 -0.7814
22368SOL     OW71950   8.008   9.159   1.447 -0.4375 -0.4647  0.7026
22368SOL    HW171951   8.023   9.251   1.469  2.2472 -1.0690  1.7393
22368SOL    HW271952   7.943   9.130   1.510  0.5448  0.1333  2.0455
22369SOL     OW71953   4.363   9.453   1.694  0.2919 -0.4046  0.3083
22369SOL    HW171954   4.330   9.372   1.655 -0.7827 -0.2747  0.9049
22369SOL    HW271955   4.409   9.497   1.622  1.2862 -1.7428  0.0921
22370SOL     OW71956   5.118   7.994   9.853  0.2552 -0.3030  0.8657
22370SOL    HW171957   5.125   7.948   9.770  1.1301  1.3537 -0.0348
22370SOL    HW271958   5.117   7.925   9.919  0.6443 -1.6220 -0.4541
22371SOL     OW71959   6.678   0.412   0.095 -0.6020 -0.1555  0.2627
22371SOL    HW171960   6.716   0.361   0.166 -2.2902 -0.2836  1.1275
22371SOL    HW271961   6.614   0.469   0.138  0.8482  2.3795 -0.7105
22372SOL     OW71962   6.782   8.599   0.759  0.2650  0.4571 -0.6241
22372SOL    HW171963   6.692   8.614   0.732 -0.6247  0.3257  1.9769
22372SOL    HW271964   6.809   8.681   0.800  0.6568 -0.0730  0.2230
22373SOL     OW71965   7.220   0.157   9.426  0.1859 -0.5447  0.0361
22373SOL    HW171966   7.282   0.211   9.376  0.9814 -0.2904  1.2451
22373SOL    HW271967   7.217   0.074   9.380  2.3895 -0.9916  0.5832
22374SOL     OW71968   7.631   1.265   1.786 -0.0432  0.1088  0.0566
22374SOL    HW171969   7.668   1.265   1.874  0.9780 -0.4663 -0.3474
22374SOL    HW271970   7.614   1.173   1.767 -1.4890  0.3456  0.1346
22375SOL     OW71971   6.830   8.570   9.067  0.7658 -0.0022  0.1200
22375SOL    HW171972   6.827   8.591   9.160  1.7790 -0.9496  0.3825
22375SOL    HW271973   6.879   8.489   9.062  0.2000 -0.2959 -1.1974
22376SOL     OW71974   5.841   0.168   9.854  0.4516 -0.2535 -0.7317
22376SOL    HW171975   5.765   0.155   9.798  0.0524  1.7168 -0.7233
22376SOL    HW271976   5.851   0.085   9.902 -2.8670  0.0260  0.6682
22377SOL     OW71977   7.781   9.344   1.168 -0.0839  0.4016 -0.3254
22377SOL    HW171978   7.718   9.395   1.118 -1.5383 -1.7243 -0.7688
22377SOL    HW271979   7.733   9.317   1.247  0.2155 -1.2580 -0.6708
22378SOL     OW71980   7.117   8.434   3.006  0.0075 -0.6168  0.3009
22378SOL    HW171981   7.187   8.391   2.957 -0.0586 -0.8181  0.3808
22378SOL    HW271982   7.036   8.399   2.969 -0.1307  1.0372 -1.1080
22379SOL     OW71983   7.841   9.823   2.126  0.4346 -0.0216  0.6349
22379SOL    HW171984   7.819   9.730   2.130 -1.6737  0.4581  1.6619
22379SOL    HW271985   7.816   9.849   2.037 -0.4600 -0.1305  0.8415
22380SOL     OW71986   8.662   7.921   0.889 -0.7204 -0.1294 -0.4462
22380SOL    HW171987   8.598   7.957   0.827  0.1697 -1.0494 -1.9771
22380SOL    HW271988   8.733   7.888   0.833  1.1156  0.8658  1.1694
22381SOL     OW71989   6.205   6.860   2.555 -0.0023 -0.1797  0.6359
22381SOL    HW171990   6.260   6.937   2.569  0.3605 -0.1988 -0.6148
22381SOL    HW271991   6.178   6.866   2.464  1.5282 -2.4819 -0.0486
22382SOL     OW71992   5.498   9.281   1.213  0.2254 -0.3191  0.2569
22382SOL    HW171993   5.457   9.366   1.230 -1.1189 -0.8023 -0.4510
22382SOL    HW271994   5.525   9.250   1.300  0.6627  0.7770  0.5358
22383SOL     OW71995   6.017   9.105   1.381  0.0117  0.2654 -0.4228
22383SOL    HW171996   5.960   9.143   1.447  0.6097  1.6074 -0.6456
22383SOL    HW271997   5.975   9.125   1.298  0.1630  0.1337 -0.5335
22384SOL     OW71998   6.917   8.416   0.613  0.0401 -0.1202 -0.6114
22384SOL    HW171999   6.847   8.354   0.595 -0.1748  0.6381 -2.5461
22384SOL    HW272000   6.878   8.479   0.673 -0.0843 -1.1638  0.4491
22385SOL     OW72001   9.246   0.379   5.156  1.1946  0.2400  0.1088
22385SOL    HW172002   9.233   0.447   5.222  0.9002 -0.8617  1.2259
22385SOL    HW272003   9.244   0.425   5.073 -1.2468  1.3040  0.6944
22386SOL     OW72004   7.720   9.753   3.656 -0.2572  0.0232 -0.5950
22386SOL    HW172005   7.664   9.737   3.732  0.9914 -0.5819  0.2268
22386SOL    HW272006   7.757   9.840   3.671  0.3954 -0.3088 -0.2278
22387SOL     OW72007   4.538   9.811   3.411  0.0566  0.2883 -0.2313
22387SOL    HW172008   4.599   9.851   3.472  0.9725 -1.4909  0.0630
22387SOL    HW272009   4.473   9.880   3.394  0.7446  1.3910  1.3652
22388SOL     OW72010   6.972   1.491   2.370  0.4781  0.0502 -0.0510
22388SOL    HW172011   6.924   1.427   2.318  0.0953  0.7912 -0.6068
22388SOL    HW272012   7.053   1.445   2.395 -0.2297 -0.9959  0.3996
22389SOL     OW72013   4.299   6.445   4.112 -0.2126 -0.1142  0.5970
22389SOL    HW172014   4.390   6.415   4.113 -0.5786 -1.2969  1.7339
22389SOL    HW272015   4.254   6.382   4.056 -0.4722  0.0120  0.6627
22390SOL     OW72016   7.519   0.769   1.376 -0.4212 -0.0112 -0.2770
22390SOL    HW172017   7.610   0.771   1.346  0.1258  0.2044  1.2649
22390SOL    HW272018   7.494   0.861   1.383 -0.2329 -0.0226  0.7176
22391SOL     OW72019   4.495   1.509   0.921 -0.8462 -0.2071 -0.3071
22391SOL    HW172020   4.561   1.551   0.867 -1.0355  1.7949  0.9385
22391SOL    HW272021   4.450   1.449   0.861  1.6409 -1.1940 -1.3236
22392SOL     OW72022   6.897   1.629   3.185  0.0957  0.3709 -0.0192
22392SOL    HW172023   6.806   1.643   3.158 -0.0823  1.5814  1.0899
22392SOL    HW272024   6.913   1.536   3.170 -2.3878 -0.6430  2.8456
22393SOL     OW72025   5.647   0.054   4.926 -0.4938  0.2656 -0.0261
22393SOL    HW172026   5.562   0.010   4.933  0.5835 -2.0895 -0.6613
22393SOL    HW272027   5.651   0.085   4.836 -0.8946  0.9088  0.1708
22394SOL     OW72028   6.144   8.655   2.552  0.0421  0.1179 -0.0737
22394SOL    HW172029   6.230   8.659   2.594  0.2366 -0.3644 -0.4195
22394SOL    HW272030   6.154   8.590   2.482  0.1573  1.9245 -1.8495
22395SOL     OW72031   6.946   0.192   3.783  0.1476 -0.1431 -0.4253
22395SOL    HW172032   6.950   0.137   3.861 -0.8430 -0.9212 -0.9008
22395SOL    HW272033   6.971   0.279   3.814  1.9002 -0.8464  0.3145
22396SOL     OW72034   8.348   0.678   2.058  0.0420 -0.2563  0.2592
22396SOL    HW172035   8.371   0.769   2.040 -0.2765 -0.1108  0.5779
22396SOL    HW272036   8.372   0.665   2.149  0.6041 -0.6603  0.0607
22397SOL     OW72037   5.843   6.027   2.576  0.1241  0.6352  0.4495
22397SOL    HW172038   5.916   5.977   2.539  0.5696  3.4888 -3.0625
22397SOL    HW272039   5.880   6.068   2.655  0.4747 -2.2582  1.9408
22398SOL     OW72040   6.881   9.072   4.545 -0.5970  0.3925  0.1149
22398SOL    HW172041   6.900   8.979   4.558 -0.6951  0.2705 -0.5867
22398SOL    HW272042   6.955   9.105   4.494  0.1351  1.0223  1.5225
22399SOL     OW72043   7.884   9.354   2.340  0.1572  0.4348 -0.4975
22399SOL    HW172044   7.935   9.371   2.420 -1.2117  1.2217  0.2560
22399SOL    HW272045   7.793   9.375   2.365 -0.5877 -1.1132 -1.7164
22400SOL     OW72046   7.735   8.606   4.915 -0.0678  0.1505  0.2983
22400SOL    HW172047   7.763   8.652   4.835  0.0298 -1.8075 -0.8698
22400SOL    HW272048   7.776   8.655   4.986 -0.2663  2.0453 -0.8267
22401SOL     OW72049   6.997   9.519   0.892 -0.0128  0.1839 -0.3560
22401SOL    HW172050   6.917   9.557   0.928  0.8118  1.1365  0.5694
22401SOL    HW272051   6.992   9.538   0.798 -0.2766  1.4134 -0.1205
22402SOL     OW72052   8.267   7.557   2.138 -0.5358  0.0660 -0.1662
22402SOL    HW172053   8.196   7.618   2.120  0.6430  2.1050  1.6160
22402SOL    HW272054   8.239   7.510   2.217 -0.8751 -0.8161 -0.7933
22403SOL     OW72055   6.011   9.848   2.482  0.3641 -0.3584 -1.0655
22403SOL    HW172056   6.083   9.869   2.541  0.9820  1.6621 -2.4368
22403SOL    HW272057   5.939   9.823   2.540  0.5593  2.6707  0.7206
22404SOL     OW72058   5.577   0.891   1.633 -0.5946 -0.1915  0.4041
22404SOL    HW172059   5.508   0.884   1.567 -0.4103 -0.1604  0.2049
22404SOL    HW272060   5.549   0.832   1.703 -0.0051 -1.4944 -0.4067
22405SOL     OW72061   2.689   9.656   1.132 -0.0356  0.5767 -0.6680
22405SOL    HW172062   2.660   9.566   1.114  1.0780  0.0949 -0.0969
22405SOL    HW272063   2.770   9.646   1.181  0.1982  1.9069 -0.7574
22406SOL     OW72064   6.967   6.598   2.054  0.0679 -0.2853 -0.2296
22406SOL    HW172065   7.019   6.667   2.013  0.4096  1.2010  2.4697
22406SOL    HW272066   7.030   6.529   2.075  0.5263  0.4112  0.7467
22407SOL     OW72067   5.628   7.661   4.735 -0.3826  0.0158  0.2806
22407SOL    HW172068   5.654   7.731   4.795  0.1032 -1.7767  2.2997
22407SOL    HW272069   5.618   7.704   4.650  2.4349  2.0716  0.8485
22408SOL     OW72070   6.439   8.564   2.405  0.0086  0.5294 -0.0155
22408SOL    HW172071   6.471   8.633   2.463  1.9533 -0.8611  0.6423
22408SOL    HW272072   6.516   8.536   2.356 -0.8894 -0.7387 -0.7575
22409SOL     OW72073   6.454   8.586   1.392  0.4002 -0.6728  0.6220
22409SOL    HW172074   6.446   8.582   1.297  1.7221 -0.2040  0.4714
22409SOL    HW272075   6.489   8.500   1.416 -1.6581 -1.4871  0.9189
22410SOL     OW72076   5.351   0.535   5.368 -0.2170  0.3564  0.8158
22410SOL    HW172077   5.395   0.492   5.294  0.0927  0.8935  0.6874
22410SOL    HW272078   5.260   0.539   5.342 -0.1725  0.1995  0.6281
22411SOL     OW72079   4.343   8.184   2.476 -0.4894  0.4486 -0.1400
22411SOL    HW172080   4.377   8.095   2.478 -0.4743  0.4508  1.2337
22411SOL    HW272081   4.332   8.207   2.569 -2.6823  1.0329 -0.4955
22412SOL     OW72082   6.200   9.172   2.008  0.1427 -0.3847 -0.3190
22412SOL    HW172083   6.134   9.137   1.948  0.8006  0.0263 -1.3004
22412SOL    HW272084   6.279   9.180   1.954  1.1675 -1.3933  0.9526
22413SOL     OW72085   6.252   8.995   2.704  0.4427 -0.3212  0.7605
22413SOL    HW172086   6.250   9.080   2.749  1.4676 -0.5070  1.1839
22413SOL    HW272087   6.159   8.972   2.692  0.1202  1.5624 -0.7552
22414SOL     OW72088   7.199   0.025   2.250 -0.1037  0.3022 -0.2920
22414SOL    HW172089   7.182   0.080   2.328  0.1059  0.7295 -0.5413
22414SOL    HW272090   7.149  -0.055   2.266 -1.2783  0.9931 -0.4069
22415SOL     OW72091   6.016   1.709   4.063  0.1935  0.1579 -0.0849
22415SOL    HW172092   6.067   1.642   4.109 -0.6088 -0.4890 -0.1179
22415SOL    HW272093   6.029   1.690   3.970  0.0188  0.0974 -0.0962
22416SOL     OW72094   7.141   1.149   3.330 -0.5395  0.3909  0.1437
22416SOL    HW172095   7.088   1.151   3.410 -2.6654  1.5740 -1.2025
22416SOL    HW272096   7.089   1.096   3.269 -0.1101  1.4359 -1.1623
22417SOL     OW72097   6.198   8.492   2.321  0.1948 -0.7306  0.4126
22417SOL    HW172098   6.237   8.415   2.280 -0.8062 -0.7880 -0.4765
22417SOL    HW272099   6.272   8.544   2.350  0.8988 -1.6391  0.2941
22418SOL     OW72100   7.069   0.695   5.162 -0.6131 -0.2237  0.0851
22418SOL    HW172101   6.989   0.642   5.170 -0.0201 -0.8703  2.6684
22418SOL    HW272102   7.135   0.635   5.129 -0.5769 -0.4009  0.4758
22419SOL     OW72103   6.413   9.204   4.838  0.1354  0.1334 -0.2805
22419SOL    HW172104   6.324   9.204   4.872  0.5301 -0.3914  0.7723
22419SOL    HW272105   6.442   9.114   4.847  0.5072  0.1347 -1.3576
22420SOL     OW72106   7.156   0.589   2.204 -0.3104 -0.4289 -0.0983
22420SOL    HW172107   7.193   0.523   2.146  0.8012 -0.4604  0.6275
22420SOL    HW272108   7.108   0.538   2.270 -0.0604 -0.4884  0.0410
22421SOL     OW72109   3.913   7.082   4.291 -0.1196  0.5346 -0.0500
22421SOL    HW172110   3.868   7.122   4.365 -0.3462  0.8370 -0.3435
22421SOL    HW272111   3.861   7.004   4.270  1.3685 -0.9976  1.7034
22422SOL     OW72112   6.467   0.093   2.432  0.2848 -0.1702  0.1356
22422SOL    HW172113   6.539   0.147   2.400 -1.0485  1.6850  0.1343
22422SOL    HW272114   6.496   0.064   2.519  0.8559  0.9463  0.3444
22423SOL     OW72115   5.694   0.186   2.905  0.7482  0.1403  0.3643
22423SOL    HW172116   5.754   0.233   2.847  0.8983 -1.6032 -0.9969
22423SOL    HW272117   5.607   0.215   2.879  0.8763  0.5296  0.3610
22424SOL     OW72118   5.119   9.209   2.016  0.0942 -0.6609  0.2954
22424SOL    HW172119   5.024   9.221   2.024  0.0701 -0.7152  0.0900
22424SOL    HW272120   5.137   9.225   1.923  0.3122 -0.4661  0.3720
22425SOL     OW72121   7.117   8.204   0.771  0.7766 -0.6244  0.1112
22425SOL    HW172122   7.114   8.159   0.687  1.4655 -2.4084  0.9740
22425SOL    HW272123   7.208   8.233   0.779  0.5066  0.3007 -0.1236
22426SOL     OW72124   6.217   7.917   2.663  0.2089  0.0832 -0.1546
22426SOL    HW172125   6.254   7.938   2.749  0.5141  0.2491 -0.3239
22426SOL    HW272126   6.126   7.947   2.669 -0.1747 -1.1350  0.5637
22427SOL     OW72127   6.585   0.769   2.996  0.4104 -0.4124 -0.5827
22427SOL    HW172128   6.649   0.821   2.947 -0.2979  2.2422  1.0800
22427SOL    HW272129   6.507   0.768   2.940  0.3905  0.4655 -0.5787
22428SOL     OW72130   9.262   1.785   2.245 -0.2452  0.1573 -0.2582
22428SOL    HW172131   9.322   1.813   2.315  0.4654 -1.5951 -0.1081
22428SOL    HW272132   9.246   1.865   2.194  2.9546  0.5731 -0.8440
22429SOL     OW72133   4.006   8.311   2.336 -0.3526 -0.3414 -0.8120
22429SOL    HW172134   3.947   8.334   2.265 -0.3409 -1.2644 -1.1360
22429SOL    HW272135   3.948   8.289   2.409 -0.3712  0.2856 -0.6339
22430SOL     OW72136   7.032   9.688   2.947  0.7125 -0.0745 -0.1669
22430SOL    HW172137   6.960   9.750   2.962  1.2011  1.3939 -3.0806
22430SOL    HW272138   7.008   9.644   2.865  2.4199 -0.6062 -0.4099
22431SOL     OW72139   6.558   7.556   5.684 -0.0440 -0.0355 -0.1580
22431SOL    HW172140   6.468   7.536   5.661 -0.0012 -0.5439  0.1117
22431SOL    HW272141   6.554   7.583   5.776  0.0455  0.1787 -0.2155
22432SOL     OW72142   6.572   0.071   1.594  0.2858 -0.3304  0.6554
22432SOL    HW172143   6.545  -0.002   1.539 -1.3984 -0.5868  1.7410
22432SOL    HW272144   6.506   0.139   1.579  0.5041  0.0686  1.4230
22433SOL     OW72145   7.501   2.723   2.499 -0.0403  0.4365 -0.0162
22433SOL    HW172146   7.593   2.701   2.482 -0.3248  0.0606 -1.1896
22433SOL    HW272147   7.481   2.792   2.436 -0.6799  0.2025 -0.0780
22434SOL     OW72148   6.976   1.109   3.541 -0.0099 -0.0960  0.5256
22434SOL    HW172149   6.902   1.093   3.482  1.1628  0.8699 -1.2651
22434SOL    HW272150   6.935   1.118   3.627 -1.8552 -0.7564 -0.2183
22435SOL     OW72151   9.602   9.613   5.150  0.0557 -0.0907  0.0007
22435SOL    HW172152   9.650   9.551   5.096  3.9701  2.3041  0.3877
22435SOL    HW272153   9.586   9.688   5.092 -0.5049  0.4009  0.7631
22436SOL     OW72154   5.155   9.852   1.932 -0.4441 -0.0752 -0.3140
22436SOL    HW172155   5.142   9.758   1.934  4.1894 -0.9517  0.9893
22436SOL    HW272156   5.212   9.867   1.856 -0.0920  1.4667  0.2097
22437SOL     OW72157   8.217   2.307   2.759 -0.1980 -0.0969  0.6530
22437SOL    HW172158   8.123   2.322   2.766 -0.2269  0.2239 -0.2652
22437SOL    HW272159   8.233   2.298   2.665  0.8576  0.9850  0.7104
22438SOL     OW72160   7.530   7.573   4.842 -0.8070 -0.1831  0.2074
22438SOL    HW172161   7.445   7.549   4.879 -1.5154  1.2200 -0.4166
22438SOL    HW272162   7.535   7.668   4.853  0.2930 -0.1207 -0.5844
22439SOL     OW72163   7.444   8.439   2.230  0.1050  0.0869 -0.4897
22439SOL    HW172164   7.507   8.511   2.228  1.5110 -1.1145 -1.4606
22439SOL    HW272165   7.389   8.457   2.306  0.5505  2.0549 -0.5886
22440SOL     OW72166   5.347   9.702   0.165  0.1548  0.0433 -0.3156
22440SOL    HW172167   5.271   9.645   0.156  0.6487 -0.6335 -0.3653
22440SOL    HW272168   5.420   9.649   0.133  0.5617  0.8882 -0.8400
22441SOL     OW72169   5.448   7.228   0.041 -0.5770 -0.1236 -0.4872
22441SOL    HW172170   5.520   7.235  -0.022 -0.8054 -2.2232 -1.0428
22441SOL    HW272171   5.432   7.318   0.068  1.9388  0.4605 -0.6964
22442SOL     OW72172   4.294   8.426   4.678  0.4780 -0.6974 -0.3371
22442SOL    HW172173   4.311   8.502   4.622 -0.3919 -0.8917 -0.8937
22442SOL    HW272174   4.207   8.396   4.651  1.9975 -3.8327 -2.4537
22443SOL     OW72175   3.950   8.150   3.867  0.3031  0.0735 -0.0847
22443SOL    HW172176   3.917   8.117   3.784 -1.2413 -0.1112  0.5832
22443SOL    HW272177   3.963   8.244   3.852 -1.6805  0.3944 -0.0507
22444SOL     OW72178   2.828   9.608   2.696  0.1493 -0.4347  0.1090
22444SOL    HW172179   2.863   9.537   2.642  0.5252 -0.2402  0.0889
22444SOL    HW272180   2.906   9.655   2.727  0.0139 -1.3701  1.9796
22445SOL     OW72181   6.400   2.495   2.265 -0.0826 -0.2913  0.5330
22445SOL    HW172182   6.440   2.557   2.325 -0.1908 -0.2613  0.5745
22445SOL    HW272183   6.342   2.548   2.209 -1.5696 -0.5696  1.7395
22446SOL     OW72184   8.029   9.721   2.592  0.2314  0.0407 -0.1971
22446SOL    HW172185   8.089   9.677   2.652  1.8098  2.3923  0.0659
22446SOL    HW272186   8.007   9.654   2.527  2.4226 -1.1660  0.2173
22447SOL     OW72187   9.288   9.478   5.691  0.3725 -0.2476 -0.4547
22447SOL    HW172188   9.374   9.446   5.719 -1.1386 -3.0760  1.5015
22447SOL    HW272189   9.280   9.448   5.601  0.4266 -2.5787  0.2345
22448SOL     OW72190   2.527   9.289   2.401 -0.5723  0.3994  0.4738
22448SOL    HW172191   2.557   9.361   2.455 -0.6853  0.2725  0.7088
22448SOL    HW272192   2.435   9.309   2.382 -0.8051 -0.0294  1.1228
22449SOL     OW72193   6.423   1.551   2.799  0.2239  0.1016  0.2049
22449SOL    HW172194   6.449   1.574   2.709  2.3826 -2.6456 -0.0095
22449SOL    HW272195   6.380   1.466   2.790 -0.1277  0.0889  1.7414
22450SOL     OW72196   5.927   6.369   2.038  0.9014 -0.0684  0.5049
22450SOL    HW172197   5.988   6.425   2.087  1.1823  0.3932 -0.3602
22450SOL    HW272198   5.914   6.414   1.955 -1.1027  0.1431  0.8964
22451SOL     OW72199   5.671   8.970   2.025  0.7010  0.3030  0.1194
22451SOL    HW172200   5.645   9.034   1.959  0.2842  2.0984  1.9033
22451SOL    HW272201   5.601   8.905   2.026  1.5953 -0.8314 -2.3978
22452SOL     OW72202   8.505   0.620   0.630 -0.1335 -0.4860 -0.4603
22452SOL    HW172203   8.501   0.528   0.657 -0.6913 -0.3428 -0.0368
22452SOL    HW272204   8.544   0.617   0.543  3.8826 -0.7858  1.1447
22453SOL     OW72205   7.437   8.941   2.769 -0.0589  0.1580 -0.1468
22453SOL    HW172206   7.463   8.928   2.678 -0.7197  1.3206 -0.5134
22453SOL    HW272207   7.418   9.034   2.776 -0.8799 -0.0691  0.9488
22454SOL     OW72208   4.276   8.433   6.714 -0.5841 -0.1741  0.4994
22454SOL    HW172209   4.327   8.405   6.790 -2.4480  0.5328  2.1054
22454SOL    HW272210   4.241   8.519   6.739 -0.6478  0.4500 -1.4981
22455SOL     OW72211   6.730   9.244   4.090  0.2367 -0.8615 -0.4606
22455SOL    HW172212   6.740   9.231   4.184 -2.1093  0.0444 -0.0112
22455SOL    HW272213   6.793   9.185   4.050  0.4854 -2.1185  1.6615
22456SOL     OW72214   6.696   1.071   3.381  0.4233  0.0349  0.3198
22456SOL    HW172215   6.626   1.109   3.433 -0.1475 -0.1016 -0.3302
22456SOL    HW272216   6.674   0.978   3.375 -0.2738  0.2546 -1.2695
22457SOL     OW72217   6.465   8.281   4.291 -0.0036 -0.6733  0.0404
22457SOL    HW172218   6.469   8.281   4.387 -0.0172  3.4759  0.2255
22457SOL    HW272219   6.547   8.241   4.263  0.8333 -0.2798  1.8229
22458SOL     OW72220   6.296   0.196   3.530  0.0910  0.8051 -0.0558
22458SOL    HW172221   6.325   0.271   3.583  0.0464  2.2215 -1.9309
22458SOL    HW272222   6.251   0.236   3.455 -0.8749 -1.1553 -0.5781
22459SOL     OW72223   5.540   8.904   4.287  0.0566 -0.4483  1.1525
22459SOL    HW172224   5.484   8.835   4.322  0.4648 -0.2373  2.2845
22459SOL    HW272225   5.537   8.974   4.353 -0.4436  0.6827 -0.0203
22460SOL     OW72226   8.977   9.301   5.028 -0.0538 -0.4256 -0.6329
22460SOL    HW172227   8.963   9.353   4.949 -2.0319  1.6145  0.9250
22460SOL    HW272228   8.893   9.256   5.043  0.3609 -0.9627  0.1625
22461SOL     OW72229   6.808   9.238   5.277  1.1427 -0.1856 -0.5479
22461SOL    HW172230   6.820   9.280   5.362  0.5425 -0.7190 -0.1904
22461SOL    HW272231   6.766   9.304   5.223 -1.2794 -0.7563  0.4785
22462SOL     OW72232   4.843   8.796   3.692 -0.5800  0.7892 -0.3982
22462SOL    HW172233   4.828   8.735   3.621  0.1058 -0.7899  0.7526
22462SOL    HW272234   4.756   8.829   3.715 -0.9254  0.4587 -1.2096
22463SOL     OW72235   7.566   9.242   4.660  0.3525  0.3899 -0.1579
22463SOL    HW172236   7.581   9.315   4.601  2.3349  1.8625  1.9798
22463SOL    HW272237   7.637   9.180   4.641  0.0268  0.0885 -0.4095
22464SOL     OW72238   5.682   2.204   4.749  0.2653 -0.3394  0.1624
22464SOL    HW172239   5.587   2.201   4.736  0.0257  0.2214  1.5879
22464SOL    HW272240   5.713   2.117   4.724 -0.6307 -0.5324 -0.2886
22465SOL     OW72241   7.021   0.367   3.244  0.6018  0.1283 -0.4363
22465SOL    HW172242   7.090   0.336   3.302  0.9745 -0.8144 -1.3520
22465SOL    HW272243   6.940   0.347   3.291  0.8714 -1.2721 -0.5093
22466SOL     OW72244   4.678   8.846   4.799 -0.2508 -0.3269  0.0090
22466SOL    HW172245   4.627   8.779   4.752  0.6690 -1.2844  0.3432
22466SOL    HW272246   4.767   8.836   4.766  0.2576 -0.4897  1.3675
22467SOL     OW72247   7.551   7.692   3.673 -0.1964 -0.2250 -0.0361
22467SOL    HW172248   7.516   7.723   3.589  0.4356  1.3038  0.2326
22467SOL    HW272249   7.636   7.734   3.680  0.8696 -2.3056  0.2444
22468SOL     OW72250   9.388   0.794   6.474 -0.6241 -0.3362 -0.3158
22468SOL    HW172251   9.344   0.867   6.432  0.5161 -0.4010 -1.6885
22468SOL    HW272252   9.436   0.834   6.547 -0.4812  0.1949 -0.6973
22469SOL     OW72253   5.536   8.363   6.143 -0.0969 -0.4687  0.4975
22469SOL    HW172254   5.543   8.363   6.047 -0.2944 -2.1890  0.4465
22469SOL    HW272255   5.607   8.421   6.172 -0.2965  0.4141 -0.6892
22470SOL     OW72256   7.251   1.361   6.620  0.1296  0.4211 -0.0528
22470SOL    HW172257   7.211   1.444   6.648  0.2495  0.1034  1.1181
22470SOL    HW272258   7.177   1.306   6.594  0.0446  0.8541 -0.7687
22471SOL     OW72259   7.431   0.495   5.655  0.3075 -0.1396  0.4737
22471SOL    HW172260   7.436   0.584   5.690  0.0206  0.2536 -0.4487
22471SOL    HW272261   7.368   0.450   5.711  1.6583 -0.2744  1.9826
22472SOL     OW72262   5.770   8.942   5.890 -0.2031 -0.2997 -0.0249
22472SOL    HW172263   5.824   8.865   5.873  2.0063  0.7292  1.7404
22472SOL    HW272264   5.802   9.007   5.827 -0.3790 -0.1058  0.0874
22473SOL     OW72265   7.341   8.410   5.468  0.0179 -0.0590 -0.0277
22473SOL    HW172266   7.384   8.463   5.401  1.0995  1.6993  1.9257
22473SOL    HW272267   7.256   8.387   5.430  0.9624  0.0188 -2.3274
22474SOL     OW72268   6.583   1.688   3.375 -0.1367  0.0637 -0.3109
22474SOL    HW172269   6.602   1.664   3.285 -1.3343 -0.5448 -0.4213
22474SOL    HW272270   6.609   1.612   3.427  1.5140  0.7971 -0.0011
22475SOL     OW72271   5.258   8.411   4.447 -0.2779  0.5391 -0.6279
22475SOL    HW172272   5.278   8.465   4.523  1.4987  0.2949 -0.8678
22475SOL    HW272273   5.202   8.466   4.393 -0.8997  1.0196  0.4723
22476SOL     OW72274   7.656   8.184   2.814 -0.6367 -0.0464 -0.1507
22476SOL    HW172275   7.608   8.120   2.761 -0.3029 -0.4713  0.0579
22476SOL    HW272276   7.735   8.138   2.843 -1.3957 -0.2280  1.7505
22477SOL     OW72277   7.636   1.101   3.691 -0.3188  0.1330 -0.3911
22477SOL    HW172278   7.545   1.078   3.670 -0.5839  0.5405  0.2818
22477SOL    HW272279   7.659   1.170   3.629 -0.3346 -0.2447 -0.8215
22478SOL     OW72280   6.482   8.512   4.092  0.5576 -0.4930  0.7124
22478SOL    HW172281   6.470   8.531   4.185 -0.0270 -0.7888  0.6994
22478SOL    HW272282   6.557   8.452   4.089  1.7306  0.8956  0.8429
22479SOL     OW72283   7.808   1.004   3.119 -0.1541 -0.5973  0.4751
22479SOL    HW172284   7.816   0.975   3.210  0.5089 -0.1971  0.5478
22479SOL    HW272285   7.766   1.089   3.125  0.9619 -0.0392  0.4920
22480SOL     OW72286   6.610   6.500   6.506 -0.3506 -0.2272  0.0853
22480SOL    HW172287   6.566   6.584   6.517 -1.2252 -0.6477 -0.0653
22480SOL    HW272288   6.690   6.521   6.459 -1.0562  0.4061 -0.8803
22481SOL     OW72289   9.096   0.517   4.097  0.4441 -0.1615  0.6432
22481SOL    HW172290   9.190   0.522   4.080  0.3227  1.6231  0.2983
22481SOL    HW272291   9.060   0.474   4.019  0.9845 -1.0992  0.8956
22482SOL     OW72292   6.958   9.556   3.824 -0.6585  0.9240 -0.2189
22482SOL    HW172293   6.902   9.495   3.776 -1.1152  0.8775  0.3664
22482SOL    HW272294   6.910   9.575   3.904  0.6022  0.1143  0.7580
22483SOL     OW72295   6.489   1.031   4.889 -0.1121 -0.7978 -0.3328
22483SOL    HW172296   6.504   0.990   4.804  1.0108 -1.2105  0.0478
22483SOL    HW272297   6.538   0.976   4.950  1.4387  1.0967  0.2141
22484SOL     OW72298   7.755   9.058   3.119 -0.1912 -0.5102  0.1935
22484SOL    HW172299   7.829   9.095   3.071 -0.6791 -1.4381 -1.3749
22484SOL    HW272300   7.742   8.972   3.079 -2.0815 -0.3868  0.4579
22485SOL     OW72301   5.882   0.365   3.400 -0.4760 -0.2073  0.5745
22485SOL    HW172302   5.828   0.301   3.354 -1.0252  0.6278  0.0349
22485SOL    HW272303   5.829   0.392   3.475 -0.0680 -0.6898  1.0462
22486SOL     OW72304   7.696   0.944   4.308 -0.0743 -0.2882 -0.3944
22486SOL    HW172305   7.708   0.853   4.280  0.7463  0.2261 -1.7941
22486SOL    HW272306   7.722   0.996   4.232 -1.2425  1.1164  0.1293
22487SOL     OW72307   5.886   8.709   3.783 -0.7196  0.2322 -0.3101
22487SOL    HW172308   5.958   8.651   3.758  0.5590  1.6394 -0.0608
22487SOL    HW272309   5.807   8.662   3.757  0.2876 -1.2720 -0.7995
22488SOL     OW72310   7.094   2.866   3.931 -0.6427  0.4164 -0.4294
22488SOL    HW172311   7.132   2.924   3.865  1.4134 -1.3141 -0.8923
22488SOL    HW272312   7.080   2.783   3.885  1.7184 -1.1389  1.4256
22489SOL     OW72313   6.867   8.897   4.906 -0.0834 -0.2994 -0.5779
22489SOL    HW172314   6.780   8.867   4.933 -0.3939  1.3265  0.3102
22489SOL    HW272315   6.906   8.820   4.863 -2.1360 -0.9193 -1.4668
22490SOL     OW72316   4.974   9.463   2.382  0.3150 -0.0999 -0.4691
22490SOL    HW172317   4.908   9.485   2.316  1.1588 -0.8830 -1.6258
22490SOL    HW272318   4.925   9.457   2.464 -1.3209 -1.9139 -1.4917
22491SOL     OW72319   8.085   1.595   4.936 -0.4499  0.2319  0.1668
22491SOL    HW172320   8.102   1.521   4.995  0.4143 -0.1348 -0.5161
22491SOL    HW272321   7.995   1.620   4.955 -1.9012 -2.9236 -1.6565
22492SOL     OW72322   7.768   9.856   5.006  0.1493  0.0904 -0.2399
22492SOL    HW172323   7.811   9.867   4.921 -2.9400  2.3893 -1.7445
22492SOL    HW272324   7.700   9.791   4.989  1.4766 -1.8571  1.4678
22493SOL     OW72325   6.439   2.327   1.494 -0.0626 -0.3646 -0.0297
22493SOL    HW172326   6.368   2.303   1.553 -0.5564  1.5669  0.2302
22493SOL    HW272327   6.514   2.343   1.551 -0.3133  0.6835  0.0335
22494SOL     OW72328   6.694   1.047   2.340 -0.4078  0.2236 -0.6268
22494SOL    HW172329   6.695   1.035   2.435  0.1675  1.3708 -0.4690
22494SOL    HW272330   6.622   1.108   2.324  0.5541  1.3607 -0.7322
22495SOL     OW72331   6.860   9.022   3.444  0.3509 -0.1428 -0.1233
22495SOL    HW172332   6.841   8.967   3.519 -0.9115  1.2759  0.6604
22495SOL    HW272333   6.955   9.033   3.445  0.4847 -1.2589  0.4301
22496SOL     OW72334   6.912   1.691   6.047  0.6204 -0.3400 -0.3990
22496SOL    HW172335   6.947   1.606   6.021  1.2134 -0.1051 -0.3893
22496SOL    HW272336   6.817   1.681   6.041  0.6175 -1.4601  1.0076
22497SOL     OW72337   6.098   9.315   4.826 -0.3825 -0.0201 -0.3748
22497SOL    HW172338   6.032   9.370   4.867 -0.5798 -0.0873 -0.5980
22497SOL    HW272339   6.133   9.262   4.898 -0.5753  0.0137 -0.2540
22498SOL     OW72340   6.444   1.740   5.119 -0.5990 -0.1560 -0.5856
22498SOL    HW172341   6.352   1.745   5.093 -0.6642 -0.1032 -0.3424
22498SOL    HW272342   6.486   1.692   5.048 -0.9501 -0.8376 -0.3418
22499SOL     OW72343   5.282   9.058   6.018  0.4757  0.0191  0.1008
22499SOL    HW172344   5.232   9.047   6.099 -0.1527 -0.8213 -0.3805
22499SOL    HW272345   5.374   9.049   6.045  0.2114 -2.5087  0.4328
22500SOL     OW72346   5.190   1.545   3.299  0.8612 -0.3420  0.0875
22500SOL    HW172347   5.141   1.583   3.372  1.5454 -0.7639  0.7818
22500SOL    HW272348   5.151   1.458   3.287 -0.2369  0.2800 -1.0400
22501SOL     OW72349   6.442   9.539   3.020  0.9187 -0.1270 -0.2414
22501SOL    HW172350   6.492   9.563   3.098 -0.4749  2.5114 -0.0337
22501SOL    HW272351   6.461   9.609   2.957 -2.9939  1.5771  0.1635
22502SOL     OW72352   6.769   0.153   5.156 -0.9049 -0.0876 -0.5252
22502SOL    HW172353   6.739   0.205   5.230 -2.6988 -1.2043 -0.4012
22502SOL    HW272354   6.696   0.155   5.093  0.2080  0.0645 -1.8614
22503SOL     OW72355   9.410   0.826   4.793  0.1374 -0.1274  0.6181
22503SOL    HW172356   9.438   0.811   4.883 -1.1554  0.5897  1.1703
22503SOL    HW272357   9.344   0.895   4.800 -0.7712 -0.8187 -0.7437
22504SOL     OW72358   5.894   8.061   2.681  0.0824  0.1541 -0.1004
22504SOL    HW172359   5.909   8.002   2.755  0.9708 -1.1027 -1.2502
22504SOL    HW272360   5.923   8.147   2.713  1.1783 -0.5064  0.7596
22505SOL     OW72361   5.579   6.751   2.658  0.9219 -0.2505  0.0920
22505SOL    HW172362   5.483   6.756   2.653  0.9187 -1.3942 -2.2317
22505SOL    HW272363   5.609   6.837   2.629  0.5510 -1.2776 -3.8820
22506SOL     OW72364   8.084   1.039   3.380 -0.2553  0.2940 -0.1517
22506SOL    HW172365   8.173   1.009   3.400 -0.0416 -1.0760 -2.7521
22506SOL    HW272366   8.097   1.114   3.322 -0.7693 -0.3702 -1.1453
22507SOL     OW72367   6.773   1.287   6.795 -0.1945  0.2435  0.1911
22507SOL    HW172368   6.745   1.313   6.707  0.7515  0.0824 -0.1779
22507SOL    HW272369   6.811   1.367   6.833  2.7832 -0.4606 -0.9729
22508SOL     OW72370   6.034   0.583   3.608 -1.1575  0.3206 -0.3637
22508SOL    HW172371   6.059   0.545   3.692  0.4849 -0.2940 -1.0834
22508SOL    HW272372   5.967   0.525   3.574 -0.4421 -0.5398 -0.3320
22509SOL     OW72373   8.232   0.492   2.337  0.4114 -0.1664 -0.4590
22509SOL    HW172374   8.153   0.504   2.285 -0.5219 -0.0651  0.9172
22509SOL    HW272375   8.288   0.435   2.284 -0.4860 -0.0575 -1.5514
22510SOL     OW72376   4.358   9.082   6.281 -0.0680 -0.9224  0.4439
22510SOL    HW172377   4.308   9.024   6.223 -1.3735  1.4030 -0.9321
22510SOL    HW272378   4.404   9.141   6.222 -0.2586  0.6052  1.7410
22511SOL     OW72379   5.911   8.111   6.260  0.3390 -0.9225 -0.0120
22511SOL    HW172380   5.930   8.058   6.336 -1.1858 -0.4782  0.7328
22511SOL    HW272381   5.822   8.086   6.235  0.2057  0.1058 -0.6370
22512SOL     OW72382   6.860   2.476   2.876 -0.4069 -0.0921  0.5562
22512SOL    HW172383   6.826   2.520   2.798  2.2768  0.0205 -0.6483
22512SOL    HW272384   6.857   2.543   2.944  0.1974  0.8448 -0.3084
22513SOL     OW72385   4.765   9.694   5.491 -0.0197  0.1051 -0.0185
22513SOL    HW172386   4.818   9.731   5.562  0.6433 -0.4338 -0.2262
22513SOL    HW272387   4.761   9.764   5.426 -0.9815  0.7620  0.7051
22514SOL     OW72388   6.398   9.286   4.424  0.0482  0.4961 -0.3701
22514SOL    HW172389   6.305   9.263   4.425  0.2751 -0.4739 -0.2684
22514SOL    HW272390   6.432   9.250   4.506  0.6506  0.2340 -0.7306
22515SOL     OW72391   7.826   9.431   4.010 -0.0360  0.3314 -0.2777
22515SOL    HW172392   7.829   9.336   4.012  0.0380  0.3329  1.4098
22515SOL    HW272393   7.742   9.453   4.050 -0.0021  0.9839 -0.5506
22516SOL     OW72394   5.995   0.533   4.286  0.3970  0.0609 -0.1683
22516SOL    HW172395   5.930   0.478   4.243  0.3768 -0.6546  0.7583
22516SOL    HW272396   6.079   0.490   4.269  0.4493  0.0783  0.0432
22517SOL     OW72397   5.956   7.157   6.239 -0.6597  0.2452 -0.0962
22517SOL    HW172398   6.048   7.167   6.263  0.0435 -0.3310 -2.2597
22517SOL    HW272399   5.947   7.065   6.214 -1.7323  0.3813 -0.2908
22518SOL     OW72400   5.003   2.948   3.999 -0.0799 -0.0945 -0.1400
22518SOL    HW172401   4.943   2.933   4.072 -1.8271  2.7995 -0.8122
22518SOL    HW272402   5.072   3.004   4.035  0.2812 -0.5036 -0.1913
22519SOL     OW72403   7.953   0.272   6.958 -0.7792 -0.0397  0.2695
22519SOL    HW172404   8.044   0.294   6.941 -0.8125  0.5100  0.7710
22519SOL    HW272405   7.904   0.351   6.935 -1.0843 -0.1776  0.4276
22520SOL     OW72406   5.737   0.625   6.554  0.2801  0.1654  0.4989
22520SOL    HW172407   5.653   0.642   6.512  0.3053 -0.1682  0.3072
22520SOL    HW272408   5.724   0.545   6.603  0.6733 -0.2653 -0.0759
22521SOL     OW72409   7.221   9.704   4.167 -0.1032  0.5420  0.3105
22521SOL    HW172410   7.164   9.640   4.209  0.3215 -0.9222 -1.2279
22521SOL    HW272411   7.238   9.667   4.080  2.9474  1.0380  0.5997
22522SOL     OW72412   4.135   8.286   4.123  0.2015  0.5343  0.1702
22522SOL    HW172413   4.193   8.231   4.175  0.8808  0.0485 -1.0448
22522SOL    HW272414   4.171   8.281   4.034 -0.9180  1.3148 -0.3528
22523SOL     OW72415   5.372   8.657   5.423  0.0381  0.9778  0.0493
22523SOL    HW172416   5.328   8.716   5.362  1.1357  2.4454  0.6058
22523SOL    HW272417   5.301   8.611   5.467 -0.9151  2.4479  0.1346
22524SOL     OW72418   5.359   0.217   5.155 -0.2617 -0.4326  0.0202
22524SOL    HW172419   5.268   0.242   5.140 -0.0283 -0.8191 -2.5042
22524SOL    HW272420   5.408   0.298   5.143 -0.0703 -0.7455 -1.5166
22525SOL     OW72421   9.139   8.117   5.005  0.7160 -0.2628  0.0087
22525SOL    HW172422   9.202   8.125   5.077  0.3308  0.0102  0.3125
22525SOL    HW272423   9.133   8.022   4.990 -0.2199 -0.4290  1.2452
22526SOL     OW72424   8.008   8.665   8.568  0.4926  0.1778 -0.4581
22526SOL    HW172425   7.994   8.758   8.584 -0.7491 -0.1981  0.8972
22526SOL    HW272426   8.087   8.661   8.513 -1.5309  2.2094 -3.8711
22527SOL     OW72427   4.630   9.476   7.615 -0.2389  0.1398 -0.5579
22527SOL    HW172428   4.714   9.517   7.634 -0.9810  0.9635  1.2475
22527SOL    HW272429   4.578   9.547   7.575 -0.6207  0.1752 -0.0188
22528SOL     OW72430   7.455   8.175   5.504 -0.0282 -0.7042 -0.4849
22528SOL    HW172431   7.419   8.263   5.499 -1.0858 -0.9966  1.2678
22528SOL    HW272432   7.379   8.119   5.521  0.8004 -1.7845 -0.2376
22529SOL     OW72433   5.870   0.657   7.978 -0.1185 -0.1312  0.0926
22529SOL    HW172434   5.898   0.565   7.986 -0.4751 -0.3201 -0.7553
22529SOL    HW272435   5.795   0.654   7.919  0.5114  0.8285 -0.7754
22530SOL     OW72436   4.639   9.709   9.503 -0.6296  0.3631 -0.4721
22530SOL    HW172437   4.553   9.696   9.541 -0.2719  1.2084  0.7046
22530SOL    HW272438   4.634   9.796   9.462 -0.7813 -0.2229 -1.7218
22531SOL     OW72439   5.070   8.499   8.087 -0.4349 -0.4461 -0.3139
22531SOL    HW172440   5.087   8.405   8.079  1.0763 -0.2533  0.4056
22531SOL    HW272441   5.100   8.521   8.175  0.8626  1.0390 -1.0867
22532SOL     OW72442   6.947   9.544   8.076 -0.0993  0.1679  0.2090
22532SOL    HW172443   6.856   9.518   8.062  0.0589 -0.7851  0.9019
22532SOL    HW272444   6.946   9.640   8.068 -1.1370  0.1541  0.0992
22533SOL     OW72445   5.039   9.756   6.167  0.5165 -0.3422  0.8044
22533SOL    HW172446   5.103   9.715   6.109  1.0943 -0.6715  1.6508
22533SOL    HW272447   5.064   9.849   6.167  1.3343 -0.5465  1.5256
22534SOL     OW72448   6.230   1.485   4.601  0.1688 -0.4843  0.3545
22534SOL    HW172449   6.173   1.458   4.673 -1.0540  0.4841 -0.2217
22534SOL    HW272450   6.202   1.431   4.527 -1.1024  1.0805 -0.3441
22535SOL     OW72451   6.917   1.429   7.479  0.0339 -0.7506  0.0567
22535SOL    HW172452   6.874   1.496   7.425 -1.3617 -1.0399  0.7786
22535SOL    HW272453   7.009   1.456   7.480 -0.4702  1.1049  0.2447
22536SOL     OW72454   6.246   8.667   6.748  0.4055 -0.7254  0.5834
22536SOL    HW172455   6.222   8.684   6.656  0.8301 -0.0429  0.5960
22536SOL    HW272456   6.240   8.753   6.790  0.5551 -0.9788  1.1196
22537SOL     OW72457   5.358   8.938   7.662  0.3012  0.3419  0.1328
22537SOL    HW172458   5.304   9.013   7.640  0.6382  0.7531  0.6804
22537SOL    HW272459   5.384   8.953   7.753 -2.4787 -2.1248  1.4963
22538SOL     OW72460   8.507   0.191   4.255 -0.0359 -0.2139 -0.3355
22538SOL    HW172461   8.567   0.140   4.310 -1.1055  0.1899  1.2872
22538SOL    HW272462   8.545   0.187   4.167  1.0525 -1.9866  0.1639
22539SOL     OW72463   7.885   8.613   6.307 -0.0856 -0.2510  0.5829
22539SOL    HW172464   7.895   8.702   6.342 -0.1843 -0.4459  1.1156
22539SOL    HW272465   7.953   8.606   6.240 -0.2972  0.3411  0.2991
22540SOL     OW72466   4.808   9.358   7.222  0.2621  0.5504 -0.1334
22540SOL    HW172467   4.722   9.353   7.265  0.1048  0.1013 -0.4994
22540SOL    HW272468   4.817   9.450   7.199 -1.1544  0.2372 -2.1929
22541SOL     OW72469   6.148   8.400   5.360  0.8045 -0.3978  0.1969
22541SOL    HW172470   6.099   8.463   5.306 -0.4455 -1.5922 -0.1082
22541SOL    HW272471   6.216   8.453   5.402 -0.9678  1.4226  0.9514
22542SOL     OW72472   3.465   7.764   4.986  0.5690 -0.3296  0.3170
22542SOL    HW172473   3.541   7.803   4.945 -0.6312  0.0307 -1.6942
22542SOL    HW272474   3.476   7.670   4.971  1.0409 -0.3663  0.8440
22543SOL     OW72475   8.111   1.569   3.708  0.2285  0.1986  0.1422
22543SOL    HW172476   8.169   1.552   3.782 -2.1840  1.0366  2.3776
22543SOL    HW272477   8.114   1.663   3.695  0.5186  0.0792 -0.7745
22544SOL     OW72478   8.279   8.093   5.469 -0.6612 -0.4842  0.4595
22544SOL    HW172479   8.287   8.185   5.495  1.3333 -0.8242  1.2722
22544SOL    HW272480   8.193   8.087   5.427 -1.3568  1.4714  1.4772
22545SOL     OW72481   6.675   9.088   7.180  0.2635 -0.2653  0.2946
22545SOL    HW172482   6.617   9.146   7.131 -0.6178 -1.8460 -0.5986
22545SOL    HW272483   6.753   9.141   7.196 -0.0673  0.8314 -1.4431
22546SOL     OW72484   7.171   0.254   5.483  0.0871 -0.1689 -0.2181
22546SOL    HW172485   7.167   0.207   5.399 -1.3135 -2.6327  1.0890
22546SOL    HW272486   7.100   0.318   5.478  1.5369  1.4106 -1.7519
22547SOL     OW72487   7.522   9.197   5.929 -0.5030 -0.6047  1.0388
22547SOL    HW172488   7.483   9.125   5.880  1.0484 -1.3067  0.7744
22547SOL    HW272489   7.539   9.264   5.863  0.5623 -1.1106  0.7694
22548SOL     OW72490   7.047   0.951   8.095 -0.7765 -0.4519  0.0670
22548SOL    HW172491   7.085   0.908   8.018  0.8237  0.0731  0.5360
22548SOL    HW272492   6.988   0.885   8.132 -0.6813 -1.1308 -0.9357
22549SOL     OW72493   4.109   8.932   4.843 -0.0008  0.1458 -0.1521
22549SOL    HW172494   4.095   9.016   4.887 -0.4355  0.6964 -1.3048
22549SOL    HW272495   4.198   8.907   4.868  0.2915  1.1630 -0.1163
22550SOL     OW72496   9.224   0.891   6.986 -0.0111  0.2978 -0.0732
22550SOL    HW172497   9.281   0.907   7.061  0.9914  2.9648 -1.2914
22550SOL    HW272498   9.162   0.963   6.986  0.6288  0.9409 -2.3033
22551SOL     OW72499   6.495   0.291   6.693  0.2325  0.2105 -0.1393
22551SOL    HW172500   6.411   0.245   6.701  0.2215  0.3513  0.6355
22551SOL    HW272501   6.471   0.383   6.683  0.2873  0.2226 -0.1605
22552SOL     OW72502   5.786   0.269   6.054 -0.2727 -0.0054 -0.6212
22552SOL    HW172503   5.824   0.214   6.122 -0.5550 -1.0032 -1.2418
22552SOL    HW272504   5.729   0.330   6.100  0.3320  0.0140  0.1164
22553SOL     OW72505   6.753   8.401   5.838  0.0201 -0.3085 -0.6355
22553SOL    HW172506   6.747   8.306   5.825 -0.5999 -0.3375 -0.1651
22553SOL    HW272507   6.773   8.435   5.750  0.4130 -0.8841 -0.7759
22554SOL     OW72508   8.374   1.251   8.356 -0.0011  0.5349  0.0463
22554SOL    HW172509   8.319   1.226   8.282  0.3260 -0.0205 -0.0146
22554SOL    HW272510   8.446   1.300   8.317 -0.6670  1.6413  0.1688
22555SOL     OW72511   5.614   8.511   6.560  0.0240  0.4113 -0.1067
22555SOL    HW172512   5.581   8.587   6.513 -1.2079 -0.0836 -0.0789
22555SOL    HW272513   5.684   8.477   6.504 -0.5467  0.5897 -0.9422
22556SOL     OW72514   8.073   6.667   6.666  0.8919 -0.1224  0.6324
22556SOL    HW172515   8.131   6.636   6.736  0.0630 -0.7000  1.0771
22556SOL    HW272516   8.087   6.606   6.594  0.4159 -0.6022  0.9450
22557SOL     OW72517   6.480   0.345   3.637 -0.3444  0.3198 -0.3296
22557SOL    HW172518   6.527   0.332   3.720 -0.4423 -2.0594 -0.5681
22557SOL    HW272519   6.464   0.439   3.633  2.0569  0.8785  1.0395
22558SOL     OW72520   7.111   8.760   3.741  0.2939 -0.3391  0.0117
22558SOL    HW172521   7.113   8.684   3.683  2.0735 -1.2504  1.1554
22558SOL    HW272522   7.166   8.825   3.698 -0.4048 -0.0780 -0.4902
22559SOL     OW72523   4.929   8.554   5.883  0.6160  0.1457  0.0364
22559SOL    HW172524   4.969   8.482   5.834  0.7131 -0.6271  1.1954
22559SOL    HW272525   4.872   8.511   5.947 -1.3573  1.1986 -0.9320
22560SOL     OW72526   5.128   0.406   7.459  0.2991  0.1387  0.5448
22560SOL    HW172527   5.147   0.428   7.368 -1.0128 -0.8152  0.0103
22560SOL    HW272528   5.214   0.392   7.499  0.8759  0.0032 -0.7011
22561SOL     OW72529   7.523   1.258   8.190 -0.0618  0.3554 -0.4677
22561SOL    HW172530   7.570   1.340   8.172  1.5693 -0.5947 -0.7119
22561SOL    HW272531   7.480   1.236   8.107  0.5536  0.3138 -0.7820
22562SOL     OW72532   5.231   9.310   5.631 -0.1732 -0.6214 -0.2052
22562SOL    HW172533   5.207   9.219   5.617 -2.0388 -0.6631  2.4059
22562SOL    HW272534   5.175   9.360   5.571 -0.7471 -1.1109 -0.0807
22563SOL     OW72535   6.290   8.205   7.585  0.7085  0.2125 -0.1272
22563SOL    HW172536   6.247   8.213   7.670 -0.1911  0.5414 -0.5993
22563SOL    HW272537   6.356   8.137   7.598  0.2345 -0.1086  0.6952
22564SOL     OW72538   5.322   8.688   7.575 -0.2912 -0.3941  0.1478
22564SOL    HW172539   5.384   8.661   7.643  0.0244  0.3475  0.1601
22564SOL    HW272540   5.311   8.782   7.588 -1.2905 -0.4842  0.0344
22565SOL     OW72541   7.270   0.509   7.227 -0.3851  0.3188  0.1777
22565SOL    HW172542   7.263   0.538   7.318 -1.3012 -0.7179  0.4662
22565SOL    HW272543   7.211   0.566   7.179 -0.0566  0.7365  0.2632
22566SOL     OW72544   4.866   9.144   6.510  0.4113 -0.0843 -0.4029
22566SOL    HW172545   4.844   9.237   6.507  0.6602 -0.0318 -0.6662
22566SOL    HW272546   4.805   9.103   6.448  0.9024  0.0320 -0.9736
22567SOL     OW72547   3.828   0.039   8.189  0.1340  0.1894 -0.7037
22567SOL    HW172548   3.871  -0.030   8.138 -0.6607 -1.2598  0.5200
22567SOL    HW272549   3.869   0.035   8.275 -2.6204 -1.5416  0.6535
22568SOL     OW72550   5.836   0.786   4.439  0.6784  0.6027 -0.8476
22568SOL    HW172551   5.746   0.765   4.413 -0.1680  1.2217  1.4013
22568SOL    HW272552   5.890   0.720   4.395 -1.0814 -1.0411 -0.6335
22569SOL     OW72553   5.840   0.325   7.746  0.4768  0.0334  0.7296
22569SOL    HW172554   5.750   0.303   7.725  0.6636  0.2077 -0.2751
22569SOL    HW272555   5.866   0.260   7.812 -0.3854  0.0164  1.0600
22570SOL     OW72556   5.246   8.132   6.586 -0.2261  0.2801  0.1750
22570SOL    HW172557   5.338   8.127   6.613  0.5556 -2.6054 -2.3930
22570SOL    HW272558   5.200   8.080   6.651  0.4266 -0.5070  0.0304
22571SOL     OW72559   7.932   1.721   7.672  0.2333 -0.5083 -0.1422
22571SOL    HW172560   7.970   1.660   7.736  0.4616 -1.5969 -1.2827
22571SOL    HW272561   8.000   1.786   7.657  1.1528 -1.6649 -1.1334
22572SOL     OW72562   6.944   1.864   4.112  0.1588  0.1388  0.0741
22572SOL    HW172563   6.872   1.802   4.122  0.6679 -0.2648  1.3096
22572SOL    HW272564   6.928   1.931   4.179  1.2202 -0.2511  0.7376
22573SOL     OW72565   6.282   9.573   4.726 -0.3013 -0.0559  0.4127
22573SOL    HW172566   6.336   9.543   4.800  1.5403 -0.1417 -0.9069
22573SOL    HW272567   6.220   9.502   4.711  0.3378 -0.7207  0.8836
22574SOL     OW72568   5.901   7.954   6.474 -0.2801  0.2587 -0.1747
22574SOL    HW172569   5.949   7.970   6.555 -0.2051  0.2326 -0.2139
22574SOL    HW272570   5.815   7.922   6.503 -0.5202  0.9657 -0.0910
22575SOL     OW72571   6.814   9.505   6.314 -0.4342  0.1650  0.3197
22575SOL    HW172572   6.720   9.514   6.299 -0.7863 -0.6894  1.7994
22575SOL    HW272573   6.847   9.461   6.236 -1.2279  0.6580 -0.2994
22576SOL     OW72574   5.754   9.157   4.857 -0.5650 -0.2082  0.2512
22576SOL    HW172575   5.724   9.203   4.779  1.5596  0.7887 -0.0577
22576SOL    HW272576   5.804   9.223   4.906  0.7894 -1.6174  0.8546
22577SOL     OW72577   6.233   9.855   6.818  0.1132 -0.5439 -0.2519
22577SOL    HW172578   6.146   9.813   6.816 -0.9170  1.4763 -1.7457
22577SOL    HW272579   6.248   9.882   6.727  2.4172 -0.9861 -0.0568
22578SOL     OW72580   7.652   1.566   5.437 -0.0852 -0.0653 -0.0526
22578SOL    HW172581   7.623   1.541   5.524  0.6020  0.1612  0.2466
22578SOL    HW272582   7.744   1.542   5.434  0.6382  2.3431  0.2712
22579SOL     OW72583   5.218   6.671   5.339  0.2231  0.5169  0.9223
22579SOL    HW172584   5.177   6.648   5.255 -1.0613  1.8327  1.1633
22579SOL    HW272585   5.281   6.739   5.316  1.6903 -0.8573  0.6937
22580SOL     OW72586   8.420   8.027   5.853 -0.4944 -0.7099  0.0347
22580SOL    HW172587   8.503   8.022   5.805 -1.3620  0.9560 -1.8336
22580SOL    HW272588   8.445   8.051   5.942  1.0953 -1.8761 -0.0580
22581SOL     OW72589   7.770   9.583   7.383  0.0032 -0.4153 -0.2966
22581SOL    HW172590   7.682   9.585   7.346 -0.6659  3.9205  0.9374
22581SOL    HW272591   7.763   9.629   7.467  3.5637  1.0587 -0.5983
22582SOL     OW72592   6.029   0.762   7.507  0.2786  1.1016  0.2501
22582SOL    HW172593   6.089   0.706   7.456 -1.9811 -0.0575 -1.3090
22582SOL    HW272594   6.021   0.841   7.454  0.5622  1.3350  0.5538
22583SOL     OW72595   6.827   7.872   5.259 -0.1652 -0.2346  0.6662
22583SOL    HW172596   6.749   7.884   5.205  0.0099 -1.5498  0.0838
22583SOL    HW272597   6.806   7.797   5.315  0.4881 -0.2771  0.8610
22584SOL     OW72598   5.888   0.572   6.310  0.3673 -0.3570  0.5247
22584SOL    HW172599   5.907   0.653   6.263  1.6672 -1.1613 -0.4000
22584SOL    HW272600   5.827   0.598   6.380 -0.1349  1.1937 -0.4456
22585SOL     OW72601   6.441   8.152   5.280  0.0932  0.7004 -0.0908
22585SOL    HW172602   6.405   8.198   5.204 -1.7936  1.8938  1.4533
22585SOL    HW272603   6.512   8.209   5.310 -0.8841  1.5941  0.5796
22586SOL     OW72604   5.994   2.965   6.666  0.7276 -0.2439  0.0201
22586SOL    HW172605   6.050   2.911   6.611  0.0443 -0.8799 -0.0769
22586SOL    HW272606   5.986   2.916   6.748 -0.2197 -0.5034 -0.2122
22587SOL     OW72607   6.968   0.416   5.693  0.1094  0.0497 -0.6761
22587SOL    HW172608   6.949   0.350   5.760 -0.3277 -0.1222 -0.9620
22587SOL    HW272609   6.882   0.450   5.669 -0.0893 -1.9091 -3.1867
22588SOL     OW72610   6.110   1.471   6.040 -0.0099  0.2590  0.1348
22588SOL    HW172611   6.016   1.455   6.027  0.6990 -4.2729 -1.0916
22588SOL    HW272612   6.143   1.390   6.078  3.9847  0.1293 -2.9655
22589SOL     OW72613   9.322   9.077   5.574  0.2549  0.4907 -0.2925
22589SOL    HW172614   9.316   9.078   5.478 -0.0110  1.3504 -0.2749
22589SOL    HW272615   9.413   9.099   5.592  0.4848 -0.3817 -0.3541
22590SOL     OW72616   4.700   7.804   8.350 -0.4890  0.7169  0.5550
22590SOL    HW172617   4.723   7.837   8.263 -0.4719  0.1003  0.3233
22590SOL    HW272618   4.665   7.716   8.334  2.0268 -0.5443  1.3847
22591SOL     OW72619   4.677   8.944   7.786  0.8956  0.0000 -0.7692
22591SOL    HW172620   4.753   8.947   7.844  0.2453  1.7993  0.0885
22591SOL    HW272621   4.703   8.997   7.710  0.0646  1.8783  0.1853
22592SOL     OW72622   6.337   1.807   7.734  0.1281 -0.1360 -0.2298
22592SOL    HW172623   6.332   1.812   7.829  0.4751  0.4665 -0.2391
22592SOL    HW272624   6.261   1.754   7.709  0.5829 -1.1248  0.4410
22593SOL     OW72625   6.924   0.708   7.962 -0.1313  0.1092 -0.3157
22593SOL    HW172626   6.954   0.706   8.053 -0.9693 -2.2008 -0.0254
22593SOL    HW272627   6.978   0.643   7.917 -0.0915  0.8422 -1.3739
22594SOL     OW72628   6.872   1.240   8.919  0.2724  0.0302  0.0700
22594SOL    HW172629   6.871   1.189   8.838  2.2927 -0.3456  0.2103
22594SOL    HW272630   6.929   1.190   8.978 -2.3007 -0.4974  2.3243
22595SOL     OW72631   6.172   7.575   9.854 -0.2502  0.1001  0.0579
22595SOL    HW172632   6.217   7.619   9.782 -2.0593  1.0963 -0.5292
22595SOL    HW272633   6.242   7.542   9.910  1.2394 -1.0926 -2.3449
22596SOL     OW72634   4.580   9.390   6.962  0.3973  0.0564  0.7094
22596SOL    HW172635   4.674   9.387   6.946  0.5430  1.1215  1.2885
22596SOL    HW272636   4.562   9.311   7.014  1.0995  0.2260  1.2277
22597SOL     OW72637   6.651   9.783   7.856  0.0193 -0.3539 -0.5574
22597SOL    HW172638   6.644   9.710   7.795 -0.1957 -0.5941 -0.2496
22597SOL    HW272639   6.664   9.742   7.941  0.0319 -0.0308 -0.4005
22598SOL     OW72640   7.535   9.266   9.618 -0.8011 -0.7865  0.0692
22598SOL    HW172641   7.472   9.335   9.639  0.5272  0.4222  0.2454
22598SOL    HW272642   7.551   9.276   9.524  0.5545  0.2091  0.3732
22599SOL     OW72643   6.448   9.856   8.236  0.5733  0.4728  0.0458
22599SOL    HW172644   6.530   9.830   8.194 -0.3824 -2.9781 -0.0017
22599SOL    HW272645   6.396   9.896   8.166  1.1964  0.1838 -0.5874
22600SOL     OW72646   6.505   9.310   0.563  0.7936 -0.3598 -0.2678
22600SOL    HW172647   6.413   9.333   0.577  1.1877  3.5846 -2.7136
22600SOL    HW272648   6.503   9.255   0.484  0.5439  1.7858 -1.8627
22601SOL     OW72649   7.919   0.715   8.292  0.7040 -0.2054  0.1491
22601SOL    HW172650   7.970   0.738   8.214  1.3685  0.9223  0.9023
22601SOL    HW272651   7.963   0.636   8.326  1.1001 -0.0525  0.0038
22602SOL     OW72652   6.026   0.104   8.554  0.4771 -0.3551  0.0394
22602SOL    HW172653   6.080   0.120   8.631  1.7843 -1.5824 -0.5855
22602SOL    HW272654   6.084   0.121   8.480 -1.0676  1.8798 -0.7421
22603SOL     OW72655   5.259   0.254   9.249 -0.1570  0.4961  0.4019
22603SOL    HW172656   5.312   0.299   9.315  0.0232  0.0075  0.5961
22603SOL    HW272657   5.190   0.317   9.228  0.9345  1.4670 -0.4379
22604SOL     OW72658   8.357   0.811   9.397  0.2552  0.3600  0.7006
22604SOL    HW172659   8.278   0.829   9.346  0.5121  1.6305  0.7130
22604SOL    HW272660   8.425   0.864   9.356  0.7026  0.6113  1.7208
22605SOL     OW72661   4.879   6.362   6.675  0.5805 -0.5145  0.1666
22605SOL    HW172662   4.847   6.426   6.612  0.5333  0.7419  1.4225
22605SOL    HW272663   4.966   6.393   6.699 -0.1557  0.1936  2.1863
22606SOL     OW72664   8.483   0.336   7.526  0.2034  0.5439  0.0692
22606SOL    HW172665   8.547   0.271   7.496  1.6627  1.8027  0.3440
22606SOL    HW272666   8.440   0.365   7.446  0.4636  0.1879 -0.2045
22607SOL     OW72667   5.366   9.072   9.051  0.7168  0.2087  0.0015
22607SOL    HW172668   5.322   9.153   9.024 -0.8686 -0.8489 -0.7535
22607SOL    HW272669   5.374   9.079   9.146  1.4865  1.6468 -0.1357
22608SOL     OW72670   6.406   0.466   9.651  0.4011 -0.6630  0.1612
22608SOL    HW172671   6.395   0.443   9.743  1.0706 -1.6531  0.0202
22608SOL    HW272672   6.349   0.404   9.604  1.9045 -1.8241 -0.2071
22609SOL     OW72673   6.450   9.416   8.809  0.2573 -0.1992 -0.0895
22609SOL    HW172674   6.545   9.421   8.803  0.3113  1.1683  1.2004
22609SOL    HW272675   6.424   9.357   8.738  2.2198 -2.4777  0.9419
22610SOL     OW72676   4.903   0.839   0.878 -0.0104 -0.4980  0.4768
22610SOL    HW172677   4.971   0.828   0.812  0.9150  0.3856  1.2547
22610SOL    HW272678   4.886   0.751   0.911 -0.4994 -0.9501 -0.9297
22611SOL     OW72679   5.814   0.754   9.470 -0.2517 -0.0653 -0.3790
22611SOL    HW172680   5.761   0.770   9.392  0.1550 -1.0627 -0.8780
22611SOL    HW272681   5.751   0.751   9.542 -0.6297  0.8688 -0.6619
22612SOL     OW72682   6.234   9.165   7.967 -0.3815 -1.1888 -0.1502
22612SOL    HW172683   6.147   9.203   7.983  0.2558  0.8372 -1.1367
22612SOL    HW272684   6.233   9.082   8.015 -3.2524 -1.7926 -1.0134
22613SOL     OW72685   7.295   7.045   7.143  0.0839 -0.1694 -0.5321
22613SOL    HW172686   7.288   7.138   7.165  0.2316 -0.1570 -0.5350
22613SOL    HW272687   7.389   7.026   7.147  0.1079 -0.1858 -1.0799
22614SOL     OW72688   5.316   1.575   7.754 -0.1728  1.4245 -0.4012
22614SOL    HW172689   5.322   1.489   7.712 -3.8316 -0.7767  2.8873
22614SOL    HW272690   5.385   1.573   7.821  0.6574  1.6767 -1.2370
22615SOL     OW72691   6.415   9.251   8.577 -0.1741 -0.5731  0.1654
22615SOL    HW172692   6.322   9.249   8.556 -0.0184  1.8332 -1.0914
22615SOL    HW272693   6.458   9.208   8.503 -0.2034 -0.0974 -0.1354
22616SOL     OW72694   2.939   0.077   9.828  0.3034  0.0365  0.0974
22616SOL    HW172695   2.899   0.076   9.741  0.5272  0.8719 -0.0283
22616SOL    HW272696   3.027   0.042   9.814  0.3116  0.0946  0.0041
22617SOL     OW72697   5.749   0.592   8.699  0.4080 -0.6305 -0.1178
22617SOL    HW172698   5.664   0.560   8.669  0.5755 -2.1308  0.8639
22617SOL    HW272699   5.730   0.636   8.781  0.4078  0.2865 -0.6033
22618SOL     OW72700   5.838   9.650   8.756 -0.1845  0.4409 -0.0638
22618SOL    HW172701   5.777   9.710   8.713  0.3751  0.5408 -0.7322
22618SOL    HW272702   5.915   9.649   8.700 -1.0711 -2.7905 -1.4702
22619SOL     OW72703   6.998   6.991   8.413  0.3229  0.3087  0.5272
22619SOL    HW172704   7.070   6.978   8.352  0.8268  0.5763  1.0483
22619SOL    HW272705   7.009   7.080   8.445 -1.2674  0.9838 -0.6739
22620SOL     OW72706   6.376   0.235   8.052  0.2425  0.2001  0.3164
22620SOL    HW172707   6.381   0.234   7.957 -0.7179  1.4025  0.2293
22620SOL    HW272708   6.446   0.295   8.080  0.7871 -0.4645  0.4040
22621SOL     OW72709   5.274   8.727   7.897 -0.5028 -0.8724  0.0975
22621SOL    HW172710   5.274   8.643   7.943  0.8252 -1.0855 -0.2615
22621SOL    HW272711   5.340   8.779   7.942  0.5088 -0.9332 -1.2658
22622SOL     OW72712   7.996   0.377   9.191  0.3767 -0.5080  0.2416
22622SOL    HW172713   8.047   0.296   9.193  1.0171 -0.2015 -1.5070
22622SOL    HW272714   7.909   0.350   9.161  0.4475 -0.6274  0.1405
22623SOL     OW72715   8.923   8.812   7.658 -0.4065  0.0555 -0.0656
22623SOL    HW172716   8.850   8.752   7.647 -0.8825  0.3153  1.5457
22623SOL    HW272717   8.912   8.876   7.587 -1.3947 -0.2481 -0.1915
22624SOL     OW72718   6.040   6.139   7.785 -0.1151 -0.4480 -0.7296
22624SOL    HW172719   6.040   6.173   7.874 -0.6898  0.0445 -0.9072
22624SOL    HW272720   6.121   6.173   7.746  0.0653 -0.5474 -0.4394
22625SOL     OW72721   5.956   0.264   8.824 -0.0119  0.1007 -0.0494
22625SOL    HW172722   5.886   0.211   8.861 -0.2373 -0.0742 -0.7149
22625SOL    HW272723   6.028   0.203   8.808 -0.4000 -0.0798 -1.1494
22626SOL     OW72724   5.933   8.742   0.885 -0.3631 -0.1884 -0.1189
22626SOL    HW172725   6.027   8.749   0.903 -0.5668  1.1806  0.5384
22626SOL    HW272726   5.891   8.770   0.967 -1.3425 -0.2769 -0.5805
22627SOL     OW72727   5.913   8.322   8.913  0.2219 -0.0800  0.1595
22627SOL    HW172728   5.927   8.347   9.004  0.0749 -0.8804  0.4108
22627SOL    HW272729   5.982   8.258   8.895 -1.5984 -2.3455  0.7092
22628SOL     OW72730   5.868   9.207   7.744  0.0718  0.1161 -0.3749
22628SOL    HW172731   5.899   9.128   7.790 -2.7850 -0.2261  1.2586
22628SOL    HW272732   5.862   9.180   7.653 -0.7908 -1.6176  0.1341
22629SOL     OW72733   5.748   1.681   6.119  0.4385  0.4747  0.2931
22629SOL    HW172734   5.834   1.722   6.124 -0.4001  2.3202  0.7399
22629SOL    HW272735   5.729   1.651   6.208  2.1144 -3.4486 -0.4816
22630SOL     OW72736   6.511   9.010   8.126  0.3158 -0.2516  0.4069
22630SOL    HW172737   6.420   8.993   8.149  0.2016 -0.5905 -0.2594
22630SOL    HW272738   6.527   8.954   8.050  1.3161 -0.7849  0.9994
22631SOL     OW72739   4.598   0.669   8.567 -0.2599 -0.2302 -0.7922
22631SOL    HW172740   4.594   0.594   8.509 -0.0816  0.4199 -1.6734
22631SOL    HW272741   4.510   0.678   8.602 -0.3466 -0.6779 -0.9016
22632SOL     OW72742   7.340   8.394   6.281 -0.8434  0.2878  0.0495
22632SOL    HW172743   7.275   8.440   6.333 -0.6571  0.9281 -0.2762
22632SOL    HW272744   7.418   8.389   6.337 -0.6416  0.9788 -0.1560
22633SOL     OW72745   6.254   9.600   8.824 -0.3670  0.6926 -0.0064
22633SOL    HW172746   6.282   9.681   8.866 -0.3407  1.0503 -0.6957
22633SOL    HW272747   6.334   9.551   8.808 -0.4954 -0.1339  1.7076
22634SOL     OW72748   2.736   9.615   4.863 -0.2127 -0.1011  0.3995
22634SOL    HW172749   2.787   9.588   4.787 -0.4562  1.9026 -0.5599
22634SOL    HW272750   2.660   9.661   4.826 -1.0170 -0.1961  1.8389
22635SOL     OW72751   8.966   9.454   9.672  0.3750  0.3553  0.2384
22635SOL    HW172752   8.924   9.539   9.683  2.5228  1.6427 -0.8288
22635SOL    HW272753   9.011   9.438   9.756  1.0107  0.9099  0.0120
22636SOL     OW72754   6.130   0.861   8.786  0.3651 -0.2607 -0.4019
22636SOL    HW172755   6.043   0.883   8.752  0.7349 -1.7089 -2.4985
22636SOL    HW272756   6.183   0.938   8.769 -0.0516 -0.0865 -0.9464
22637SOL     OW72757   6.685   6.895   8.894 -0.9136 -0.0174  0.0084
22637SOL    HW172758   6.689   6.841   8.972  2.7328 -1.1920 -0.8191
22637SOL    HW272759   6.773   6.933   8.886 -1.7837  1.7532 -2.3900
22638SOL     OW72760   6.541   8.445   8.603  0.7264  0.1612 -0.4407
22638SOL    HW172761   6.616   8.466   8.659  0.1123  0.2946  0.3579
22638SOL    HW272762   6.466   8.446   8.663  0.1856 -0.7167 -1.0759
22639SOL     OW72763   4.975   7.074   9.456 -0.1664 -0.0392 -0.1121
22639SOL    HW172764   5.030   6.997   9.443  0.4108 -0.0914  2.1102
22639SOL    HW272765   5.036   7.147   9.452 -0.6764  0.3364 -1.9814
22640SOL     OW72766   6.777   8.823   8.407  0.1806  0.1489 -0.2090
22640SOL    HW172767   6.737   8.881   8.342  0.0203 -0.9426 -1.1101
22640SOL    HW272768   6.720   8.830   8.484 -1.3193 -0.7462 -1.1950
22641SOL     OW72769   8.364   9.590   8.582  0.3343  0.1689 -0.0176
22641SOL    HW172770   8.316   9.529   8.638 -0.2037  2.3159  1.9829
22641SOL    HW272771   8.453   9.553   8.578 -0.1075 -1.0227  0.6804
22642SOL     OW72772   8.221   0.467   0.741 -0.0398 -0.0627  0.1716
22642SOL    HW172773   8.174   0.461   0.824 -1.2744  3.1730 -0.1391
22642SOL    HW272774   8.311   0.489   0.765 -0.0505 -0.5431  0.6596
22643SOL     OW72775   7.717   1.305   7.466  0.1730 -0.0754 -0.3444
22643SOL    HW172776   7.753   1.382   7.510 -0.4543  2.2520 -3.6185
22643SOL    HW272777   7.768   1.232   7.501  1.8096  1.9590  1.8190
22644SOL     OW72778   7.211   7.849   8.081 -0.4901  0.2531  0.1221
22644SOL    HW172779   7.257   7.921   8.037 -1.2690  1.3103  0.9985
22644SOL    HW272780   7.119   7.861   8.057 -0.7696  0.1898  1.1404
22645SOL     OW72781   7.490   3.002   7.374  0.2086  0.3729  0.3479
22645SOL    HW172782   7.404   3.013   7.415 -0.5170 -1.0330 -0.6960
22645SOL    HW272783   7.498   3.075   7.313 -2.3025 -1.7338 -2.8428
22646SOL     OW72784   6.356   9.810   8.932 -0.6796 -0.0117 -0.1089
22646SOL    HW172785   6.448   9.815   8.906 -0.8765 -1.3879 -1.1906
22646SOL    HW272786   6.353   9.857   9.016  1.1810 -0.6591  0.3870
22647SOL     OW72787   3.848   2.086   8.179 -0.4609  0.9764 -0.1624
22647SOL    HW172788   3.834   2.038   8.261 -0.3838  1.5440  0.1898
22647SOL    HW272789   3.761   2.117   8.154 -0.5412  0.4959 -0.4945
22648SOL     OW72790   5.852   1.057   8.064  0.3157  0.1948 -0.5558
22648SOL    HW172791   5.878   1.064   8.156 -0.5947 -0.6286 -0.2172
22648SOL    HW272792   5.827   1.146   8.039  1.9982  0.7118 -0.4621
22649SOL     OW72793   5.450   0.633   6.386  0.1416 -0.4769 -0.0720
22649SOL    HW172794   5.375   0.666   6.337 -0.4284 -0.2134  0.9607
22649SOL    HW272795   5.412   0.580   6.456  0.9755 -1.6517 -0.4766
22650SOL     OW72796   6.629   8.375   0.124 -0.2881  0.1031 -0.2466
22650SOL    HW172797   6.674   8.364   0.040 -1.2490 -1.1199 -0.6278
22650SOL    HW272798   6.547   8.420   0.102 -1.0661 -1.2295 -0.1467
22651SOL     OW72799   6.902   0.795   8.682 -0.3093 -0.3950 -0.2513
22651SOL    HW172800   6.899   0.702   8.659 -2.2860 -0.7591  1.1948
22651SOL    HW272801   6.947   0.797   8.766  0.0349 -0.0040 -0.4456
22652SOL     OW72802   6.968   2.139   9.331  0.5647  0.0470  0.2250
22652SOL    HW172803   6.949   2.087   9.409  0.9985 -0.5525 -0.0599
22652SOL    HW272804   6.955   2.229   9.359 -1.5919 -0.2502  0.3551
22653SOL     OW72805   7.994   8.538   9.260  0.2507 -0.0551  0.1392
22653SOL    HW172806   8.040   8.573   9.336  0.8407 -0.8612  0.1730
22653SOL    HW272807   7.906   8.575   9.266  1.1009  2.2246 -0.4027
22654SOL     OW72808   5.364   9.255   7.667  0.0769 -0.0423  0.2697
22654SOL    HW172809   5.443   9.288   7.710  0.9241 -0.0308 -1.2163
22654SOL    HW272810   5.380   9.268   7.573 -1.4034 -0.6844 -0.1147
22655SOL     OW72811   6.680   6.723   8.669  0.2819  0.5692  0.2601
22655SOL    HW172812   6.763   6.679   8.683 -0.7552 -0.9955  2.0137
22655SOL    HW272813   6.682   6.797   8.730  0.3194  0.4250  0.4351
22656SOL     OW72814   7.239   8.108   8.281 -0.1387  0.3153  0.4632
22656SOL    HW172815   7.299   8.172   8.243  0.6617 -0.9605 -0.4944
22656SOL    HW272816   7.152   8.146   8.270  0.4526  2.3479  2.1533
22657SOL     OW72817   4.763   0.540   0.315  0.3999  0.4393 -0.0509
22657SOL    HW172818   4.714   0.602   0.369  0.9233  2.2436 -1.5204
22657SOL    HW272819   4.796   0.475   0.377 -1.1001  0.9931  1.4146
22658SOL     OW72820   6.778   8.118   8.687  0.0397  0.0836 -0.5602
22658SOL    HW172821   6.798   8.184   8.621  1.4602 -0.3934 -0.6197
22658SOL    HW272822   6.765   8.037   8.637 -1.6512  0.2575 -0.4821
22659SOL     OW72823   6.573   0.227   7.030  0.2918 -0.0195 -0.3380
22659SOL    HW172824   6.486   0.192   7.050  1.0675 -1.0866  1.3455
22659SOL    HW272825   6.558   0.322   7.021 -1.0228 -0.1670 -0.0226
22660SOL     OW72826   8.555   0.052   9.734 -0.5233  0.2236  0.1415
22660SOL    HW172827   8.564  -0.014   9.665  1.3814 -0.5111  1.0489
22660SOL    HW272828   8.492   0.015   9.795  1.7700 -1.6490  1.5320
22661SOL     OW72829   6.511   7.375   8.768 -0.2444 -0.6210 -0.2076
22661SOL    HW172830   6.566   7.380   8.846 -0.4371  1.4391 -0.1571
22661SOL    HW272831   6.537   7.450   8.715 -0.7644 -1.4577 -1.7154
22662SOL     OW72832   6.668   0.627   0.302 -0.1763  0.2031  0.0535
22662SOL    HW172833   6.695   0.707   0.256  0.8810 -0.7287 -1.0039
22662SOL    HW272834   6.586   0.651   0.344  0.8042  2.2890  0.9564
22663SOL     OW72835   5.262   7.766   0.070  0.2936  0.5754  0.4186
22663SOL    HW172836   5.284   7.677   0.043  1.0728  1.4330 -2.0133
22663SOL    HW272837   5.200   7.754   0.142 -0.1776 -1.9395 -0.3022
22664SOL     OW72838   6.651   9.018   0.612  0.3676 -0.9361  0.6321
22664SOL    HW172839   6.587   9.041   0.545  2.0100 -1.4566 -1.2226
22664SOL    HW272840   6.693   9.101   0.635 -0.4651 -0.6970  1.3545
22665SOL     OW72841   7.103   0.775   9.698 -0.4891  0.4205  0.2224
22665SOL    HW172842   7.013   0.784   9.667  0.2158  2.0768 -1.5501
22665SOL    HW272843   7.137   0.700   9.648 -1.0761 -0.7810  1.5403
22666SOL     OW72844   7.042   2.314   7.227 -0.5203 -0.2657  0.2390
22666SOL    HW172845   7.111   2.326   7.162 -0.4448 -0.7739  0.2182
22666SOL    HW272846   6.979   2.383   7.209  0.1138  0.3681  0.4273
22667SOL     OW72847   7.102   1.228   9.098 -0.0971  0.4509  0.4384
22667SOL    HW172848   7.119   1.135   9.111 -0.6535  0.0878 -1.1652
22667SOL    HW272849   7.063   1.257   9.180 -1.0973 -1.0362  0.5333
22668SOL     OW72850   7.201   9.668   9.836  0.2606 -0.0087 -0.1818
22668SOL    HW172851   7.208   9.665   9.931 -0.6478 -1.1222 -0.1279
22668SOL    HW272852   7.254   9.744   9.810  2.2655 -0.9105  1.0214
22669SOL     OW72853   5.837   3.434   7.914 -0.1440  0.4063  0.1820
22669SOL    HW172854   5.752   3.391   7.908  0.5384 -1.1812  1.0317
22669SOL    HW272855   5.861   3.428   8.007  1.1636  0.2287 -0.1393
22670SOL     OW72856   5.657   8.481   2.065 -0.1398 -0.2389  0.2821
22670SOL    HW172857   5.617   8.396   2.085 -0.7085 -0.3169 -1.1290
22670SOL    HW272858   5.751   8.462   2.062 -0.0991 -0.4334  1.7213
22671SOL     OW72859   4.643   8.738   8.020 -0.7731  0.1334  0.0238
22671SOL    HW172860   4.727   8.695   8.006 -1.4880 -1.1729 -0.3894
22671SOL    HW272861   4.666   8.828   8.042  0.7380 -0.2465  0.1160
22672SOL     OW72862   3.871   9.378   0.627 -0.1723  0.2807 -0.1881
22672SOL    HW172863   3.830   9.457   0.590  0.0540  0.7462  0.5187
22672SOL    HW272864   3.939   9.412   0.685 -2.1579 -0.2693  2.6671
22673SOL     OW72865   6.556   0.654   9.568  0.3760  0.2804 -0.5806
22673SOL    HW172866   6.526   0.703   9.645 -0.7856  0.9786 -1.4569
22673SOL    HW272867   6.515   0.568   9.577 -1.0637  0.8686 -1.1952
22674SOL     OW72868   8.094   8.462   8.035  0.2715  0.2236  0.2388
22674SOL    HW172869   8.127   8.493   8.120 -1.1364  0.1764  0.8291
22674SOL    HW272870   8.107   8.367   8.038  2.0062  0.3895 -0.4328
22675SOL     OW72871   5.459   8.711   9.693 -0.0673 -0.0316  0.3669
22675SOL    HW172872   5.522   8.780   9.673  1.2019 -0.9671  0.9625
22675SOL    HW272873   5.393   8.753   9.747 -1.8521  1.7789 -2.9307
22676SOL     OW72874   6.584   9.252   0.837  0.0290 -0.1279 -0.3470
22676SOL    HW172875   6.563   9.241   0.744  0.5404  0.2824 -0.5124
22676SOL    HW272876   6.661   9.309   0.838 -1.1688  1.5449  0.4125
22677SOL     OW72877   9.328   1.299   1.073 -0.1701  0.4953  0.0928
22677SOL    HW172878   9.277   1.378   1.053  2.8609  2.9829  1.3671
22677SOL    HW272879   9.386   1.288   0.998  1.3888  1.2696  1.1458
22678SOL     OW72880   7.416   0.405   8.972 -0.3312 -0.4775 -0.7273
22678SOL    HW172881   7.397   0.459   8.895 -1.7620 -1.0728 -0.8205
22678SOL    HW272882   7.433   0.318   8.936  0.1899 -0.4886 -0.4508
22679SOL     OW72883   6.075   9.709   2.800 -0.2469 -0.1936 -0.5070
22679SOL    HW172884   6.001   9.694   2.742 -0.7181  0.1598  0.0005
22679SOL    HW272885   6.142   9.748   2.744 -1.0192  0.9804 -0.6262
22680SOL     OW72886   7.221   0.170   8.642 -0.0088 -0.1949  0.6418
22680SOL    HW172887   7.199   0.261   8.658 -1.2466 -0.3264 -0.2293
22680SOL    HW272888   7.300   0.173   8.587 -2.1294  0.5193 -2.6638
22681SOL     OW72889   7.866   0.286   0.701 -0.1295  0.2715  0.1022
22681SOL    HW172890   7.952   0.246   0.688 -0.7473 -1.0870 -0.0715
22681SOL    HW272891   7.867   0.316   0.792  0.3166 -0.2951  0.2913
22682SOL     OW72892   2.223   7.026   8.790  0.4544  0.0241  0.2003
22682SOL    HW172893   2.144   7.080   8.793 -0.5964 -1.2307 -2.3848
22682SOL    HW272894   2.200   6.948   8.840 -0.2139 -0.6196 -1.0788
22683SOL     OW72895   8.605   1.143   9.846 -0.0980 -0.2883  0.4956
22683SOL    HW172896   8.580   1.185   9.763 -0.2348 -1.9815 -0.3772
22683SOL    HW272897   8.555   1.061   9.846 -0.9297  0.1610  2.7878
22684SOL     OW72898   6.785   9.280   0.601 -0.0220  0.0256  0.0191
22684SOL    HW172899   6.713   9.339   0.623  0.5148 -0.0315  2.1923
22684SOL    HW272900   6.816   9.310   0.516 -1.3190  1.3233 -0.0361
22685SOL     OW72901   6.676   0.659   2.053  0.1908 -0.5682 -0.3929
22685SOL    HW172902   6.601   0.604   2.075  0.5919 -1.1783 -0.5260
22685SOL    HW272903   6.741   0.638   2.120 -0.2866  1.0823  0.6422
22686SOL     OW72904   7.578   1.351   0.743  0.2704 -0.2755  0.1798
22686SOL    HW172905   7.651   1.409   0.764  0.6174 -1.4338  2.4601
22686SOL    HW272906   7.523   1.354   0.821 -2.4012  0.8519 -1.5890
22687SOL     OW72907   7.672   1.287   9.625 -0.4453  0.4934  0.2349
22687SOL    HW172908   7.691   1.322   9.538  0.6919  0.2433  0.3587
22687SOL    HW272909   7.596   1.230   9.612  0.8092 -1.0120 -1.0018
22688SOL     OW72910   9.608   2.160   1.523 -0.4536 -0.1145  0.4849
22688SOL    HW172911   9.563   2.076   1.532 -1.3591  0.3246  0.1827
22688SOL    HW272912   9.540   2.220   1.493  0.3560  0.5600 -0.0313
22689SOL     OW72913   1.607   7.700   0.565 -0.0341 -0.0982  0.0242
22689SOL    HW172914   1.538   7.767   0.560  1.0083  1.1049  1.0728
22689SOL    HW272915   1.559   7.619   0.585 -1.2067  0.5861  0.1137
22690SOL     OW72916   7.120   1.206   2.065 -0.3981 -0.0368  0.5894
22690SOL    HW172917   7.028   1.189   2.082  0.2434 -1.9728  2.5604
22690SOL    HW272918   7.146   1.138   2.003 -0.3611  0.8295 -0.3871
22691SOL     OW72919   8.052   0.728   0.248  0.3581 -0.1067  0.0318
22691SOL    HW172920   8.038   0.785   0.172  0.6984 -0.0431  0.0158
22691SOL    HW272921   7.991   0.760   0.314 -0.5935 -0.7351 -0.5251
22692SOL     OW72922   7.774   1.598   0.019 -0.9371 -0.0908  0.8492
22692SOL    HW172923   7.852   1.597   0.075 -0.9795 -1.5226  0.9140
22692SOL    HW272924   7.805   1.566  -0.065 -0.8954  1.9606  0.0342
22693SOL     OW72925   9.648   2.196   2.046  0.7076 -0.2744  0.1996
22693SOL    HW172926   9.652   2.146   1.964 -0.2978  1.3290 -0.9047
22693SOL    HW272927   9.561   2.238   2.044  1.4615  1.4515  1.0664
22694SOL     OW72928   8.317   0.814   0.731  0.2579 -0.3128  0.0209
22694SOL    HW172929   8.401   0.770   0.718  0.7800  0.3615  0.9462
22694SOL    HW272930   8.341   0.903   0.758 -0.7448 -0.2128  0.6345
22695SOL     OW72931   0.484   0.596   2.646  0.0759 -0.2296 -0.2450
22695SOL    HW172932   0.465   0.673   2.700 -2.6379 -1.4737  0.7177
22695SOL    HW272933   0.541   0.542   2.701 -1.3823 -0.7500  0.8199
22696SOL     OW72934   5.455   8.723   0.980  0.2311  0.2070  0.5764
22696SOL    HW172935   5.480   8.735   1.072  0.3805  2.0806  0.3334
22696SOL    HW272936   5.410   8.804   0.957 -0.8146 -0.6907 -0.7053
22697SOL     OW72937   8.923   1.200   9.253  0.8608  0.2482 -0.0493
22697SOL    HW172938   8.999   1.250   9.281 -1.1498  2.9397  1.0821
22697SOL    HW272939   8.858   1.216   9.322 -1.4047 -0.1550 -1.9777
22698SOL     OW72940   6.733   1.979   1.999  0.0532  0.3948  0.0632
22698SOL    HW172941   6.755   1.896   1.957  0.7948  0.3752  0.4667
22698SOL    HW272942   6.639   1.988   1.986 -0.1611 -0.8429  0.5866
22699SOL     OW72943   6.874   0.466   3.776 -0.2436  0.3287  0.2117
22699SOL    HW172944   6.844   0.510   3.697 -0.1190  0.8622  0.4596
22699SOL    HW272945   6.801   0.408   3.800 -0.2814  0.1679 -0.2884
22700SOL     OW72946   9.687   1.191   8.773 -0.4745  0.3325  0.1461
22700SOL    HW172947   9.681   1.171   8.679 -1.1476  0.1794  0.2200
22700SOL    HW272948   9.732   1.275   8.777 -0.5112  0.3781 -0.3205
22701SOL     OW72949   0.012   2.073   1.133 -0.4453  0.7524  0.7299
22701SOL    HW172950   0.097   2.110   1.107  1.1183 -2.0360  1.4993
22701SOL    HW272951  -0.010   2.012   1.062 -0.9813  0.2265  1.3466
22702SOL     OW72952   4.908   0.492   1.811 -0.2826  0.0448  0.0936
22702SOL    HW172953   4.820   0.467   1.839 -0.5491  0.4069 -0.3998
22702SOL    HW272954   4.956   0.410   1.805 -1.0616 -0.3466 -1.2290
22703SOL     OW72955   9.319   9.224   1.540  0.1661 -0.1633 -0.5133
22703SOL    HW172956   9.370   9.160   1.492  0.6878 -0.4387  0.3764
22703SOL    HW272957   9.366   9.307   1.528 -0.5209  0.0709 -1.6810
22704SOL     OW72958   8.096   0.148   0.705 -0.1009 -0.3916 -0.2865
22704SOL    HW172959   8.062   0.080   0.647  1.5470  0.1628 -2.0018
22704SOL    HW272960   8.161   0.102   0.759 -0.8891 -0.6952  0.4208
22705SOL     OW72961   8.576   2.349   2.456  0.6083  0.6114 -0.1050
22705SOL    HW172962   8.570   2.286   2.527 -1.5276  0.5235 -0.2882
22705SOL    HW272963   8.659   2.394   2.470  1.0217 -0.5686  1.4408
22706SOL     OW72964   7.323   1.208   8.849  0.4722 -0.1407  0.0151
22706SOL    HW172965   7.411   1.224   8.883  0.8880 -0.3476 -0.9076
22706SOL    HW272966   7.330   1.226   8.755 -0.8591  1.3170  0.1572
22707SOL     OW72967   9.643   3.153   0.297  0.0034  0.3220  0.0398
22707SOL    HW172968   9.708   3.144   0.227  0.3720  0.8598  0.3102
22707SOL    HW272969   9.694   3.177   0.374 -0.5553  1.1296  0.1677
22708SOL     OW72970   7.734   0.495   1.905 -0.1596  0.6016 -0.2519
22708SOL    HW172971   7.818   0.520   1.865  0.5790 -1.6000 -0.2373
22708SOL    HW272972   7.759   0.450   1.986 -1.2833 -0.8684 -0.6869
22709SOL     OW72973   8.571   1.373   8.182  0.4197 -0.2369  1.0038
22709SOL    HW172974   8.589   1.400   8.092 -1.0964  1.4181  1.1392
22709SOL    HW272975   8.617   1.438   8.236  2.1769 -1.8069  1.4940
22710SOL     OW72976   6.788   9.610   1.025  0.3555 -0.5496 -0.0990
22710SOL    HW172977   6.754   9.578   1.109  0.4488 -1.6320 -0.4590
22710SOL    HW272978   6.787   9.705   1.034 -1.3790 -0.5820  0.4492
22711SOL     OW72979   6.955   1.366   0.542  0.0411 -0.1420  0.2646
22711SOL    HW172980   7.014   1.339   0.472 -1.5486 -0.1019 -1.1385
22711SOL    HW272981   6.975   1.305   0.614  2.7713  0.7973  0.4153
22712SOL     OW72982   7.556   0.366   0.931 -0.0881 -0.2894  0.5181
22712SOL    HW172983   7.562   0.303   1.003  0.7304 -0.2363  0.5008
22712SOL    HW272984   7.642   0.407   0.928 -1.1165  2.1661  1.7267
22713SOL     OW72985   8.938   8.291   1.239  0.8807 -0.0150  0.1592
22713SOL    HW172986   8.981   8.209   1.216  2.0622  0.6368 -0.0690
22713SOL    HW272987   8.913   8.330   1.155  1.3227  0.3640  0.1970
22714SOL     OW72988   8.353   2.399   0.492  0.1451 -0.3210 -0.1015
22714SOL    HW172989   8.430   2.399   0.436 -0.0810  0.5074 -0.4294
22714SOL    HW272990   8.349   2.487   0.528 -2.1750  0.6038 -2.2809
22715SOL     OW72991   7.991   3.900   2.086  0.0338  0.0313  0.4956
22715SOL    HW172992   8.044   3.944   2.153  0.8961  0.2348 -0.3050
22715SOL    HW272993   8.040   3.821   2.066 -1.1601 -0.9880  1.4212
22716SOL     OW72994   8.256   9.823   1.203  0.1009 -0.4443 -0.0490
22716SOL    HW172995   8.172   9.810   1.246 -0.4314  0.1307 -0.8739
22716SOL    HW272996   8.243   9.901   1.148  0.6751 -1.2695 -1.3973
22717SOL     OW72997   9.464   8.909   0.999 -0.6164 -0.5740  0.2803
22717SOL    HW172998   9.478   8.998   1.030 -0.9268 -0.5646  0.3896
22717SOL    HW272999   9.549   8.883   0.963 -1.1462  0.7157 -2.1558
22718SOL     OW73000   0.557   2.567   0.201 -0.2596 -0.1960 -0.1839
22718SOL    HW173001   0.605   2.545   0.281 -0.7111 -1.5144 -0.2598
22718SOL    HW273002   0.466   2.577   0.229 -0.5366 -1.3461 -0.6260
22719SOL     OW73003   8.136   9.095   8.076 -0.2417 -0.0176  0.1506
22719SOL    HW173004   8.182   9.176   8.052 -0.1296  0.0912  0.7152
22719SOL    HW273005   8.044   9.112   8.055  0.1514 -0.9019 -2.7759
22720SOL     OW73006   5.903   9.279   0.834 -0.2532 -0.0802  0.1161
22720SOL    HW173007   5.851   9.314   0.761 -0.2834  0.8798  0.5740
22720SOL    HW273008   5.877   9.332   0.909  1.0086  0.0720  0.4722
22721SOL     OW73009   7.968   2.489   0.511  0.0064 -0.0055 -0.3876
22721SOL    HW173010   7.965   2.495   0.415 -2.5472 -2.8066 -0.6240
22721SOL    HW273011   7.975   2.580   0.540 -0.7189  1.0638 -3.2127
22722SOL     OW73012   7.377   8.254   9.770  0.4606  0.4331  0.4826
22722SOL    HW173013   7.357   8.272   9.862  1.4202  0.0811  0.7703
22722SOL    HW273014   7.471   8.269   9.762  1.1169 -2.8205  0.4095
22723SOL     OW73015   9.420   0.235   1.834 -0.5346 -0.1986  0.0886
22723SOL    HW173016   9.436   0.227   1.740  0.1755 -2.2141  0.3292
22723SOL    HW273017   9.499   0.276   1.869 -0.3981 -0.3189 -0.0782
22724SOL     OW73018   7.441   9.001   9.642  0.1816 -0.4909 -0.0220
22724SOL    HW173019   7.466   9.003   9.735  1.6272 -0.4957 -0.3733
22724SOL    HW273020   7.456   9.091   9.612 -0.0936 -0.5356 -0.2860
22725SOL     OW73021   9.425   3.257   0.765  0.1751  0.4484 -0.3671
22725SOL    HW173022   9.488   3.189   0.791  0.0751  0.8638  1.0520
22725SOL    HW273023   9.479   3.336   0.753  0.1499  0.3825 -0.9817
22726SOL     OW73024   6.836   2.841   1.086 -0.6566  0.1370 -0.7567
22726SOL    HW173025   6.827   2.933   1.110  0.2514 -0.5472  2.8221
22726SOL    HW273026   6.746   2.811   1.071 -1.0738  1.3350 -0.7098
22727SOL     OW73027   9.254   3.017   1.846 -0.4916  0.0681  0.3323
22727SOL    HW173028   9.208   3.101   1.845 -2.3043 -0.7940  2.7103
22727SOL    HW273029   9.242   2.983   1.757 -1.9772  1.1808  0.0596
22728SOL     OW73030   7.425   8.825   8.759  0.1801 -0.0279  0.2023
22728SOL    HW173031   7.510   8.826   8.804  1.8794 -0.7780 -2.7652
22728SOL    HW273032   7.405   8.732   8.746 -0.9259  0.1500  0.4741
22729SOL     OW73033   7.832   2.282   0.922  0.1510  0.3621 -0.0153
22729SOL    HW173034   7.850   2.189   0.935  1.1811  0.9119  3.2309
22729SOL    HW273035   7.918   2.322   0.910 -0.2388  1.0271 -0.7005
22730SOL     OW73036   0.845   3.994   3.524  0.0371  0.1480  0.0586
22730SOL    HW173037   0.861   3.948   3.606 -2.8048 -0.2090  0.5240
22730SOL    HW273038   0.844   3.926   3.457 -0.6132  0.0083  0.2046
22731SOL     OW73039   7.251   1.158   2.317  0.0926 -0.1587 -0.4713
22731SOL    HW173040   7.312   1.088   2.291  0.9637  0.7393 -0.9025
22731SOL    HW273041   7.210   1.185   2.234  0.8619  0.8475 -0.5400
22732SOL     OW73042   6.786   2.470   1.408  0.3377  0.1158 -0.2659
22732SOL    HW173043   6.753   2.540   1.352 -0.1474 -0.5898 -0.8914
22732SOL    HW273044   6.856   2.510   1.459 -1.0233  1.4859  0.6001
22733SOL     OW73045   5.648   2.590   8.653  0.1224 -0.8906  0.1020
22733SOL    HW173046   5.612   2.591   8.742 -0.4475 -0.8008 -0.1210
22733SOL    HW273047   5.576   2.621   8.598  1.1384  1.2387 -0.1415
22734SOL     OW73048   7.600   0.389   0.087 -0.5028 -0.0125 -0.3319
22734SOL    HW173049   7.667   0.369   0.153 -0.1850  2.5918  0.2416
22734SOL    HW273050   7.517   0.389   0.136 -0.9832 -2.9368 -0.9831
22735SOL     OW73051   9.774   0.269   0.468 -0.0345  0.2144 -0.1097
22735SOL    HW173052   9.858   0.275   0.423  2.2782 -2.3588  3.3021
22735SOL    HW273053   9.771   0.346   0.525 -0.6688  0.9505 -1.0991
22736SOL     OW73054   7.314   0.417   0.183  0.4714 -0.2519 -0.0395
22736SOL    HW173055   7.231   0.452   0.152 -0.3067 -1.2394  0.8552
22736SOL    HW273056   7.339   0.353   0.117  0.8745  0.5013 -0.6403
22737SOL     OW73057   7.293   9.609   0.734 -1.4385  0.4435  0.2819
22737SOL    HW173058   7.268   9.539   0.674  2.6851 -0.9160 -0.1454
22737SOL    HW273059   7.336   9.674   0.678  2.2214 -0.7017  1.5147
22738SOL     OW73060   6.537   2.621   3.028  0.0678  0.1312  0.2780
22738SOL    HW173061   6.483   2.688   2.986 -0.0585 -0.9107 -1.2837
22738SOL    HW273062   6.626   2.640   3.000 -0.2351 -1.7951 -2.3506
22739SOL     OW73063   0.603   1.687   0.364  0.7020  0.6592  0.6128
22739SOL    HW173064   0.610   1.741   0.442 -1.6933  0.7931  0.8101
22739SOL    HW273065   0.509   1.670   0.354  0.6965  1.8630 -3.0420
22740SOL     OW73066   9.499   0.195   1.218  0.0524  0.2617  0.2009
22740SOL    HW173067   9.590   0.217   1.240 -0.0387  0.9780 -0.1229
22740SOL    HW273068   9.446   0.249   1.278 -0.1618  0.0445  0.2073
22741SOL     OW73069   8.648   9.781   1.059 -0.1979 -0.0743  0.0847
22741SOL    HW173070   8.663   9.841   0.987  2.3531 -1.2355 -0.4494
22741SOL    HW273071   8.560   9.747   1.044 -1.1249  2.3193 -0.4197
22742SOL     OW73072   6.905   1.698   1.119  0.1738  0.2519  0.0121
22742SOL    HW173073   6.886   1.631   1.053  1.1328 -1.2834  1.2275
22742SOL    HW273074   6.819   1.732   1.145 -0.2844  0.0100 -1.1130
22743SOL     OW73075   7.343   8.736   9.113  0.0220 -0.0228  0.0612
22743SOL    HW173076   7.252   8.762   9.099  0.3260  2.3453  1.8734
22743SOL    HW273077   7.348   8.715   9.207  1.4592  0.5387  0.1350
22744SOL     OW73078   7.909   0.393   3.511 -0.6248  0.0604 -0.3418
22744SOL    HW173079   7.994   0.361   3.544 -0.0676  1.6860 -0.1122
22744SOL    HW273080   7.875   0.320   3.459  0.9464 -0.6048 -0.5009
22745SOL     OW73081   6.647   2.120   9.324 -0.0841  0.0044 -0.3666
22745SOL    HW173082   6.741   2.110   9.336 -0.0611  0.6808  0.1654
22745SOL    HW273083   6.631   2.213   9.343 -0.7385  0.0850 -1.2794
22746SOL     OW73084   9.001   9.735   9.390 -0.7482  0.2850 -0.1003
22746SOL    HW173085   9.089   9.773   9.383 -0.7173  0.2406  0.0495
22746SOL    HW273086   8.994   9.678   9.313 -0.1957 -0.6339  0.5077
22747SOL     OW73087   7.941   0.937   1.962  0.1445 -0.4449 -0.1796
22747SOL    HW173088   7.970   0.889   2.039 -1.6102 -1.3650 -0.0220
22747SOL    HW273089   8.006   1.006   1.950  0.3878 -0.1628  2.2284
22748SOL     OW73090   8.117   0.495   0.992  0.2259  0.9674  0.0229
22748SOL    HW173091   8.197   0.466   1.036  1.6361  1.5782 -2.0066
22748SOL    HW273092   8.087   0.570   1.044  0.3704  0.1238  1.3806
22749SOL     OW73093   7.132   8.498   9.194 -0.0617 -0.8015 -0.2811
22749SOL    HW173094   7.222   8.504   9.162  0.6704 -0.7527  1.6532
22749SOL    HW273095   7.139   8.451   9.277 -1.9934 -1.8837 -0.6749
22750SOL     OW73096   1.329   0.383   0.585  0.2956 -0.7269 -0.1162
22750SOL    HW173097   1.367   0.470   0.590 -0.3852 -0.4324  0.0025
22750SOL    HW273098   1.380   0.331   0.647  2.9742 -1.3124 -2.5747
22751SOL     OW73099   0.377   1.301   0.363  0.0643 -0.3457  0.0742
22751SOL    HW173100   0.392   1.285   0.270  2.7592  0.5539  0.2889
22751SOL    HW273101   0.299   1.356   0.366 -0.1039 -0.4537 -1.6257
22752SOL     OW73102   0.316   2.415   2.285 -0.0498 -0.0747 -0.4614
22752SOL    HW173103   0.295   2.508   2.286  2.3177  0.5279 -0.6868
22752SOL    HW273104   0.327   2.394   2.192 -2.7019 -1.1674 -0.5920
22753SOL     OW73105   8.825   8.504   9.367  0.0426 -0.2015  0.4272
22753SOL    HW173106   8.852   8.596   9.370  0.6580 -0.4048  1.3465
22753SOL    HW273107   8.735   8.507   9.333 -0.1762  0.8016  1.0473
22754SOL     OW73108   0.079   9.855   9.217 -0.0233 -0.4004 -0.6858
22754SOL    HW173109   0.172   9.831   9.213 -0.1472 -0.8549 -0.9663
22754SOL    HW273110   0.077   9.935   9.269  0.4756 -0.6634 -0.2482
22755SOL     OW73111   1.171   1.396   8.757 -0.2720  0.2506 -0.4846
22755SOL    HW173112   1.239   1.462   8.772 -0.7999  0.5008  1.0005
22755SOL    HW273113   1.139   1.413   8.669 -0.6953  2.2664  0.0106
22756SOL     OW73114   9.553   1.220   1.472 -0.6774 -0.3263  0.0924
22756SOL    HW173115   9.493   1.147   1.481  0.4344 -1.2764  0.0648
22756SOL    HW273116   9.640   1.182   1.489  0.2937  0.3077 -2.9097
22757SOL     OW73117   9.021   1.958   0.829 -0.8168  0.3326  0.8416
22757SOL    HW173118   9.110   1.990   0.846  0.7310 -3.1870  0.1958
22757SOL    HW273119   8.993   2.006   0.751  1.6693 -0.3794 -0.5910
22758SOL     OW73120   8.213   0.157   1.047 -0.2292  0.6715 -0.1819
22758SOL    HW173121   8.272   0.148   0.972 -0.4289  0.9726 -0.3763
22758SOL    HW273122   8.251   0.229   1.098 -0.7357  1.2491 -0.6011
22759SOL     OW73123   6.663   1.856   1.042  0.5551  0.0159 -0.4217
22759SOL    HW173124   6.678   1.884   0.951 -1.1088  1.2310 -0.3802
22759SOL    HW273125   6.698   1.928   1.095  0.5879 -0.2126 -0.1339
22760SOL     OW73126   8.538   0.760   0.949 -0.5539 -0.0053 -0.6366
22760SOL    HW173127   8.613   0.754   0.890 -0.7447  1.2093 -1.0232
22760SOL    HW273128   8.492   0.677   0.938  0.9561 -0.9564 -0.0645
22761SOL     OW73129   7.371   9.244   0.736 -0.3189  0.1380 -0.3653
22761SOL    HW173130   7.439   9.297   0.695 -0.9087  0.2735 -1.1941
22761SOL    HW273131   7.405   9.225   0.824  1.6551 -1.4182 -1.3772
22762SOL     OW73132   0.761   9.566   0.251  0.6603  0.2375 -0.6075
22762SOL    HW173133   0.685   9.508   0.246  0.9516 -0.3423  0.9551
22762SOL    HW273134   0.743   9.623   0.326  1.7045  0.1457 -0.2671
22763SOL     OW73135   8.460   0.905   0.384  0.0699  0.4271 -0.0570
22763SOL    HW173136   8.483   0.813   0.373  0.8648  0.2427  2.5049
22763SOL    HW273137   8.445   0.937   0.295  0.6097 -1.9492 -1.0705
22764SOL     OW73138   6.507   0.712   0.659 -0.1923  0.2901 -0.1367
22764SOL    HW173139   6.500   0.680   0.749 -0.6393 -1.3682 -0.7286
22764SOL    HW273140   6.544   0.800   0.668 -0.7835  0.3968  1.6967
22765SOL     OW73141   8.943   9.520   1.761 -0.5916 -0.3722 -0.3227
22765SOL    HW173142   9.027   9.556   1.791 -0.1696 -1.6163  0.0469
22765SOL    HW273143   8.881   9.592   1.771  0.4157  0.5503 -0.5351
22766SOL     OW73144   7.719   1.659   0.838  0.0318  0.6314  0.4429
22766SOL    HW173145   7.728   1.752   0.856 -0.4568  0.5486  1.1657
22766SOL    HW273146   7.739   1.616   0.922 -2.2630  0.2251  0.8671
22767SOL     OW73147   9.066   1.995   1.678 -0.2633 -0.8914 -0.0408
22767SOL    HW173148   8.977   2.028   1.663 -0.0517 -0.1425  0.2802
22767SOL    HW273149   9.065   1.962   1.767 -0.2055 -0.8430 -0.0223
22768SOL     OW73150   8.774   1.770   0.754  0.1738  0.5950 -0.1230
22768SOL    HW173151   8.682   1.747   0.761 -0.0660  0.8146 -1.9606
22768SOL    HW273152   8.775   1.849   0.700  1.5427 -0.9695 -2.6100
22769SOL     OW73153   0.509   1.748   0.638 -0.6912  0.0362 -0.2908
22769SOL    HW173154   0.477   1.658   0.645 -0.8695  0.0456 -0.9480
22769SOL    HW273155   0.440   1.795   0.591 -0.5933  0.5195  0.0345
22770SOL     OW73156   8.746   0.292   1.378  0.1078  0.4810  0.2288
22770SOL    HW173157   8.758   0.244   1.297  0.9149  0.0877  0.5711
22770SOL    HW273158   8.651   0.293   1.392  0.0702 -1.1420  0.2779
22771SOL     OW73159   6.945   8.559   3.190  0.0587  0.5441  0.3071
22771SOL    HW173160   7.036   8.548   3.161  0.1225 -0.8536  0.9214
22771SOL    HW273161   6.895   8.568   3.110  0.3190 -2.4317 -0.3062
22772SOL     OW73162   6.739   1.378   4.271 -0.4322 -0.3884  0.0909
22772SOL    HW173163   6.696   1.322   4.206 -0.6594 -1.1844  0.9086
22772SOL    HW273164   6.831   1.380   4.245 -0.1590 -2.2566  0.8031
22773SOL     OW73165   9.399   2.403   1.713  0.3645 -0.1862  0.7105
22773SOL    HW173166   9.374   2.311   1.702 -0.3766  0.1418 -0.5839
22773SOL    HW273167   9.421   2.432   1.625 -0.3563  1.1273  0.9381
22774SOL     OW73168   7.805   0.623   9.574  0.6083  0.4753  0.0047
22774SOL    HW173169   7.795   0.709   9.534 -0.3395  1.2410  1.7838
22774SOL    HW273170   7.756   0.564   9.516 -0.1876  1.4269 -0.3171
22775SOL     OW73171   7.671   9.096   2.521 -0.1934  0.1965  0.8223
22775SOL    HW173172   7.742   9.094   2.585  1.1472  0.1198 -0.6153
22775SOL    HW273173   7.676   9.011   2.477  0.5081  1.1246 -1.0153
22776SOL     OW73174   8.620   1.566   8.678 -0.0534 -0.1344  0.1745
22776SOL    HW173175   8.631   1.491   8.619  0.5476 -0.8212  1.1123
22776SOL    HW273176   8.590   1.637   8.622  0.1848 -0.8500 -0.8936
22777SOL     OW73177   7.620   2.390   1.647  0.0852 -0.2767 -0.4752
22777SOL    HW173178   7.549   2.414   1.707  1.8577  1.2115  1.1514
22777SOL    HW273179   7.672   2.326   1.695  1.9389  1.4685 -0.0369
22778SOL     OW73180   8.300   0.067   3.150  0.0996  0.0210 -0.4026
22778SOL    HW173181   8.229   0.117   3.190 -0.7802 -0.6555 -1.0674
22778SOL    HW273182   8.355   0.040   3.223 -0.9135 -0.3383  0.2391
22779SOL     OW73183   6.593   1.525   2.153  0.0211  0.2497  0.0415
22779SOL    HW173184   6.572   1.505   2.062 -1.9525 -3.9906  1.1800
22779SOL    HW273185   6.685   1.499   2.163  0.6267  1.8904 -0.9264
22780SOL     OW73186   8.201   0.117   0.425 -0.2841 -0.0629  0.0200
22780SOL    HW173187   8.212   0.022   0.435  0.2611 -0.1874 -1.4047
22780SOL    HW273188   8.177   0.128   0.333  1.7380  1.3005 -0.4243
22781SOL     OW73189   5.359   8.762   4.457 -0.7751 -0.4226 -0.4864
22781SOL    HW173190   5.326   8.700   4.522 -1.5183  0.9464  0.5047
22781SOL    HW273191   5.280   8.792   4.411 -0.5688  0.6050 -0.1903
22782SOL     OW73192   8.254   9.216   0.007 -0.0088  0.4319  0.0050
22782SOL    HW173193   8.164   9.216   0.039 -0.2393  0.0374 -0.6251
22782SOL    HW273194   8.294   9.294   0.046 -0.0711 -0.3735  1.7986
22783SOL     OW73195   9.514   0.333   0.419 -0.3946  0.3371  0.0140
22783SOL    HW173196   9.450   0.265   0.399  0.3972 -0.6354  0.7167
22783SOL    HW273197   9.597   0.286   0.428  0.4581  1.5730 -0.9509
22784SOL     OW73198   8.946   3.145   2.635 -0.2502 -0.1648 -0.1018
22784SOL    HW173199   8.992   3.130   2.718 -1.3596 -1.7161  0.2897
22784SOL    HW273200   8.993   3.091   2.572 -0.3460 -0.2253 -0.1225
22785SOL     OW73201   8.413   3.499   2.737  0.2731  0.1060 -0.6645
22785SOL    HW173202   8.460   3.425   2.776  1.0862  0.2341 -1.3599
22785SOL    HW273203   8.399   3.560   2.809  0.9629 -0.0529 -0.3883
22786SOL     OW73204   9.586   1.151   1.753 -0.1754  0.5842  0.1350
22786SOL    HW173205   9.522   1.098   1.800  0.0858 -1.0897 -1.2637
22786SOL    HW273206   9.543   1.235   1.739 -1.0517  0.3752  1.4418
22787SOL     OW73207   8.659   0.664   0.415  0.1337 -0.2627 -0.0936
22787SOL    HW173208   8.698   0.640   0.331  0.7723 -0.0440  0.1323
22787SOL    HW273209   8.731   0.655   0.478 -0.0350  0.6675  0.2464
22788SOL     OW73210   0.927   1.421   0.859  0.2507  0.4027  0.1370
22788SOL    HW173211   0.909   1.333   0.892 -2.2211  0.9756  0.5634
22788SOL    HW273212   0.844   1.448   0.820  0.5791  2.9549  1.0458
22789SOL     OW73213   8.312   0.019   0.822 -0.2907 -0.1373  0.4864
22789SOL    HW173214   8.374   0.041   0.753  0.5158  0.4542  1.3626
22789SOL    HW273215   8.305  -0.076   0.820 -0.0125 -0.1443 -0.1824
22790SOL     OW73216   8.235   8.904   2.657  0.0139 -0.0772  0.0770
22790SOL    HW173217   8.213   8.988   2.616  1.8753  0.0998 -0.6335
22790SOL    HW273218   8.164   8.845   2.630 -1.4289  1.2703  0.7525
22791SOL     OW73219   7.783   0.526   2.461 -0.1182 -0.3258 -0.6246
22791SOL    HW173220   7.733   0.449   2.434  0.6238 -1.6291  1.5254
22791SOL    HW273221   7.858   0.491   2.508  0.1116  1.7295  0.6508
22792SOL     OW73222   9.701   0.028   9.786  0.2310  0.2959  0.3283
22792SOL    HW173223   9.697   0.001   9.695  0.9314 -1.8533  0.8867
22792SOL    HW273224   9.787   0.070   9.795  0.2496  0.3144  0.0686
22793SOL     OW73225   6.725   3.183   2.024 -0.1866 -0.2099  0.3099
22793SOL    HW173226   6.821   3.182   2.032 -0.0383 -0.0387 -1.1068
22793SOL    HW273227   6.693   3.170   2.113  1.1549  0.4174  0.9121
22794SOL     OW73228   7.935   1.485   0.455 -0.6897 -0.9158  0.0929
22794SOL    HW173229   8.015   1.523   0.491 -1.3216 -0.9538  1.5691
22794SOL    HW273230   7.959   1.395   0.433  0.2406 -0.3245 -1.4972
22795SOL     OW73231   7.086   0.334   1.369 -0.2290  0.5377  0.4093
22795SOL    HW173232   7.181   0.330   1.367 -0.2454 -0.1255  0.6281
22795SOL    HW273233   7.065   0.424   1.344  0.4248  0.4240 -0.6390
22796SOL     OW73234   6.587   8.642   2.012  0.2708  0.0913  0.6928
22796SOL    HW173235   6.663   8.701   2.011  1.2867 -1.0769 -2.1668
22796SOL    HW273236   6.514   8.697   2.041  1.3525  2.5577 -0.9025
22797SOL     OW73237   9.525   1.572   1.087 -0.1841  0.4231  0.3118
22797SOL    HW173238   9.554   1.484   1.112 -0.2976  0.4244  0.4475
22797SOL    HW273239   9.431   1.572   1.104 -0.2714  0.4098 -0.1557
22798SOL     OW73240   8.191   1.035   0.475  0.2161 -0.2021  0.3914
22798SOL    HW173241   8.132   0.983   0.529  0.3518  1.0339  1.7933
22798SOL    HW273242   8.261   0.974   0.449 -1.1610 -1.4490 -0.5531
22799SOL     OW73243   7.397   0.849   1.011 -0.3120  0.1983 -0.0330
22799SOL    HW173244   7.408   0.821   1.101  1.0155 -3.0670 -1.0607
22799SOL    HW273245   7.476   0.900   0.992  0.4008 -0.8115  0.1302
22800SOL     OW73246   8.049   0.807   0.883 -0.7860 -0.1414  0.4921
22800SOL    HW173247   8.130   0.807   0.832 -0.1353 -3.0386  1.3254
22800SOL    HW273248   7.996   0.738   0.842 -2.4309  1.0314  0.5835
22801SOL     OW73249   7.469   0.018   2.350  0.3979 -0.1742 -0.0189
22801SOL    HW173250   7.416  -0.056   2.379 -0.3162  1.1983  2.4487
22801SOL    HW273251   7.527   0.037   2.423 -0.1897  2.3336 -0.0948
22802SOL     OW73252   7.215   0.140   0.680 -0.2856 -0.1307  0.2029
22802SOL    HW173253   7.225   0.112   0.589  0.2337  1.1235 -0.1446
22802SOL    HW273254   7.303   0.139   0.716 -0.5918 -1.5088  0.9921
22803SOL     OW73255   7.771   1.427   9.370 -0.7492  0.2264 -0.6210
22803SOL    HW173256   7.803   1.339   9.348 -1.5961 -0.2675  0.0115
22803SOL    HW273257   7.717   1.452   9.295 -1.8298 -0.5060 -0.1149
22804SOL     OW73258   0.550   1.749   9.698 -0.3552 -0.2739 -0.9235
22804SOL    HW173259   0.499   1.711   9.770 -0.8552 -2.0111 -2.1450
22804SOL    HW273260   0.496   1.735   9.621 -0.5704  2.9633 -1.5155
22805SOL     OW73261   6.417   0.964   3.202 -0.3503 -0.8498  0.2741
22805SOL    HW173262   6.399   1.030   3.134  2.9301 -0.8390 -0.7729
22805SOL    HW273263   6.369   0.886   3.173 -2.2423  0.2932  0.1663
22806SOL     OW73264   5.553   2.606   8.911  0.5965 -0.6929 -0.1794
22806SOL    HW173265   5.505   2.563   8.982 -1.6326  3.1870  1.0067
22806SOL    HW273266   5.635   2.635   8.952  0.1782 -0.1483  0.2940
22807SOL     OW73267   0.971   3.366   1.433  0.4101 -0.3701  0.4209
22807SOL    HW173268   0.910   3.440   1.438  0.4459 -0.3069  0.0130
22807SOL    HW273269   1.052   3.405   1.400  0.6298 -0.4766  0.8371
22808SOL     OW73270   1.296   0.124   9.356 -0.1469 -0.5729  0.3172
22808SOL    HW173271   1.363   0.055   9.357  0.5857  0.1352  0.9561
22808SOL    HW273272   1.326   0.187   9.421 -0.3215  0.8043 -0.8853
22809SOL     OW73273   6.352   1.536   1.347  0.4944  0.0061  0.2464
22809SOL    HW173274   6.439   1.574   1.357  1.1124 -1.6531  1.6916
22809SOL    HW273275   6.350   1.504   1.257  1.0958  0.7197 -0.0292
22810SOL     OW73276   7.376   1.607   1.072 -0.4607 -0.1840 -0.3824
22810SOL    HW173277   7.427   1.549   1.127  0.1277  0.0169 -0.7089
22810SOL    HW273278   7.288   1.605   1.110  0.4320  1.7973  2.0406
22811SOL     OW73279   7.997   1.220   0.397 -0.7562 -0.4490 -0.0768
22811SOL    HW173280   8.071   1.168   0.429 -0.5583  0.1437  0.4457
22811SOL    HW273281   7.984   1.190   0.307  2.1605  1.5868 -1.3475
22812SOL     OW73282   7.538   1.974   0.537  0.0497  1.0037 -0.2789
22812SOL    HW173283   7.488   2.013   0.466 -1.0402 -0.4151 -0.3289
22812SOL    HW273284   7.618   1.942   0.495  0.3051  1.8869 -0.4894
22813SOL     OW73285   7.948   3.526   0.794  0.0377 -0.2196 -0.8720
22813SOL    HW173286   8.015   3.459   0.783  0.0569 -0.3342 -0.0943
22813SOL    HW273287   7.969   3.568   0.877 -0.2242  0.4688 -1.1452
22814SOL     OW73288   8.363   1.751   2.555  0.3689 -0.1513  0.0011
22814SOL    HW173289   8.431   1.818   2.557 -0.5976  1.0586 -2.7033
22814SOL    HW273290   8.281   1.800   2.562 -0.3006 -1.2568  0.1088
22815SOL     OW73291   8.483   9.590   1.637  0.1510  0.5700 -0.1041
22815SOL    HW173292   8.508   9.610   1.728 -1.8303 -0.2831  0.6830
22815SOL    HW273293   8.466   9.676   1.599 -2.2335  0.8546  1.3861
22816SOL     OW73294   7.925   9.394   0.934 -0.0861 -0.6684  0.2453
22816SOL    HW173295   7.889   9.356   1.014  1.2708 -0.4133  0.9988
22816SOL    HW273296   7.980   9.467   0.963 -1.0039  0.6011 -1.0433
22817SOL     OW73297   8.486   1.353   9.654 -0.1053 -0.1430 -0.3448
22817SOL    HW173298   8.394   1.333   9.673  0.0294 -1.6216 -1.1722
22817SOL    HW273299   8.522   1.379   9.738 -0.6851 -1.9579  0.5072
22818SOL     OW73300   6.693   2.093   1.515 -0.1074 -0.0290 -0.3503
22818SOL    HW173301   6.707   1.998   1.518  0.5280  0.0971  1.1979
22818SOL    HW273302   6.610   2.103   1.468 -1.5149 -1.4984  1.6782
22819SOL     OW73303   8.685   1.567   8.348  0.2364 -0.5720 -0.1465
22819SOL    HW173304   8.648   1.646   8.387 -0.5096  0.4380 -2.6661
22819SOL    HW273305   8.779   1.572   8.367  0.1759  0.8676 -0.1347
22820SOL     OW73306   8.918   2.101   8.799 -0.3888 -0.1721 -0.2208
22820SOL    HW173307   8.919   2.185   8.844 -1.1323 -0.2220 -0.0870
22820SOL    HW273308   9.009   2.084   8.776 -0.1794  0.4701  0.1202
22821SOL     OW73309   7.788   9.813   1.826  0.3009  0.1401 -0.1763
22821SOL    HW173310   7.729   9.746   1.792  0.5073  0.5023 -1.2687
22821SOL    HW273311   7.818   9.861   1.749 -0.2848  1.8634  0.6145
22822SOL     OW73312   8.245   1.113   1.343  0.2200 -0.2190  0.0295
22822SOL    HW173313   8.264   1.162   1.262  1.8845  0.0161  0.5408
22822SOL    HW273314   8.300   1.154   1.409 -1.7136  0.1351  1.5277
22823SOL     OW73315   8.408   2.045   1.960 -0.0258  0.6444 -0.1270
22823SOL    HW173316   8.415   2.124   2.014 -0.0696 -0.1353  1.0497
22823SOL    HW273317   8.498   2.023   1.938  0.1426 -0.0996  1.2338
22824SOL     OW73318   7.806   0.364   9.633  0.3094 -0.2817 -0.4112
22824SOL    HW173319   7.713   0.358   9.656  0.3278 -0.3551 -0.3543
22824SOL    HW273320   7.826   0.457   9.638 -0.3172  0.0291 -2.6341
22825SOL     OW73321   7.611   0.990   0.831 -0.4116  0.7277  0.0584
22825SOL    HW173322   7.629   0.900   0.805  0.6692 -0.2586  3.6655
22825SOL    HW273323   7.697   1.027   0.851 -1.0854  1.3305  2.0797
22826SOL     OW73324   0.821   8.463   2.157 -0.1028 -0.3457  0.0279
22826SOL    HW173325   0.747   8.493   2.210  0.7611  2.1882 -0.0407
22826SOL    HW273326   0.824   8.525   2.084  2.2386 -0.1474  0.2123
22827SOL     OW73327   8.013   1.495   1.189  0.3682 -0.2354  0.3680
22827SOL    HW173328   8.045   1.435   1.256  2.0813  1.6137  1.3300
22827SOL    HW273329   8.076   1.485   1.117  0.0478 -0.3496  0.1052
22828SOL     OW73330   6.937   0.478   1.708  0.1701 -0.1744 -0.0033
22828SOL    HW173331   6.937   0.459   1.802  3.7045  0.6540  0.3177
22828SOL    HW273332   6.874   0.550   1.699 -1.1003 -1.0300  1.4964
22829SOL     OW73333   8.337   1.167   1.613  0.8592  0.0951  0.0853
22829SOL    HW173334   8.379   1.246   1.578  1.4473 -0.1763  0.1559
22829SOL    HW273335   8.369   1.160   1.703  2.1431 -1.1008 -0.4094
22830SOL     OW73336   7.419   0.386   0.683  0.8373 -0.0647 -0.2510
22830SOL    HW173337   7.362   0.454   0.648  1.4177  0.1994 -0.7078
22830SOL    HW273338   7.456   0.424   0.763 -1.7836 -1.2849  1.6891
22831SOL     OW73339   0.618   1.588   0.084 -0.2437 -0.5455  0.0178
22831SOL    HW173340   0.675   1.515   0.108  0.2400 -0.1279  0.1538
22831SOL    HW273341   0.628   1.651   0.155 -0.1701 -0.0734 -0.4064
22832SOL     OW73342   6.985   0.716   9.255  0.0344 -0.3069  0.0376
22832SOL    HW173343   7.013   0.625   9.255  1.6419  0.1439  1.1207
22832SOL    HW273344   6.900   0.715   9.298  0.3076 -1.2397  0.5993
22833SOL     OW73345   7.328   8.495   9.629 -0.3904  0.1755 -0.2824
22833SOL    HW173346   7.301   8.444   9.553 -0.5131  1.1976 -0.9471
22833SOL    HW273347   7.359   8.430   9.692 -1.0217 -0.7464 -0.8959
22834SOL     OW73348   6.945   1.113   1.308 -0.4589 -0.5609 -0.2822
22834SOL    HW173349   6.903   1.042   1.357  0.2723 -0.8273 -0.0209
22834SOL    HW273350   6.998   1.069   1.242 -0.0885 -0.2558 -0.1941
22835SOL     OW73351   7.730   8.025   0.194  0.1287 -0.0527 -0.4608
22835SOL    HW173352   7.797   8.075   0.241 -0.6029  0.0392  0.4995
22835SOL    HW273353   7.749   7.934   0.214  0.6541 -0.1006 -1.1316
22836SOL     OW73354   1.269   1.813   1.104 -0.3693  0.1223 -0.1309
22836SOL    HW173355   1.253   1.739   1.164 -2.1907  0.6778  0.1207
22836SOL    HW273356   1.273   1.772   1.018  0.7287 -0.5079  0.2019
22837SOL     OW73357   7.085   3.243   2.724 -0.3472 -0.3388 -0.5765
22837SOL    HW173358   7.174   3.246   2.760 -0.0687  0.2783 -1.2964
22837SOL    HW273359   7.037   3.310   2.773 -0.2805 -0.3153 -0.5436
22838SOL     OW73360   0.343   0.737   9.771 -0.0683 -0.1045 -0.2780
22838SOL    HW173361   0.305   0.658   9.809  1.3697 -0.9397 -0.5232
22838SOL    HW273362   0.416   0.706   9.718  2.6858  1.5515  2.2415
22839SOL     OW73363   5.560   0.603   0.862  0.7931  0.3095  0.5063
22839SOL    HW173364   5.491   0.608   0.796  0.7723  2.2352  0.6139
22839SOL    HW273365   5.627   0.547   0.823 -0.2077 -0.4511 -0.1747
22840SOL     OW73366   9.550   9.371   2.971 -0.1746  0.1051  0.3595
22840SOL    HW173367   9.545   9.353   3.065  0.9735 -1.5319  0.1464
22840SOL    HW273368   9.532   9.287   2.929  1.9578  0.1749 -0.8057
22841SOL     OW73369   9.301   1.818   0.592 -0.0595 -0.3582  0.0438
22841SOL    HW173370   9.303   1.817   0.688  0.9184 -1.0850  0.0345
22841SOL    HW273371   9.242   1.746   0.570 -1.5584  0.8102  0.0895
22842SOL     OW73372   8.254   1.804   1.240 -0.4600 -0.0521 -0.2318
22842SOL    HW173373   8.218   1.754   1.166  1.0835 -0.4626 -0.7475
22842SOL    HW273374   8.180   1.813   1.301 -0.9257 -2.6166 -0.2982
22843SOL     OW73375   1.338   1.110   9.623  0.2713  0.5204  0.2348
22843SOL    HW173376   1.395   1.178   9.659 -0.8616  1.2475  0.6847
22843SOL    HW273377   1.259   1.156   9.595 -0.5013 -0.5961  0.5139
22844SOL     OW73378   9.376   0.875   9.137  0.0258  0.3914  0.3091
22844SOL    HW173379   9.372   0.886   9.042  2.1619 -0.8314  0.0095
22844SOL    HW273380   9.451   0.927   9.164  1.1814 -1.4885  0.8840
22845SOL     OW73381   8.789   0.123   0.059 -0.0999 -0.1864 -0.3570
22845SOL    HW173382   8.882   0.125   0.036  0.1894  0.0999  0.7343
22845SOL    HW273383   8.744   0.104  -0.023  0.8912  0.1000 -0.9884
22846SOL     OW73384   7.749   2.450   0.126 -0.2194  0.0885  0.6739
22846SOL    HW173385   7.772   2.446   0.033 -0.8644  1.2834  0.4464
22846SOL    HW273386   7.833   2.449   0.172  0.1087 -0.3357  0.0795
22847SOL     OW73387   4.049   1.169   4.244  0.1947 -0.3769 -0.4455
22847SOL    HW173388   4.094   1.192   4.326 -2.1494 -1.2309  1.1774
22847SOL    HW273389   4.024   1.252   4.206 -2.0590  0.0616  1.7588
22848SOL     OW73390   6.235   3.410   0.880 -0.2878  0.2106  0.2851
22848SOL    HW173391   6.304   3.473   0.857  1.7149 -1.1346  2.1354
22848SOL    HW273392   6.263   3.328   0.840 -2.5389  0.2499 -1.5647
22849SOL     OW73393   6.112   1.042   1.777  0.4073  0.1936 -0.0792
22849SOL    HW173394   6.106   0.953   1.741 -0.4173  0.0917  0.2906
22849SOL    HW273395   6.095   1.031   1.871  1.3338  0.6118  0.1453
22850SOL     OW73396   9.142   0.516   0.702  0.0640 -0.2005  0.3649
22850SOL    HW173397   9.120   0.603   0.735 -1.3942 -1.4264  2.8654
22850SOL    HW273398   9.230   0.526   0.667 -0.1703  2.3300  0.2755
22851SOL     OW73399   6.898   0.186   8.894  0.5845 -0.1792 -0.2522
22851SOL    HW173400   6.910   0.100   8.934  0.0750  0.8913  2.4189
22851SOL    HW273401   6.804   0.204   8.903  0.9941  1.5217  1.3551
22852SOL     OW73402   8.465   1.532   9.444  0.5045  0.4820 -0.2342
22852SOL    HW173403   8.533   1.598   9.456 -1.3606  2.3316  0.8886
22852SOL    HW273404   8.481   1.468   9.513 -0.8330  2.7676  2.4007
22853SOL     OW73405   7.533   9.505   3.965 -0.2155 -0.5378 -0.1995
22853SOL    HW173406   7.572   9.569   3.906 -0.4537  0.3534  0.5811
22853SOL    HW273407   7.439   9.507   3.944  0.0829 -2.7474 -2.1441
22854SOL     OW73408   6.382   2.547   1.871 -0.3651  0.3856 -0.1980
22854SOL    HW173409   6.450   2.550   1.938 -0.2351  1.3824 -0.3566
22854SOL    HW273410   6.301   2.569   1.918 -0.4627 -0.0628 -0.1518
22855SOL     OW73411   8.532   0.237   1.188  0.2671 -0.3423  0.0964
22855SOL    HW173412   8.486   0.206   1.266  0.2464  0.4837  0.4222
22855SOL    HW273413   8.471   0.301   1.149  1.4020  1.3124  0.9260
22856SOL     OW73414   7.055   2.346   8.364 -0.0621  0.0134 -0.1757
22856SOL    HW173415   7.045   2.259   8.401  1.8754 -1.0546 -1.9078
22856SOL    HW273416   7.036   2.335   8.270  1.4208  1.1290 -0.6565
22857SOL     OW73417   7.817   2.092   2.026  0.1356 -0.4602  0.4835
22857SOL    HW173418   7.875   2.117   1.954 -2.9144  0.6255 -1.8533
22857SOL    HW273419   7.809   2.171   2.079 -1.0868  0.2270 -0.6641
22858SOL     OW73420   8.969   1.396   7.854 -0.5682  0.2648  0.5090
22858SOL    HW173421   8.880   1.390   7.819 -1.3933  3.4219  1.6655
22858SOL    HW273422   8.962   1.358   7.942 -0.7737  0.4853  0.5893
22859SOL     OW73423   7.394   9.843   0.512 -0.3390 -0.2811 -0.0210
22859SOL    HW173424   7.464   9.854   0.577 -0.8454  0.1071  0.4698
22859SOL    HW273425   7.394   9.925   0.463  0.2876 -0.7170 -0.7674
22860SOL     OW73426   8.851   2.029   0.624  0.1544  0.0831 -0.0068
22860SOL    HW173427   8.915   2.019   0.553  0.9210 -3.1262  0.9763
22860SOL    HW273428   8.768   2.006   0.584  0.2494  0.2612 -0.3169
22861SOL     OW73429   7.264   1.034   1.882 -0.8037 -0.0555  0.2514
22861SOL    HW173430   7.338   0.999   1.833 -1.8277 -1.2161 -0.5474
22861SOL    HW273431   7.254   0.974   1.956 -0.2353  0.7906  1.0422
22862SOL     OW73432   7.720   1.653   2.053 -0.4314  0.5677  0.1952
22862SOL    HW173433   7.685   1.648   1.964  0.5062  2.6992 -0.3479
22862SOL    HW273434   7.783   1.581   2.057 -0.7987  0.1766 -0.7072
22863SOL     OW73435   9.261   0.983   3.823 -0.1454  0.3568 -0.1804
22863SOL    HW173436   9.342   0.939   3.798 -0.8054  0.3682 -2.5764
22863SOL    HW273437   9.233   0.937   3.903  0.2355 -2.3248 -1.4563
22864SOL     OW73438   8.433   1.187   0.226 -0.2560 -0.0765  0.4047
22864SOL    HW173439   8.474   1.258   0.178  0.8450  0.0660  1.5002
22864SOL    HW273440   8.343   1.185   0.194 -0.0035  1.0813 -0.4374
22865SOL     OW73441   7.359   1.289   1.408 -0.1302  0.1646  0.1744
22865SOL    HW173442   7.326   1.373   1.377  0.2131  0.1344 -0.2927
22865SOL    HW273443   7.436   1.312   1.462  0.3916  0.1162 -0.5382
22866SOL     OW73444   9.409   2.346   3.242  0.1425  0.5154 -0.3572
22866SOL    HW173445   9.458   2.287   3.300  1.0991  0.7479 -0.8931
22866SOL    HW273446   9.361   2.404   3.301  1.8452  1.3734  0.2547
22867SOL     OW73447   9.443   8.956   2.028  0.0555 -0.0389 -0.0141
22867SOL    HW173448   9.501   9.029   2.049 -0.5469  0.2423  0.7064
22867SOL    HW273449   9.376   8.993   1.971 -0.4970  0.0806  0.7008
22868SOL     OW73450   8.660   8.965   3.349 -0.1875  0.2455  0.6911
22868SOL    HW173451   8.566   8.985   3.348 -0.1996  0.3504 -1.5388
22868SOL    HW273452   8.696   9.014   3.275  1.6697  0.2955  1.5641
22869SOL     OW73453   0.121   1.661   3.522  0.1902  0.3465  0.2340
22869SOL    HW173454   0.127   1.574   3.483 -1.3782  0.9865 -1.5868
22869SOL    HW273455   0.209   1.679   3.556  1.5915 -0.4629 -2.6452
22870SOL     OW73456   1.171   2.370   4.304  0.0744  0.1214  0.2880
22870SOL    HW173457   1.194   2.298   4.246 -1.3937 -0.6975  0.6669
22870SOL    HW273458   1.110   2.424   4.252  1.6456  1.4779 -0.2210
22871SOL     OW73459   7.403   4.513   4.053 -0.2043 -0.1768  0.1731
22871SOL    HW173460   7.383   4.452   4.124 -0.7370 -1.8694 -1.3625
22871SOL    HW273461   7.458   4.462   3.993  0.2571  1.2226 -0.6241
22872SOL     OW73462   5.897   2.372   3.784 -0.3683 -0.2864  0.2061
22872SOL    HW173463   5.859   2.452   3.821 -0.4527 -0.4869  0.5579
22872SOL    HW273464   5.849   2.359   3.703  1.6728  1.6950 -1.4526
22873SOL     OW73465   8.937   0.616   1.509 -0.4190 -0.6084 -0.1847
22873SOL    HW173466   8.854   0.622   1.556 -0.7074  1.5719 -0.8536
22873SOL    HW273467   9.004   0.620   1.578 -0.8277 -2.1224  0.3346
22874SOL     OW73468   6.987   0.685   0.987 -0.1776  0.2322 -0.2194
22874SOL    HW173469   7.027   0.674   1.073  0.6584 -0.8834 -0.7246
22874SOL    HW273470   6.903   0.640   0.993  0.5737 -1.2393 -0.4480
22875SOL     OW73471   6.235   0.053   2.659 -0.2612  0.3901 -0.1140
22875SOL    HW173472   6.224   0.145   2.681  2.2947  1.4116 -2.4295
22875SOL    HW273473   6.330   0.038   2.666 -0.1471 -1.0092 -3.0754
22876SOL     OW73474   0.388   2.924   1.017 -0.1909  0.3078 -0.3542
22876SOL    HW173475   0.370   2.878   1.099  1.7260 -0.9813 -0.5889
22876SOL    HW273476   0.397   2.854   0.951  0.9533  1.1160 -1.1003
22877SOL     OW73477   7.765   0.475   3.717  0.3671 -0.5595 -0.7197
22877SOL    HW173478   7.742   0.567   3.707  1.2058 -0.2877 -0.2905
22877SOL    HW273479   7.808   0.452   3.635  1.5039 -0.1305 -0.2688
22878SOL     OW73480   7.304   1.824   3.317  0.1770  0.1648 -0.1300
22878SOL    HW173481   7.356   1.880   3.374  1.5925 -2.1178  0.9835
22878SOL    HW273482   7.282   1.748   3.371 -3.5332  0.5214 -0.8753
22879SOL     OW73483   6.618   3.842   3.415  0.3298  0.1390 -0.1148
22879SOL    HW173484   6.701   3.864   3.455  0.5669 -0.5820 -0.1958
22879SOL    HW273485   6.568   3.798   3.484  1.0641 -1.8859 -0.7901
22880SOL     OW73486   8.442   0.343   3.315  0.1994 -0.1304  0.2370
22880SOL    HW173487   8.383   0.289   3.367  0.2841 -1.3284 -0.8515
22880SOL    HW273488   8.529   0.323   3.348  0.1957 -0.3489  0.1186
22881SOL     OW73489   7.531   1.762   2.735 -0.8680 -0.1598  0.2491
22881SOL    HW173490   7.553   1.741   2.644  0.5438  0.2018  0.4787
22881SOL    HW273491   7.591   1.833   2.758 -2.1638  0.7036  1.0420
22882SOL     OW73492   2.017   1.364   0.738 -0.5448  0.2752  0.4777
22882SOL    HW173493   2.092   1.310   0.714 -1.4985 -1.3901  1.0624
22882SOL    HW273494   1.964   1.368   0.658 -0.1315  0.9380  0.2364
22883SOL     OW73495   6.217   0.315   2.678  0.3416 -0.1097 -0.1591
22883SOL    HW173496   6.214   0.342   2.587 -4.2183  0.5675 -0.0465
22883SOL    HW273497   6.163   0.379   2.725 -0.1429 -2.1704  2.4041
22884SOL     OW73498   8.356   9.206   2.721  0.5226 -0.1129  0.6228
22884SOL    HW173499   8.393   9.119   2.707  0.1228 -0.5951  2.3881
22884SOL    HW273500   8.266   9.199   2.687  0.5431 -0.3375  0.6141
22885SOL     OW73501   7.531   0.330   9.356  0.2836 -0.4223 -0.4859
22885SOL    HW173502   7.482   0.329   9.274  0.3238  1.8254 -0.5960
22885SOL    HW273503   7.469   0.297   9.421 -1.3187  1.9157 -0.7118
22886SOL     OW73504   7.478   0.638   3.816 -0.0256  0.0404  0.3465
22886SOL    HW173505   7.555   0.695   3.815  0.8070 -1.0605 -0.1871
22886SOL    HW273506   7.448   0.637   3.725 -0.3034 -0.0194  0.4389
22887SOL     OW73507   6.567   3.280   3.177 -0.2364 -0.0725 -0.4212
22887SOL    HW173508   6.496   3.224   3.146  0.8494 -1.7089 -0.0878
22887SOL    HW273509   6.639   3.264   3.116  0.5761 -0.1842  0.5351
22888SOL     OW73510   8.596   2.675   3.740  0.1112 -0.0650 -0.1254
22888SOL    HW173511   8.517   2.641   3.698 -0.3562  0.2592  0.4675
22888SOL    HW273512   8.622   2.606   3.800  1.1792 -0.8246 -1.4030
22889SOL     OW73513   8.652   8.673   1.567  0.4737  0.0352 -0.3171
22889SOL    HW173514   8.629   8.727   1.491  2.2575  0.4219 -0.6478
22889SOL    HW273515   8.570   8.663   1.616 -0.5040  0.5987 -1.7811
22890SOL     OW73516   8.604   0.255   3.709  0.5937  0.1063  0.1887
22890SOL    HW173517   8.570   0.214   3.629  0.1430 -0.6426  0.7587
22890SOL    HW273518   8.699   0.253   3.698  0.5932 -1.2092  0.2595
22891SOL     OW73519   9.327   0.514   0.506 -0.1168 -0.4075 -0.2823
22891SOL    HW173520   9.279   0.554   0.434 -0.3452  0.1296  0.1607
22891SOL    HW273521   9.396   0.463   0.464 -1.2604 -1.4768 -0.9653
22892SOL     OW73522   7.271   2.142   2.552  0.2648 -0.3033 -0.1924
22892SOL    HW173523   7.198   2.175   2.605  0.8402 -0.1910  0.5552
22892SOL    HW273524   7.278   2.049   2.576 -0.5361 -0.6715 -1.3359
22893SOL     OW73525   8.245   0.259   1.567 -0.3338 -0.2043  0.1703
22893SOL    HW173526   8.220   0.301   1.485 -1.1208 -0.8553  0.0674
22893SOL    HW273527   8.333   0.224   1.551  0.8049  2.2742  0.5995
22894SOL     OW73528   0.185   3.873   3.588 -0.4851  0.4159 -0.1828
22894SOL    HW173529   0.152   3.812   3.523  0.3987  0.0634 -0.3165
22894SOL    HW273530   0.258   3.827   3.630 -0.8799  0.7263  0.8898
22895SOL     OW73531   8.005   3.389   3.617  0.0517 -0.5992 -0.1343
22895SOL    HW173532   8.061   3.425   3.686 -0.8408 -0.5042  0.5592
22895SOL    HW273533   7.963   3.313   3.657 -0.4791 -0.5445 -0.5762
22896SOL     OW73534   6.529   0.056   3.414  0.2985  0.1757  0.1102
22896SOL    HW173535   6.545   0.025   3.504  0.6098  1.7021  0.6102
22896SOL    HW273536   6.448   0.107   3.421  0.4289  0.4612 -0.4300
22897SOL     OW73537   0.369   1.374   2.379 -0.5524  0.1911  0.1615
22897SOL    HW173538   0.299   1.438   2.363 -0.8610  0.0463  0.8915
22897SOL    HW273539   0.342   1.329   2.459  0.9823  0.9722  1.1668
22898SOL     OW73540   1.679   1.383   2.162  0.9455 -0.2180  0.1968
22898SOL    HW173541   1.670   1.398   2.256 -0.4968 -1.4231  0.2982
22898SOL    HW273542   1.758   1.430   2.137  2.3410 -1.2853  2.3315
22899SOL     OW73543   6.336   0.403   4.058  0.3184  0.0756 -0.2301
22899SOL    HW173544   6.410   0.345   4.076  0.6141  0.2205 -0.9673
22899SOL    HW273545   6.281   0.395   4.136  0.4539 -1.0429 -0.2317
22900SOL     OW73546   8.556   1.430   2.520 -0.0473 -0.0249  0.1074
22900SOL    HW173547   8.584   1.365   2.456 -0.6129  0.1524 -0.3270
22900SOL    HW273548   8.488   1.480   2.475  1.5296  1.9858 -0.1845
22901SOL     OW73549   9.654   2.550   3.307  0.1549 -0.2468 -0.2023
22901SOL    HW173550   9.572   2.600   3.310  0.0882 -0.3545 -0.2248
22901SOL    HW273551   9.655   2.502   3.390  1.3386  1.5443  0.8976
22902SOL     OW73552   7.988   1.787   1.974 -0.6089  0.0268 -0.3664
22902SOL    HW173553   8.031   1.738   2.044 -0.6006 -0.1205 -0.4734
22902SOL    HW273554   7.897   1.795   2.002  0.1190  3.3101  1.5250
22903SOL     OW73555   4.947   8.532   4.649 -0.5254  0.1455  0.1946
22903SOL    HW173556   4.973   8.599   4.712  0.8935 -0.7527  0.6140
22903SOL    HW273557   4.990   8.452   4.679 -1.0518 -0.6508 -1.0641
22904SOL     OW73558   0.085   0.603   3.694  0.2208  0.2744 -0.2837
22904SOL    HW173559   0.089   0.636   3.604  0.4888  1.6243  0.2026
22904SOL    HW273560   0.094   0.508   3.685  2.0368  0.5212 -1.5664
22905SOL     OW73561   8.149   8.619   2.597  0.0898  0.0798  0.4226
22905SOL    HW173562   8.117   8.548   2.653 -0.7028  0.2000  0.1353
22905SOL    HW273563   8.070   8.655   2.556  0.5547  0.6664  0.0183
22906SOL     OW73564   0.224   1.262   2.585  0.0921  0.2404  0.3735
22906SOL    HW173565   0.304   1.223   2.621  1.4206  2.1045 -0.4024
22906SOL    HW273566   0.176   1.292   2.662  1.2000  1.0195  0.7959
22907SOL     OW73567   4.472   3.773   3.111 -0.6880  0.5133  0.0244
22907SOL    HW173568   4.507   3.853   3.150  1.4003  0.0667 -0.7871
22907SOL    HW273569   4.389   3.758   3.157 -0.7126  2.6381  0.8046
22908SOL     OW73570   7.697   3.256   5.432 -0.4680  0.6228 -0.5617
22908SOL    HW173571   7.786   3.285   5.450 -0.9792  2.0870 -0.2031
22908SOL    HW273572   7.707   3.171   5.390  1.1074  0.9004 -0.8164
22909SOL     OW73573   9.243   1.553   1.090  0.4078 -0.6840 -0.4394
22909SOL    HW173574   9.257   1.552   1.185 -1.1977  0.0003 -0.1690
22909SOL    HW273575   9.205   1.639   1.071 -0.3989 -1.2473 -1.5240
22910SOL     OW73576   9.817   1.492   1.651 -0.0413  0.0373  0.2067
22910SOL    HW173577   9.779   1.463   1.734  0.3302 -0.0051  0.3630
22910SOL    HW273578   9.907   1.515   1.672 -0.2326  1.0116  0.0206
22911SOL     OW73579   7.987   3.326   4.201 -0.1941 -0.1562  0.2462
22911SOL    HW173580   7.930   3.347   4.274  0.3975  1.0357  0.3981
22911SOL    HW273581   8.075   3.347   4.232  0.1433 -0.3224 -0.5536
22912SOL     OW73582   8.221   1.856   4.045 -0.1342  0.3055 -0.1347
22912SOL    HW173583   8.285   1.794   4.081 -0.8340 -0.3903 -0.0574
22912SOL    HW273584   8.264   1.941   4.050  1.4830 -0.3587 -1.6780
22913SOL     OW73585   5.406   0.223   3.893  0.4626  0.0947  0.6650
22913SOL    HW173586   5.355   0.154   3.936  0.3209  1.2524  2.4812
22913SOL    HW273587   5.483   0.178   3.858  1.9228 -0.6808  4.3801
22914SOL     OW73588   6.142   2.394   5.393 -0.2209 -0.1650  0.1440
22914SOL    HW173589   6.070   2.365   5.338  0.4560 -1.2734 -0.1815
22914SOL    HW273590   6.221   2.365   5.347  0.3827 -0.3703  1.2732
22915SOL     OW73591   7.144   1.209   1.593 -0.3179 -0.0920  0.0271
22915SOL    HW173592   7.222   1.190   1.541 -1.3865 -2.1001 -0.9299
22915SOL    HW273593   7.071   1.180   1.539 -1.8796  2.6981  0.4353
22916SOL     OW73594   7.200   1.757   4.012 -0.2764 -0.0479  0.7828
22916SOL    HW173595   7.106   1.778   4.015 -0.4484 -0.7256  0.3949
22916SOL    HW273596   7.216   1.711   4.094 -0.9437 -2.4710 -0.3483
22917SOL     OW73597   4.940   1.067   2.250  0.1297 -0.1317 -0.2190
22917SOL    HW173598   4.848   1.089   2.262  0.1665 -0.2456  0.2924
22917SOL    HW273599   4.940   0.973   2.231  0.1058 -0.0398 -0.6750
22918SOL     OW73600   9.329   3.306   3.187 -0.1189 -0.1542 -0.4853
22918SOL    HW173601   9.330   3.392   3.231 -0.6987 -1.2124  1.7329
22918SOL    HW273602   9.418   3.273   3.198 -0.0958 -0.1479 -0.6612
22919SOL     OW73603   7.426   0.930   2.240 -0.1470  0.4974 -0.2973
22919SOL    HW173604   7.397   0.886   2.160  1.2666  0.3599 -0.7631
22919SOL    HW273605   7.447   0.859   2.300 -0.2001  0.5806 -0.1810
22920SOL     OW73606   6.675   0.223   2.328 -0.0289  0.3533  0.2484
22920SOL    HW173607   6.769   0.213   2.339  0.1207  0.2411 -1.0621
22920SOL    HW273608   6.665   0.275   2.248 -1.0477  1.5632  1.1189
22921SOL     OW73609   7.731   9.367   9.803 -1.0459  0.2124  0.2173
22921SOL    HW173610   7.760   9.287   9.846  0.1273 -0.2734 -1.3680
22921SOL    HW273611   7.719   9.342   9.711  1.5430  2.2736 -0.8333
22922SOL     OW73612   8.651   7.623   3.370  0.4287  0.1367 -0.3665
22922SOL    HW173613   8.651   7.565   3.446 -0.0856  1.1001  0.3811
22922SOL    HW273614   8.724   7.592   3.316 -0.2894 -1.6844 -0.3585
22923SOL     OW73615   4.907   1.937   1.977 -0.0190  0.0066 -0.7289
22923SOL    HW173616   4.891   1.843   1.986  0.3387  0.0831  0.8441
22923SOL    HW273617   4.964   1.944   1.900  1.4328 -1.2317  0.1872
22924SOL     OW73618   0.156   2.332   0.662 -0.0545  0.1386 -0.1558
22924SOL    HW173619   0.070   2.352   0.700  0.1902 -1.1531  1.1552
22924SOL    HW273620   0.167   2.238   0.676  0.9282 -0.0198 -1.7123
22925SOL     OW73621   7.429   2.736   4.014 -0.6369 -0.2045  0.8179
22925SOL    HW173622   7.445   2.788   4.093 -1.5032  1.6748 -0.1760
22925SOL    HW273623   7.345   2.693   4.031 -0.0575 -1.0679  1.5356
22926SOL     OW73624   0.030   2.034   1.397 -0.4883  0.3306  0.0850
22926SOL    HW173625   0.116   1.999   1.421 -0.2290  0.6688 -0.3332
22926SOL    HW273626   0.036   2.052   1.303 -1.6356 -1.4118 -0.3692
22927SOL     OW73627   6.982   8.693   0.948 -0.8921 -0.6023 -0.1198
22927SOL    HW173628   7.019   8.727   0.866 -0.9417 -1.2333 -0.4119
22927SOL    HW273629   7.007   8.601   0.949  0.7012 -0.1975  1.4978
22928SOL     OW73630   8.000   0.570   1.380 -0.8578  0.0745  0.4470
22928SOL    HW173631   7.999   0.613   1.294 -2.0384 -0.5279  0.1382
22928SOL    HW273632   8.061   0.497   1.369 -1.8618 -0.6852 -0.2530
22929SOL     OW73633   8.653   0.250   2.838  0.0494  0.2692  0.2292
22929SOL    HW173634   8.565   0.269   2.871  0.4961  0.9946  1.0359
22929SOL    HW273635   8.710   0.261   2.914  0.9771  0.9091 -0.5346
22930SOL     OW73636   0.900   9.798   2.366  0.1093 -0.3977 -0.3432
22930SOL    HW173637   0.884   9.763   2.279  2.3082  1.2234 -1.4898
22930SOL    HW273638   0.984   9.761   2.392 -0.0939 -0.1510  0.7142
22931SOL     OW73639   0.084   0.819   3.354  0.0404 -0.5368 -0.3360
22931SOL    HW173640   0.094   0.724   3.355  0.6926 -0.5189  2.5585
22931SOL    HW273641   0.131   0.849   3.432 -1.4529  2.0161 -0.3189
22932SOL     OW73642   8.412   0.936   2.051 -0.5280 -0.3638 -0.2686
22932SOL    HW173643   8.419   1.011   1.992 -1.1257 -0.8368 -0.9533
22932SOL    HW273644   8.344   0.961   2.114 -1.0461 -0.5044 -0.7680
22933SOL     OW73645   5.629   1.125   2.514  0.3683  0.3827  0.0703
22933SOL    HW173646   5.610   1.145   2.606  1.1350 -0.7867  0.5090
22933SOL    HW273647   5.630   1.029   2.510  1.7974  0.4087 -0.8208
22934SOL     OW73648   6.401   3.708   1.185  0.6807  0.0036  0.0185
22934SOL    HW173649   6.323   3.659   1.158  1.5398 -0.8171 -1.0931
22934SOL    HW273650   6.387   3.796   1.150  0.0625 -0.0106  0.2166
22935SOL     OW73651   8.961   1.411   1.257  0.4894 -0.2222 -0.5150
22935SOL    HW173652   9.022   1.337   1.255 -1.7208 -2.1451 -0.4568
22935SOL    HW273653   8.999   1.471   1.321  2.4972 -1.1259 -0.7634
22936SOL     OW73654   8.697   0.847   4.506  0.0759  0.1687 -0.3920
22936SOL    HW173655   8.625   0.906   4.530 -1.2359 -0.9282 -1.4490
22936SOL    HW273656   8.754   0.846   4.582 -2.9045 -1.7238  2.0335
22937SOL     OW73657   6.237   0.390   2.422  0.3318 -0.6638 -0.0332
22937SOL    HW173658   6.178   0.462   2.400  1.8071  0.6502  0.1606
22937SOL    HW273659   6.277   0.366   2.338  1.1901 -0.0092  0.1813
22938SOL     OW73660   8.874   8.224   8.773 -0.1230  0.0988  0.3702
22938SOL    HW173661   8.859   8.261   8.860  2.8490  1.5536  0.3898
22938SOL    HW273662   8.956   8.176   8.781  0.6851  0.9697 -1.7696
22939SOL     OW73663   7.941   9.238   0.463 -0.0230  0.4414 -0.3207
22939SOL    HW173664   7.877   9.263   0.530 -1.2552 -0.2184 -1.2210
22939SOL    HW273665   7.920   9.147   0.442  3.3963 -1.0822  1.7908
22940SOL     OW73666   9.423   1.134   4.112  0.1157  0.0667  0.0039
22940SOL    HW173667   9.417   1.072   4.185 -1.4650  0.8610  0.5918
22940SOL    HW273668   9.510   1.119   4.075  0.1297 -1.8523  0.7011
22941SOL     OW73669   8.524   2.551   2.160  0.4612 -0.0373 -0.6626
22941SOL    HW173670   8.458   2.610   2.122  0.9697  1.1434  0.2045
22941SOL    HW273671   8.512   2.469   2.113 -1.1234  0.3671 -1.0558
22942SOL     OW73672   7.400   1.935   1.416  0.3899 -0.3334  0.8732
22942SOL    HW173673   7.326   1.946   1.477  0.6908 -0.7689  1.3212
22942SOL    HW273674   7.477   1.942   1.471  0.7726  1.9737  0.1497
22943SOL     OW73675   9.713   2.428   3.545 -0.0837  0.6912 -0.1879
22943SOL    HW173676   9.643   2.438   3.609  1.1130  1.8791  1.0050
22943SOL    HW273677   9.794   2.425   3.597  0.8065 -0.1183 -1.5392
22944SOL     OW73678   6.595   1.495   1.113 -0.1765  0.3579  0.0092
22944SOL    HW173679   6.521   1.485   1.053  0.6368  0.1955 -0.9913
22944SOL    HW273680   6.647   1.416   1.101  0.2123  0.5136  0.6334
22945SOL     OW73681   6.665   9.564   1.281 -0.0588  0.4296 -0.0880
22945SOL    HW173682   6.697   9.486   1.326 -1.9159 -0.5480 -0.3342
22945SOL    HW273683   6.701   9.638   1.330  0.5673 -0.5960  1.0301
22946SOL     OW73684   9.533   3.607   2.787 -0.2489 -0.2098  0.1200
22946SOL    HW173685   9.614   3.597   2.837  0.5254 -0.1894 -1.0883
22946SOL    HW273686   9.547   3.684   2.732 -1.2260 -0.0026  0.1369
22947SOL     OW73687   8.870   1.301   2.742 -0.1737 -0.2118  0.1277
22947SOL    HW173688   8.804   1.264   2.683 -0.5268  0.5640  0.0275
22947SOL    HW273689   8.953   1.288   2.696 -0.4844  0.7419 -0.7327
22948SOL     OW73690   9.556   3.481   3.737 -0.6077  0.2012 -0.0370
22948SOL    HW173691   9.640   3.439   3.756  0.1985  2.1570  1.0530
22948SOL    HW273692   9.579   3.572   3.719 -2.6067  1.1778  1.8720
22949SOL     OW73693   8.025   2.014   1.017 -0.3105  0.2374  0.3111
22949SOL    HW173694   8.054   1.923   1.015  1.3162  0.7348 -0.8461
22949SOL    HW273695   7.933   2.010   1.042 -0.2022 -1.6966  0.5218
22950SOL     OW73696   8.232   0.879   1.797 -0.1208 -0.1936  0.4568
22950SOL    HW173697   8.238   0.971   1.823 -1.0288 -0.0911  0.3412
22950SOL    HW273698   8.323   0.852   1.785  0.1465  0.7967  0.1200
22951SOL     OW73699   7.521   2.177   2.762  0.0325 -0.3920  0.0059
22951SOL    HW173700   7.461   2.107   2.734  0.6259 -0.5123 -1.0320
22951SOL    HW273701   7.552   2.216   2.680  0.0992  0.7686  0.5594
22952SOL     OW73702   6.915   0.831   1.396 -0.2510 -0.2616 -0.3796
22952SOL    HW173703   6.905   0.736   1.386 -0.6812 -0.2646  0.0372
22952SOL    HW273704   6.869   0.851   1.478 -1.4915  0.5230 -1.2487
22953SOL     OW73705   7.241   0.776   2.021 -0.0165  0.0226 -0.1848
22953SOL    HW173706   7.160   0.805   1.980  0.5926 -0.1119 -1.5198
22953SOL    HW273707   7.213   0.725   2.097 -1.1686  0.1919 -0.4864
22954SOL     OW73708   6.261   1.236   3.999 -0.2000 -0.4617 -0.4767
22954SOL    HW173709   6.240   1.321   4.038 -2.5432 -0.8178 -0.8221
22954SOL    HW273710   6.281   1.256   3.908  0.3588 -0.1795 -0.2996
22955SOL     OW73711   7.165   3.120   2.468  0.0698  0.8273  0.2264
22955SOL    HW173712   7.167   3.189   2.401  1.2745 -0.0912 -0.7416
22955SOL    HW273713   7.118   3.159   2.541  1.5380  3.0336  0.0890
22956SOL     OW73714   5.479   2.392   5.066 -0.3165 -0.0405  0.3287
22956SOL    HW173715   5.457   2.467   5.011 -1.5345  0.7573  1.8434
22956SOL    HW273716   5.560   2.417   5.111  1.0917 -0.9812 -1.5360
22957SOL     OW73717   0.349   3.081   2.493  0.4324  0.3014 -0.1288
22957SOL    HW173718   0.325   2.988   2.486 -1.3371  0.7718 -1.1340
22957SOL    HW273719   0.388   3.102   2.408  0.3047  0.5869 -0.1205
22958SOL     OW73720   8.795   7.197   1.285  0.1052  0.0502  0.0852
22958SOL    HW173721   8.738   7.242   1.347  1.0009  0.3403  0.7337
22958SOL    HW273722   8.848   7.267   1.247 -0.9859 -0.0276 -1.6203
22959SOL     OW73723   7.808   2.069   4.438 -0.8030 -0.1196 -0.7020
22959SOL    HW173724   7.847   2.153   4.413 -1.4812  0.5209  0.3370
22959SOL    HW273725   7.714   2.080   4.425 -0.9156 -0.6549 -0.4027
22960SOL     OW73726   9.020   0.900   3.689  0.0722  0.0042 -0.1411
22960SOL    HW173727   9.098   0.926   3.739 -0.1375 -0.0209  0.2079
22960SOL    HW273728   9.032   0.806   3.673  0.8366  0.3053 -1.4153
22961SOL     OW73729   9.168   8.043   5.810  0.1451  0.0368  0.4945
22961SOL    HW173730   9.226   8.061   5.884  0.8067 -1.8304  0.4939
22961SOL    HW273731   9.102   8.112   5.813  1.1931  1.0293  1.7397
22962SOL     OW73732   6.308   0.978   5.276  0.4641 -0.0264 -0.1571
22962SOL    HW173733   6.247   0.986   5.349 -1.3923 -0.7250 -1.5241
22962SOL    HW273734   6.377   0.921   5.308  0.8587  1.3927  1.6917
22963SOL     OW73735   8.025   1.643   2.398 -0.5413  0.0884 -0.7405
22963SOL    HW173736   7.972   1.573   2.436 -0.5544 -1.1275 -2.8418
22963SOL    HW273737   8.100   1.652   2.457 -1.5359 -0.2834  0.6283
22964SOL     OW73738   9.112   1.633   3.649 -0.0508  0.5559 -0.0728
22964SOL    HW173739   9.185   1.577   3.676 -0.5459 -0.1435 -0.1304
22964SOL    HW273740   9.144   1.677   3.570  1.4762  2.7713  1.6445
22965SOL     OW73741   6.639   1.760   2.280  0.2701  0.7282 -0.2948
22965SOL    HW173742   6.597   1.684   2.240  0.0655  0.9622 -0.5345
22965SOL    HW273743   6.722   1.769   2.233  0.6747  0.1553  0.3045
22966SOL     OW73744   6.682   1.710   1.861  0.5544 -0.4992 -0.2719
22966SOL    HW173745   6.590   1.725   1.882  0.5376 -0.6428 -0.2416
22966SOL    HW273746   6.681   1.680   1.770  0.5295 -0.9429 -0.1295
22967SOL     OW73747   5.276   8.959   1.854  0.1430 -0.4645 -0.3776
22967SOL    HW173748   5.319   8.927   1.775 -0.4596 -0.5910 -0.6555
22967SOL    HW273749   5.313   9.047   1.867  0.6946 -0.6821 -0.4506
22968SOL     OW73750   9.370   1.592   3.780  0.4298  0.0710  0.1835
22968SOL    HW173751   9.447   1.578   3.725  4.3354  2.1747  4.4549
22968SOL    HW273752   9.363   1.513   3.833 -1.5955 -0.8260 -1.3117
22969SOL     OW73753   9.219   0.684   1.487 -0.3597 -0.2767 -0.2807
22969SOL    HW173754   9.280   0.673   1.560  0.6207 -2.1204 -1.3021
22969SOL    HW273755   9.143   0.727   1.526  0.9440  0.6531  1.3645
22970SOL     OW73756   6.404   0.354   2.169 -0.3864 -0.4073 -0.0996
22970SOL    HW173757   6.499   0.349   2.176 -0.1813  2.6915  0.4901
22970SOL    HW273758   6.388   0.384   2.080 -0.6753  0.8684  0.3646
22971SOL     OW73759   7.878   0.085   2.718  0.3502 -0.6582  0.0787
22971SOL    HW173760   7.945   0.017   2.707  1.0986 -0.2720  1.8849
22971SOL    HW273761   7.837   0.065   2.802  0.3453  0.9097  0.4818
22972SOL     OW73762   7.332   1.426   1.994 -0.2290  0.5079  0.0020
22972SOL    HW173763   7.298   1.348   2.037  1.9499 -1.1173 -1.0371
22972SOL    HW273764   7.343   1.490   2.064  1.2341 -1.3309  1.5577
22973SOL     OW73765   9.233   2.765   2.560 -0.1711  0.5090 -0.6083
22973SOL    HW173766   9.241   2.803   2.648 -1.2106  0.3063 -0.4107
22973SOL    HW273767   9.184   2.830   2.510  0.7341  0.7880 -1.1614
22974SOL     OW73768   8.466   1.941   4.318 -0.2970  0.2501 -0.1336
22974SOL    HW173769   8.529   1.918   4.386 -0.3843  0.6141  0.0676
22974SOL    HW273770   8.395   1.985   4.364 -0.6184 -0.0021 -0.3839
22975SOL     OW73771   8.700   1.330   1.101 -0.3128 -0.0130  0.1241
22975SOL    HW173772   8.710   1.385   1.179 -0.6095  0.8682 -0.4474
22975SOL    HW273773   8.737   1.245   1.127 -0.0363  0.3855  1.0870
22976SOL     OW73774   7.955   0.710   3.473 -0.0038  0.1553 -0.1864
22976SOL    HW173775   7.977   0.783   3.415  1.1533  1.1354  1.4098
22976SOL    HW273776   8.032   0.653   3.471 -0.4277 -0.4187 -0.4972
22977SOL     OW73777   9.138   1.347   2.219  0.0688 -0.1935  0.3794
22977SOL    HW173778   9.064   1.326   2.162  0.4379 -0.9185  0.1541
22977SOL    HW273779   9.098   1.372   2.302 -0.3973 -2.4391  0.8802
22978SOL     OW73780   9.398   0.339   2.128 -0.2704  0.2422 -0.2767
22978SOL    HW173781   9.436   0.399   2.193  0.0126 -0.5312  0.2924
22978SOL    HW273782   9.471   0.281   2.104 -0.5321  0.1454 -0.8341
22979SOL     OW73783   5.037   0.667   0.695  0.2940  0.0227  0.1900
22979SOL    HW173784   5.077   0.633   0.616  0.8196 -0.3182  0.5958
22979SOL    HW273785   5.089   0.629   0.767 -0.7204 -0.3826  0.7247
22980SOL     OW73786   7.272   1.288   4.038  0.3538  0.0761  0.5956
22980SOL    HW173787   7.281   1.278   4.132  1.9149 -1.1476  0.3436
22980SOL    HW273788   7.183   1.256   4.019  0.1889 -0.0864  1.5784
22981SOL     OW73789   8.007   8.494   1.524 -0.1956  0.3670  0.3088
22981SOL    HW173790   8.046   8.576   1.555  0.6293  0.4948 -1.0056
22981SOL    HW273791   8.055   8.473   1.444 -2.5915  0.3870 -1.2610
22982SOL     OW73792   7.407   1.659   3.547  0.0558 -0.5768  0.4077
22982SOL    HW173793   7.445   1.703   3.623 -2.6003  0.4371  1.2619
22982SOL    HW273794   7.376   1.575   3.580 -1.3936 -0.0028  0.5923
22983SOL     OW73795   7.258   1.474   3.842  0.3682  0.2071 -0.1678
22983SOL    HW173796   7.258   1.554   3.895  1.8552 -0.1251  0.3753
22983SOL    HW273797   7.276   1.404   3.904 -2.7574 -0.8738 -0.2930
22984SOL     OW73798   6.840   2.172   3.254  0.1900  0.2785  0.2806
22984SOL    HW173799   6.792   2.126   3.186  0.0196 -0.4510  0.8878
22984SOL    HW273800   6.920   2.121   3.267  0.4605  0.6943  0.2739
22985SOL     OW73801   8.955   2.887   2.067  0.3878  0.1589 -0.3623
22985SOL    HW173802   8.928   2.889   1.975 -0.8457 -2.2211 -0.1562
22985SOL    HW273803   8.920   2.804   2.100  0.5888  1.0359  2.3372
22986SOL     OW73804   8.356   0.342   2.116  0.1939  0.0039 -0.0988
22986SOL    HW173805   8.440   0.363   2.157  0.6128  0.5683 -1.2038
22986SOL    HW273806   8.362   0.248   2.097  0.6488  0.0699 -0.3083
22987SOL     OW73807   8.019   0.956   4.345 -0.0552 -0.3162 -0.8299
22987SOL    HW173808   8.082   0.951   4.416 -0.8991  0.3541  0.0047
22987SOL    HW273809   8.071   0.974   4.267  0.8435 -0.5643 -0.2964
22988SOL     OW73810   7.605   2.756   4.523 -0.6938  0.4075  0.0539
22988SOL    HW173811   7.685   2.719   4.485  0.2163  1.0841  1.2533
22988SOL    HW273812   7.609   2.849   4.502 -0.3837  0.7192  1.4024
22989SOL     OW73813   9.758   1.823   3.036  0.4833  0.5086 -0.0706
22989SOL    HW173814   9.768   1.835   2.942 -1.3648  2.1360 -0.1478
22989SOL    HW273815   9.803   1.898   3.075  1.5958 -0.3747  0.3913
22990SOL     OW73816   7.719   1.456   2.831 -0.3647  0.6794 -0.6472
22990SOL    HW173817   7.734   1.546   2.801  2.9443  0.3259 -0.4037
22990SOL    HW273818   7.734   1.459   2.925  0.8601 -0.2559 -0.7826
22991SOL     OW73819   9.422   1.726   4.198 -0.4858 -0.3633  0.1398
22991SOL    HW173820   9.478   1.793   4.237  0.0505 -1.0806  0.6426
22991SOL    HW273821   9.408   1.755   4.108  1.8003 -0.7934 -0.4158
22992SOL     OW73822   6.961   2.612   3.600  0.3609 -0.9132  0.2906
22992SOL    HW173823   6.868   2.593   3.588 -0.1186  0.5042  1.4908
22992SOL    HW273824   6.983   2.670   3.528 -0.0811 -0.0727  0.8142
22993SOL     OW73825   6.533   1.411   2.393 -0.4902  0.3122 -0.1180
22993SOL    HW173826   6.559   1.489   2.344 -0.7012  0.6084  0.2342
22993SOL    HW273827   6.490   1.356   2.328  0.2226  0.2023 -0.5101
22994SOL     OW73828   8.568   0.722   2.288  0.4095 -0.2742 -0.0216
22994SOL    HW173829   8.635   0.714   2.356  0.7811 -0.4751 -0.4025
22994SOL    HW273830   8.608   0.780   2.223 -0.8029  1.8232  0.9664
22995SOL     OW73831   7.848   0.444   2.902  0.3732 -0.2979 -0.3241
22995SOL    HW173832   7.827   0.523   2.951 -0.4750 -0.3977 -0.5066
22995SOL    HW273833   7.902   0.474   2.829  0.4259  0.0513 -0.1412
22996SOL     OW73834   8.940   4.142   4.468  0.0332 -0.6311 -0.1342
22996SOL    HW173835   8.904   4.053   4.459  0.5729 -0.9931  1.1451
22996SOL    HW273836   9.034   4.129   4.481  0.0418  0.0984  0.5990
22997SOL     OW73837   0.589   1.331   6.828  0.8990  0.3438  0.0354
22997SOL    HW173838   0.590   1.381   6.910  0.5912 -0.7101  0.6936
22997SOL    HW273839   0.499   1.300   6.821  1.0243  0.1064 -0.5098
22998SOL     OW73840   0.043   9.505   3.417 -0.2435  0.5498  0.2640
22998SOL    HW173841   0.058   9.454   3.497  1.7611  1.8925  0.8291
22998SOL    HW273842   0.074   9.448   3.347 -0.4870 -0.0138  0.6060
22999SOL     OW73843   0.409   2.287   2.051 -0.2056  0.3373  0.1793
22999SOL    HW173844   0.398   2.205   2.099 -0.2454  0.4989  0.4478
22999SOL    HW273845   0.488   2.274   1.999 -0.1988  0.1384  0.2386
23000SOL     OW73846   5.725   1.918   3.608 -0.0864 -0.5240 -0.3994
23000SOL    HW173847   5.665   1.862   3.658  0.5593 -0.4310  0.5147
23000SOL    HW273848   5.770   1.970   3.675 -0.4749  0.8986 -1.2219
23001SOL     OW73849   6.699   0.374   3.009 -0.0366  0.0097 -0.2802
23001SOL    HW173850   6.760   0.446   3.019  0.2250  0.1260 -2.2487
23001SOL    HW273851   6.615   0.416   2.989  0.0838 -0.2005 -1.2840
23002SOL     OW73852   7.748   2.781   5.497  0.2390 -0.5423 -0.2992
23002SOL    HW173853   7.797   2.704   5.468 -2.6040 -2.6826  0.1609
23002SOL    HW273854   7.728   2.762   5.589 -1.0006  0.4748 -0.3488
23003SOL     OW73855   9.326   0.119   2.343  0.7506  0.3256  0.0183
23003SOL    HW173856   9.248   0.109   2.396  0.2215 -2.3998 -1.1096
23003SOL    HW273857   9.315   0.204   2.300  0.9087  2.3510  3.5785
23004SOL     OW73858   5.072   3.266   3.885 -0.6300 -0.1820  0.4346
23004SOL    HW173859   5.021   3.210   3.827 -1.4779  1.2511 -0.2414
23004SOL    HW273860   5.162   3.236   3.873 -1.0448 -1.3502  0.0570
23005SOL     OW73861   9.554   1.593   3.592 -0.3143  0.1335  0.1967
23005SOL    HW173862   9.564   1.502   3.564 -0.5463  0.0611  0.3425
23005SOL    HW273863   9.598   1.644   3.524 -1.9248  0.0508 -0.9936
23006SOL     OW73864   8.011   0.669   6.446 -0.3060  0.5043 -0.4140
23006SOL    HW173865   8.082   0.611   6.473 -2.0751 -2.4551 -1.6992
23006SOL    HW273866   7.951   0.670   6.520  0.0362  1.2956 -0.1358
23007SOL     OW73867   6.846   1.886   2.554 -0.3419 -1.0056  0.1189
23007SOL    HW173868   6.906   1.906   2.483 -0.0119  0.2025  0.7069
23007SOL    HW273869   6.827   1.793   2.544  0.4640 -1.0748 -0.9531
23008SOL     OW73870   0.040   0.490   3.128 -0.2412 -0.2808 -0.6927
23008SOL    HW173871  -0.032   0.428   3.121 -0.6843  0.0147  0.9049
23008SOL    HW273872   0.116   0.437   3.152  0.0192 -0.5442 -2.0293
23009SOL     OW73873   9.554   9.745   3.103  0.0589  0.3209 -0.2119
23009SOL    HW173874   9.489   9.792   3.155  0.0954 -1.5902  1.7158
23009SOL    HW273875   9.639   9.778   3.133  0.0473  0.7075 -0.5956
23010SOL     OW73876   7.871   2.480   1.763  0.0537 -0.2065  0.3016
23010SOL    HW173877   7.865   2.535   1.841  1.7247  0.2670  0.1517
23010SOL    HW273878   7.958   2.440   1.768 -0.3969 -1.3840 -0.5523
23011SOL     OW73879   7.563   0.835   3.052 -0.4290  0.2815 -0.3904
23011SOL    HW173880   7.481   0.811   3.095 -0.9630  0.0242 -1.5140
23011SOL    HW273881   7.558   0.930   3.042  1.2645  0.9410  3.1958
23012SOL     OW73882   6.276   2.024   3.080 -0.0032 -0.3198 -0.5538
23012SOL    HW173883   6.352   1.994   3.030  0.0470  0.2691 -0.8422
23012SOL    HW273884   6.238   2.093   3.026  0.8968  1.3792  0.8367
23013SOL     OW73885   1.234   0.592   9.341  0.4788 -0.3698 -0.1956
23013SOL    HW173886   1.189   0.652   9.281  0.3582  0.0368  0.2941
23013SOL    HW273887   1.197   0.506   9.320  0.0404 -0.1532 -0.3388
23014SOL     OW73888   7.100   1.369   3.638  0.5304  0.2931  0.5092
23014SOL    HW173889   7.028   1.319   3.676 -3.7259  3.8897 -1.7942
23014SOL    HW273890   7.136   1.419   3.712  0.4102 -1.2288  1.6489
23015SOL     OW73891   6.684   0.352   2.088  0.3036 -0.1780 -0.0358
23015SOL    HW173892   6.758   0.384   2.035  0.1432  0.4146  0.0852
23015SOL    HW273893   6.648   0.280   2.037  0.4767  0.0457 -0.4858
23016SOL     OW73894   9.675   0.778   2.644 -0.2582  0.3252  1.1040
23016SOL    HW173895   9.702   0.751   2.556 -2.9291  1.7890 -0.2847
23016SOL    HW273896   9.733   0.851   2.666 -1.4022  1.8841 -0.7866
23017SOL     OW73897   0.841   0.031   2.975  0.1180 -0.1528  0.1246
23017SOL    HW173898   0.932   0.012   2.954 -0.3223 -1.1131 -1.0936
23017SOL    HW273899   0.813  -0.043   3.029  0.1927  0.3857  0.9045
23018SOL     OW73900   8.243   2.271   3.034  0.0321  0.1717 -0.1846
23018SOL    HW173901   8.286   2.350   3.068 -0.4456  0.8914 -1.2225
23018SOL    HW273902   8.226   2.290   2.942 -2.8602  0.1024  0.2396
23019SOL     OW73903   7.621   3.511   0.501 -0.6003  0.1524  0.1401
23019SOL    HW173904   7.691   3.484   0.442 -0.5633  0.0697  0.2215
23019SOL    HW273905   7.573   3.579   0.453 -0.5168  0.1475  0.0508
23020SOL     OW73906   7.368   2.801   4.666 -0.4966  0.1011 -0.1632
23020SOL    HW173907   7.425   2.738   4.622  0.5045 -0.2553  1.5585
23020SOL    HW273908   7.280   2.767   4.651  0.0082 -1.7286  0.6844
23021SOL     OW73909   8.459   9.804   2.970  0.3445 -0.5309  0.3280
23021SOL    HW173910   8.542   9.807   3.018 -0.3151 -0.0714  1.4775
23021SOL    HW273911   8.396   9.846   3.029 -0.6273 -0.5269 -0.6883
23022SOL     OW73912   9.463   0.937   3.539 -0.4666 -0.6827 -0.4885
23022SOL    HW173913   9.551   0.925   3.504  0.4509  0.9771  1.0622
23022SOL    HW273914   9.451   0.862   3.597  1.1449  0.4513  1.4590
23023SOL     OW73915   7.031   8.410   0.972  0.0340 -0.4426  0.1244
23023SOL    HW173916   7.054   8.392   0.881 -0.1885  1.6646 -0.3841
23023SOL    HW273917   7.104   8.375   1.022  2.6260  2.5526 -1.2098
23024SOL     OW73918   8.928   0.638   2.158 -0.3099  0.2349  0.0304
23024SOL    HW173919   8.936   0.702   2.087 -0.2015 -0.0810 -0.2419
23024SOL    HW273920   8.995   0.664   2.221  2.2077 -1.6701 -1.6784
23025SOL     OW73921   7.608   2.881   2.051 -0.1651 -0.0487  0.1746
23025SOL    HW173922   7.599   2.951   1.987 -0.6784  0.4838  0.8200
23025SOL    HW273923   7.700   2.885   2.079 -0.5591  1.3647  1.3312
23026SOL     OW73924   9.091   9.548   5.996  0.1994 -0.1908  0.5482
23026SOL    HW173925   9.171   9.600   5.985  0.6003 -0.8285  0.3655
23026SOL    HW273926   9.086   9.531   6.090 -0.8935  1.6442  0.8663
23027SOL     OW73927   9.614   1.826   4.890  0.1309  0.3104  0.6850
23027SOL    HW173928   9.625   1.803   4.982 -0.5958 -1.0768  0.4521
23027SOL    HW273929   9.520   1.839   4.879  0.0282 -1.0063 -0.1647
23028SOL     OW73930   7.297   3.969   2.312  0.2199 -0.7773  0.3204
23028SOL    HW173931   7.323   3.880   2.289 -1.4586 -1.2788  0.1881
23028SOL    HW273932   7.285   3.966   2.407 -0.2211 -0.8148  0.2663
23029SOL     OW73933   6.594   3.049   3.336 -0.0906 -0.5618  0.0267
23029SOL    HW173934   6.513   3.018   3.296 -0.6676  1.3689 -0.3825
23029SOL    HW273935   6.582   3.144   3.345  2.0921 -0.2273 -0.0106
23030SOL     OW73936   6.797   1.993   3.056  0.2365  0.5653 -0.0627
23030SOL    HW173937   6.787   1.927   2.988  1.2852 -1.1252  1.3440
23030SOL    HW273938   6.861   2.055   3.020 -0.8812  0.9512 -1.4645
23031SOL     OW73939   7.773   8.227   4.129  0.0484 -0.2635 -0.1344
23031SOL    HW173940   7.846   8.240   4.069 -0.9991 -0.0629 -1.4332
23031SOL    HW273941   7.749   8.135   4.119 -0.4415 -0.1130 -0.4254
23032SOL     OW73942   9.472   9.834   2.606  0.0007  0.2364  0.1232
23032SOL    HW173943   9.516   9.847   2.522 -0.1084  1.8429  0.2902
23032SOL    HW273944   9.379   9.835   2.584 -0.0126 -0.5628  0.1146
23033SOL     OW73945   9.096   0.151   5.120 -0.0341  0.5012  0.0983
23033SOL    HW173946   9.135   0.083   5.176 -0.3914  0.6743  0.5725
23033SOL    HW273947   9.165   0.217   5.110  0.1028  0.3702  0.1717
23034SOL     OW73948   8.799   9.063   2.908  0.8718  0.5468 -0.3072
23034SOL    HW173949   8.738   9.106   2.848 -1.6216 -1.0350  0.9195
23034SOL    HW273950   8.781   9.102   2.993  2.3670  0.7773 -0.0672
23035SOL     OW73951   7.674   0.002   2.534 -0.3548  0.1437 -0.4393
23035SOL    HW173952   7.706  -0.082   2.500  1.5850  0.9666 -0.7967
23035SOL    HW273953   7.752   0.044   2.569 -1.6446  1.0030  1.5168
23036SOL     OW73954   9.036   1.370   1.635  0.6319 -0.2746 -0.6363
23036SOL    HW173955   9.010   1.278   1.644 -0.6335  0.1389  0.1390
23036SOL    HW273956   8.954   1.418   1.625  1.0579  1.0365  1.4286
23037SOL     OW73957   9.181   8.750   2.888 -0.8760 -0.5456  1.1627
23037SOL    HW173958   9.128   8.794   2.821  0.1182 -0.2235  0.5649
23037SOL    HW273959   9.209   8.668   2.846  0.7739  0.2242  0.7015
23038SOL     OW73960   8.712   2.885   2.329 -0.1308 -0.3122 -0.2057
23038SOL    HW173961   8.617   2.894   2.343 -0.3951  3.1998 -2.8848
23038SOL    HW273962   8.719   2.841   2.244  0.5201  0.9284 -0.8241
23039SOL     OW73963   8.935   1.799   2.502 -0.4336 -0.0825  0.6105
23039SOL    HW173964   8.880   1.728   2.536  0.0023 -0.5521  0.3408
23039SOL    HW273965   8.878   1.844   2.439  0.5383 -2.7964 -2.5008
23040SOL     OW73966   6.614   0.961   1.917  0.4824 -0.0727 -0.3464
23040SOL    HW173967   6.525   0.997   1.917  0.9413  1.1172 -0.2624
23040SOL    HW273968   6.615   0.902   1.993  0.1550  0.9538  0.4833
23041SOL     OW73969   6.963   1.875   1.656 -0.7066 -0.2791 -0.4326
23041SOL    HW173970   6.992   1.800   1.604 -1.6998 -1.1230  0.1959
23041SOL    HW273971   6.871   1.887   1.631 -0.5312  0.8064 -0.5986
23042SOL     OW73972   0.393   2.412   2.781  0.8994  0.5105  0.1791
23042SOL    HW173973   0.424   2.368   2.860  0.5314  0.1064  0.1000
23042SOL    HW273974   0.463   2.399   2.717  0.6613 -0.2250  0.0653
23043SOL     OW73975   8.391   1.570   2.340 -0.3913  0.0001 -0.2842
23043SOL    HW173976   8.368   1.636   2.407 -0.7454  0.1481 -0.5490
23043SOL    HW273977   8.430   1.621   2.269 -2.3949  0.1938 -1.3224
23044SOL     OW73978   6.793   1.644   4.605 -0.0209  0.3893  0.7782
23044SOL    HW173979   6.722   1.598   4.559  0.3878  1.3096 -0.8427
23044SOL    HW273980   6.867   1.642   4.544 -0.1405  3.6402  0.3524
23045SOL     OW73981   8.168   9.393   1.951 -0.0861  0.3507 -0.3329
23045SOL    HW173982   8.093   9.363   1.900 -1.6292  0.7071  1.6207
23045SOL    HW273983   8.149   9.485   1.971  0.5170  0.2599  0.7610
23046SOL     OW73984   6.574   8.850   4.943 -0.0331 -0.2589 -0.2848
23046SOL    HW173985   6.544   8.769   4.985  0.3565  0.4177  1.3924
23046SOL    HW273986   6.522   8.856   4.863 -0.6453 -1.7435 -0.0338
23047SOL     OW73987   9.531   2.692   3.665  0.6914 -0.0796  0.5886
23047SOL    HW173988   9.508   2.600   3.677  2.6641 -0.6967  0.1570
23047SOL    HW273989   9.450   2.734   3.637 -0.9003 -1.1348  3.2352
23048SOL     OW73990   8.361   3.209   5.927  0.0897 -0.7432  0.4787
23048SOL    HW173991   8.444   3.222   5.881  0.4658 -1.4503  0.9356
23048SOL    HW273992   8.387   3.181   6.015 -0.6235 -2.1007  0.2839
23049SOL     OW73993   0.351   9.423   1.501 -0.1257 -0.6513 -0.7905
23049SOL    HW173994   0.343   9.507   1.456 -1.8846 -0.6476 -0.5405
23049SOL    HW273995   0.426   9.381   1.460  1.3928  1.4075 -0.2798
23050SOL     OW73996   6.421   0.763   2.107 -0.0837  0.1147 -0.4688
23050SOL    HW173997   6.356   0.822   2.068 -0.3266 -0.6351 -1.2133
23050SOL    HW273998   6.420   0.685   2.052 -0.8939 -1.2513  1.3697
23051SOL     OW73999   9.079   9.587   2.366  0.0719  0.4496 -0.2042
23051SOL    HW174000   9.025   9.509   2.376 -1.4602  1.7051  2.0430
23051SOL    HW274001   9.082   9.602   2.271 -1.4570 -1.0485 -0.5281
23052SOL     OW74002   5.405   3.854   2.500 -0.3184  0.0911  0.2824
23052SOL    HW174003   5.441   3.935   2.537  1.6005 -1.0001  0.9256
23052SOL    HW274004   5.478   3.813   2.455 -1.4015 -1.0354 -0.5265
23053SOL     OW74005   8.589   2.047   1.547 -0.4590  0.6044  0.0668
23053SOL    HW174006   8.578   2.021   1.455 -1.3841 -1.6016  0.7550
23053SOL    HW274007   8.501   2.073   1.575 -0.3376  0.5196  0.5308
23054SOL     OW74008   9.575   1.031   6.983 -0.3249 -0.0891 -0.1196
23054SOL    HW174009   9.612   1.078   6.908  0.5394  1.2389  1.0719
23054SOL    HW274010   9.505   1.088   7.015 -1.2531 -1.0449 -0.3921
23055SOL     OW74011   7.600   8.929   3.690  0.2547 -0.2342  0.3197
23055SOL    HW174012   7.574   8.869   3.620  0.2802  0.7566 -0.5610
23055SOL    HW274013   7.695   8.919   3.695  0.5104  1.0143 -1.0946
23056SOL     OW74014   6.686   9.686   3.371  0.0654 -0.3308  0.5732
23056SOL    HW174015   6.728   9.705   3.455  1.5686 -0.7927 -0.0332
23056SOL    HW274016   6.669   9.772   3.333 -0.2350 -0.1254  1.1579
23057SOL     OW74017   1.374   2.768   5.565 -0.1711 -0.0066  0.6664
23057SOL    HW174018   1.359   2.677   5.540  0.7656  0.2793 -1.0219
23057SOL    HW274019   1.424   2.763   5.647  0.2811 -1.0129  0.3343
23058SOL     OW74020   7.385   1.485   4.900  0.1496 -0.4071 -0.1883
23058SOL    HW174021   7.443   1.540   4.849 -1.1613  0.1137 -1.1803
23058SOL    HW274022   7.420   1.397   4.891  1.9426  0.1417  0.9436
23059SOL     OW74023   9.335   1.186   2.360 -0.2118 -0.0021  0.3318
23059SOL    HW174024   9.400   1.179   2.291  0.1112  0.1596  0.6170
23059SOL    HW274025   9.262   1.235   2.321 -0.5186 -0.9108 -0.2445
23060SOL     OW74026   0.248   0.968   2.167 -0.3561 -0.4846  0.3488
23060SOL    HW174027   0.226   1.030   2.237  0.9314  1.1552 -0.6320
23060SOL    HW274028   0.167   0.958   2.118  0.0238  2.7180 -1.1513
23061SOL     OW74029   8.237   0.079   2.629  0.2912  0.1891 -0.2174
23061SOL    HW174030   8.196   0.124   2.703 -0.8455  1.7177 -1.7303
23061SOL    HW274031   8.331   0.083   2.648 -0.0117 -1.0232  1.9764
23062SOL     OW74032   8.908   1.014   3.446 -0.5376  0.2445  0.1821
23062SOL    HW174033   8.874   0.958   3.517 -0.5565 -0.3253 -0.2703
23062SOL    HW274034   8.986   0.969   3.415  1.0951  1.9057  1.6807
23063SOL     OW74035   8.925   0.133   4.344  0.4091  0.1515  0.4626
23063SOL    HW174036   8.967   0.099   4.264  2.0637  0.7006  1.0598
23063SOL    HW274037   8.944   0.068   4.411 -1.5282 -0.6298  0.3182
23064SOL     OW74038   8.581   0.602   5.029 -0.3990  0.5609  0.3304
23064SOL    HW174039   8.592   0.674   5.091  2.8372  1.1854 -0.7713
23064SOL    HW274040   8.518   0.544   5.070 -0.2436  2.1654  3.0402
23065SOL     OW74041   9.476   2.490   7.700  0.3016  0.3917 -0.0706
23065SOL    HW174042   9.395   2.535   7.673  0.3171  0.6510  0.3106
23065SOL    HW274043   9.546   2.545   7.666  0.3402 -0.5315 -1.5847
23066SOL     OW74044   9.743   1.439   4.880  0.2949  0.3422  0.0046
23066SOL    HW174045   9.713   1.464   4.967 -1.4151 -0.8510 -0.1869
23066SOL    HW274046   9.772   1.520   4.840 -0.6932  1.2232  1.0143
23067SOL     OW74047   7.133   8.290   7.081 -0.0984  0.1276  0.1123
23067SOL    HW174048   7.168   8.275   7.169 -1.8834 -0.7032  0.7366
23067SOL    HW274049   7.101   8.380   7.083 -2.1432 -0.5517  1.1200
23068SOL     OW74050   5.996   2.142   6.143  0.4848 -0.1514 -0.1916
23068SOL    HW174051   6.036   2.153   6.057 -1.3011 -0.5829 -1.1314
23068SOL    HW274052   5.902   2.144   6.126 -0.0580  3.3706  2.1925
23069SOL     OW74053   8.899   1.198   4.316 -0.1058  0.6437  0.4681
23069SOL    HW174054   8.841   1.270   4.339 -0.3247  0.3238  0.9305
23069SOL    HW274055   8.892   1.191   4.221 -1.3383  0.1903  0.5700
23070SOL     OW74056   7.342   9.547   2.751 -0.2764  0.3538 -0.0069
23070SOL    HW174057   7.271   9.568   2.811 -1.0794  1.8864 -1.3972
23070SOL    HW274058   7.340   9.618   2.686  2.8385  0.7386  0.1658
23071SOL     OW74059   9.066   2.742   4.854  0.0580  0.1667 -0.2620
23071SOL    HW174060   9.131   2.673   4.867  1.3733  1.5122  0.6636
23071SOL    HW274061   9.113   2.812   4.810 -0.1604  1.9354  2.0963
23072SOL     OW74062   8.322   1.478   4.782  0.0404 -0.2634 -0.4558
23072SOL    HW174063   8.328   1.481   4.687 -2.0581 -2.8472 -0.7825
23072SOL    HW274064   8.235   1.515   4.801 -0.4963 -1.7758  0.2002
23073SOL     OW74065   8.679   2.215   4.943  0.3248  0.0834  0.3176
23073SOL    HW174066   8.751   2.152   4.951 -0.4929 -0.9690 -0.3195
23073SOL    HW274067   8.721   2.295   4.911  1.0041 -1.0405 -1.7913
23074SOL     OW74068   9.725   0.623   4.573  0.3840 -0.8535 -0.5501
23074SOL    HW174069   9.733   0.529   4.591 -0.4324 -0.9292 -0.5454
23074SOL    HW274070   9.813   0.658   4.590  0.1375 -1.2249  1.7633
23075SOL     OW74071   0.429   0.489   4.695  0.2098  0.1877  0.5656
23075SOL    HW174072   0.419   0.396   4.674  0.5070  0.5712 -1.4992
23075SOL    HW274073   0.517   0.511   4.665  0.2721  1.0529  1.3603
23076SOL     OW74074   6.868   2.238   3.969  0.0659 -0.0194 -0.0512
23076SOL    HW174075   6.847   2.197   3.885 -1.9489  0.2589  0.2683
23076SOL    HW274076   6.944   2.189   4.001 -0.5440 -1.6580 -0.9738
23077SOL     OW74077   8.886   4.302   4.665  0.0508  0.3420  0.8133
23077SOL    HW174078   8.796   4.334   4.662  0.5794  1.9467  1.0286
23077SOL    HW274079   8.898   4.257   4.581 -1.5273 -1.6873  1.5950
23078SOL     OW74080   8.776   0.703   3.138 -0.0587  0.2783  0.7502
23078SOL    HW174081   8.709   0.731   3.200 -0.6969 -0.0372  0.2158
23078SOL    HW274082   8.856   0.697   3.190 -0.5088  0.3354  1.4649
23079SOL     OW74083   9.558   0.418   2.372  0.0105  0.1305  0.1172
23079SOL    HW174084   9.621   0.431   2.300  0.0249  2.2565  0.4385
23079SOL    HW274085   9.611   0.420   2.451 -0.1418 -1.0308  0.2542
23080SOL     OW74086   9.197   0.502   3.092  0.1558  0.1286 -0.3360
23080SOL    HW174087   9.125   0.457   3.047 -0.1095  0.8184 -0.6150
23080SOL    HW274088   9.165   0.591   3.106  0.2312 -0.0460  1.2145
23081SOL     OW74089   9.025   8.690   2.562 -0.5260  0.1514  0.4945
23081SOL    HW174090   9.029   8.769   2.617  0.9086  0.6719 -0.2916
23081SOL    HW274091   9.068   8.622   2.614 -0.2832  0.3222  0.5198
23082SOL     OW74092   8.398   9.319   6.416  0.0100 -0.2414  0.2977
23082SOL    HW174093   8.409   9.235   6.460 -1.3230 -0.4796  0.2005
23082SOL    HW274094   8.419   9.300   6.324  3.6471  0.4361  0.8088
23083SOL     OW74095   9.405   1.176   3.426 -0.2831  0.4528 -0.7007
23083SOL    HW174096   9.418   1.083   3.448 -1.9324  0.3046 -0.1896
23083SOL    HW274097   9.424   1.181   3.333 -1.0405 -0.6087 -0.9376
23084SOL     OW74098   8.150   2.840   5.258  0.1529 -0.2891  0.6750
23084SOL    HW174099   8.237   2.871   5.233  0.7641 -0.1881  2.7833
23084SOL    HW274100   8.156   2.745   5.247  0.5374 -0.2866  0.8299
23085SOL     OW74101   5.947   0.728   5.554 -0.5063 -0.5651  0.4756
23085SOL    HW174102   5.955   0.818   5.585  0.4432  0.8231 -3.3118
23085SOL    HW274103   5.854   0.707   5.567 -0.6363  0.6863  1.9024
23086SOL     OW74104   9.470   1.322   4.391  0.0276 -0.6450 -0.0643
23086SOL    HW174105   9.496   1.372   4.468 -1.0543 -0.5516  0.2603
23086SOL    HW274106   9.380   1.296   4.409 -0.4391 -0.1507 -1.5302
23087SOL     OW74107   8.910   1.577   4.766  0.3926 -0.0260  0.1509
23087SOL    HW174108   8.870   1.492   4.749  1.1396 -0.7437  1.8008
23087SOL    HW274109   8.989   1.557   4.815  0.0297  1.6952  1.5364
23088SOL     OW74110   8.342   9.467   7.680  0.1874  0.2067  0.3463
23088SOL    HW174111   8.424   9.489   7.724  0.3134 -0.9899  0.7478
23088SOL    HW274112   8.361   9.480   7.587 -0.3228  3.5364  0.5988
23089SOL     OW74113   7.272   1.232   2.717 -0.3466 -0.1846 -0.8471
23089SOL    HW174114   7.292   1.271   2.802 -0.1581 -0.3857 -0.7980
23089SOL    HW274115   7.306   1.142   2.723 -0.5264 -0.2680 -1.0571
23090SOL     OW74116   0.148   1.795   3.964  0.2199  0.3505  0.7993
23090SOL    HW174117   0.114   1.835   3.884  1.1502  0.5659  0.4968
23090SOL    HW274118   0.186   1.712   3.936  0.3058  0.2971  1.0669
23091SOL     OW74119   8.469   8.405   2.250 -0.1692 -0.2968 -0.2225
23091SOL    HW174120   8.561   8.421   2.269 -1.0783  2.4729  2.7929
23091SOL    HW274121   8.441   8.481   2.198 -1.0413 -0.4053  0.0617
23092SOL     OW74122   7.091   0.222   5.175  0.1189 -0.3164 -0.3105
23092SOL    HW174123   7.060   0.137   5.145 -1.8609 -0.3356  1.4998
23092SOL    HW274124   7.011   0.274   5.186  0.7340  0.1390  3.2751
23093SOL     OW74125   9.106   0.210   5.471  0.3392 -0.2254 -0.2215
23093SOL    HW174126   9.192   0.230   5.508  0.1592 -0.5417  0.3787
23093SOL    HW274127   9.123   0.140   5.408  0.5637 -0.0753 -0.3307
23094SOL     OW74128   8.592   9.198   5.822  0.3796 -0.5181 -0.0483
23094SOL    HW174129   8.616   9.153   5.741 -0.6861  0.7067 -1.0738
23094SOL    HW274130   8.501   9.225   5.810  0.7660  1.3213  0.7824
23095SOL     OW74131   9.357   0.528   4.022  0.5603 -0.0181  1.0306
23095SOL    HW174132   9.407   0.605   4.050 -0.7044  0.4269  2.2305
23095SOL    HW274133   9.394   0.505   3.937  1.7674  1.1877  1.1800
23096SOL     OW74134   9.654   8.981   6.346 -0.0031 -0.1840 -0.6424
23096SOL    HW174135   9.709   9.058   6.357  0.0578 -0.1922 -0.8850
23096SOL    HW274136   9.646   8.971   6.251  0.1419 -0.5812 -0.6147
23097SOL     OW74137   8.844   1.534   5.485  0.1575  0.8078  0.0077
23097SOL    HW174138   8.793   1.492   5.415 -1.8726 -0.3098  1.9998
23097SOL    HW274139   8.840   1.471   5.558  1.0256  2.4720  1.5754
23098SOL     OW74140   7.562   9.245   4.067  0.2356 -0.0727 -0.0650
23098SOL    HW174141   7.507   9.180   4.023 -1.8769  0.5760  1.4400
23098SOL    HW274142   7.525   9.329   4.041 -0.4584  0.3486  2.0356
23099SOL     OW74143   9.008   9.787   4.923  0.2081 -0.1674 -0.3532
23099SOL    HW174144   9.071   9.853   4.952 -0.5798  0.4171  0.0578
23099SOL    HW274145   8.996   9.804   4.829 -0.3691  0.5997 -0.1444
23100SOL     OW74146   7.581   1.678   3.762  0.1468 -0.4140  0.3439
23100SOL    HW174147   7.608   1.770   3.755 -1.3101 -0.0132 -0.4113
23100SOL    HW274148   7.660   1.628   3.742  1.0360  0.6568  1.0391
23101SOL     OW74149   7.926   1.129   2.204  0.4532 -0.0342 -0.0357
23101SOL    HW174150   7.857   1.066   2.187  1.7055 -1.1201 -1.3732
23101SOL    HW274151   8.007   1.078   2.200  1.3381  1.0339  2.2684
23102SOL     OW74152   7.656   0.838   3.835  0.1317 -0.0357 -0.0644
23102SOL    HW174153   7.748   0.812   3.825 -0.3320 -1.6546 -0.4453
23102SOL    HW274154   7.646   0.912   3.775  1.1095 -0.0091 -0.2197
23103SOL     OW74155   1.813   2.450   6.141  0.1943  0.4955  0.5388
23103SOL    HW174156   1.769   2.381   6.091 -2.3055  2.1318  0.3087
23103SOL    HW274157   1.827   2.521   6.078 -0.1071  1.3721  1.4276
23104SOL     OW74158   0.629   0.183   7.030 -0.2213 -0.3148  0.3726
23104SOL    HW174159   0.676   0.243   6.973 -0.0483 -0.7890  0.0094
23104SOL    HW274160   0.564   0.141   6.973  0.6552 -1.5720  0.2482
23105SOL     OW74161   9.608   2.245   4.916  0.3966  0.1943  0.5179
23105SOL    HW174162   9.703   2.241   4.903  0.5782 -1.4854  1.9143
23105SOL    HW274163   9.574   2.171   4.866 -0.0184  0.0010  1.0719
23106SOL     OW74164   9.106   3.050   2.369 -0.1040 -0.1175 -0.4354
23106SOL    HW174165   9.034   2.990   2.387  0.2940 -0.8141 -1.1076
23106SOL    HW274166   9.141   3.022   2.285  1.2557 -0.0999  0.0882
23107SOL     OW74167   9.095   1.479   4.950  0.2958 -0.2237  0.1198
23107SOL    HW174168   9.184   1.514   4.947  0.9864 -1.8897 -0.0446
23107SOL    HW274169   9.077   1.466   5.043 -0.8466  2.5684  0.3726
23108SOL     OW74170   7.996   1.444   2.979  0.1309 -0.0805 -0.3122
23108SOL    HW174171   8.040   1.402   3.053 -1.0009 -0.3203  0.2462
23108SOL    HW274172   7.967   1.372   2.923  1.4533  0.1126 -1.3100
23109SOL     OW74173   2.137   1.540   4.931 -0.6820  0.0220 -0.1249
23109SOL    HW174174   2.069   1.548   4.863 -0.4449 -0.5370 -0.4403
23109SOL    HW274175   2.090   1.551   5.013 -0.9733  0.7259 -0.3776
23110SOL     OW74176   7.121   0.614   3.185 -0.2428 -0.0820  0.4023
23110SOL    HW174177   7.089   0.527   3.164  1.1761 -0.4170 -0.5620
23110SOL    HW274178   7.212   0.613   3.156 -0.3368  1.8771 -0.0907
23111SOL     OW74179   8.465   8.831   5.490  0.5197  0.3489  0.0578
23111SOL    HW174180   8.435   8.790   5.571  0.0267  0.1898 -0.2095
23111SOL    HW274181   8.557   8.806   5.484  0.7674  0.9529  0.9456
23112SOL     OW74182   9.187   1.003   2.483  0.3600  0.1002 -0.0183
23112SOL    HW174183   9.253   1.036   2.422  1.0692 -2.4898 -0.7648
23112SOL    HW274184   9.237   0.971   2.558 -0.3614  1.3128  1.0374
23113SOL     OW74185   8.505   2.448   4.199  0.2511  0.5400  0.2719
23113SOL    HW174186   8.445   2.393   4.149 -0.4336  1.8335 -0.3883
23113SOL    HW274187   8.584   2.395   4.209 -0.0742 -0.2358 -1.0772
23114SOL     OW74188   0.786   9.331   2.726 -0.5788  0.8555 -0.0097
23114SOL    HW174189   0.774   9.424   2.741 -0.8071  0.6515  1.1576
23114SOL    HW274190   0.880   9.321   2.710 -0.1406  1.0015  2.2132
23115SOL     OW74191   5.855   2.815   4.653 -0.6831 -0.0254  0.0686
23115SOL    HW174192   5.769   2.851   4.672  0.2347  2.3025  0.1618
23115SOL    HW274193   5.855   2.801   4.558 -0.9124  0.7069 -0.0423
23116SOL     OW74194   8.776   2.391   4.198 -0.0914  0.6908 -0.3755
23116SOL    HW174195   8.850   2.375   4.256  0.7194 -1.0539 -1.8170
23116SOL    HW274196   8.758   2.306   4.158 -3.2393  0.9130  0.3026
23117SOL     OW74197   8.465   9.532   2.869 -0.3115 -0.2628 -0.5224
23117SOL    HW174198   8.534   9.594   2.889  3.2471 -4.3576  1.6199
23117SOL    HW274199   8.485   9.502   2.780  0.0649 -0.7040 -0.2925
23118SOL     OW74200   9.710   9.409   4.224  0.0386 -0.2180  0.4454
23118SOL    HW174201   9.805   9.419   4.219  0.2942 -2.1518  0.7832
23118SOL    HW274202   9.677   9.453   4.146  1.1779  0.6236  0.4014
23119SOL     OW74203   7.036   8.948   5.684 -0.2280 -0.2266  0.0502
23119SOL    HW174204   7.001   9.037   5.687 -0.3178 -0.2429 -0.4659
23119SOL    HW274205   7.021   8.919   5.594 -1.6860 -1.3601  0.6126
23120SOL     OW74206   8.093   1.116   4.614  0.0885  0.0344  0.0818
23120SOL    HW174207   8.168   1.171   4.634  1.6385 -1.8899 -0.2151
23120SOL    HW274208   8.072   1.137   4.523  1.3432 -0.5871 -0.3706
23121SOL     OW74209   7.947   8.034   6.844 -0.2184 -0.1652 -0.6009
23121SOL    HW174210   8.037   8.001   6.844 -0.3578 -0.5481 -0.3227
23121SOL    HW274211   7.893   7.956   6.851 -0.5290  0.1496  0.6557
23122SOL     OW74212   8.109   0.979   3.832 -0.2232 -0.1574  0.1774
23122SOL    HW174213   8.177   1.006   3.894  1.6957 -0.7690 -1.5449
23122SOL    HW274214   8.143   0.899   3.792 -1.0272  0.5917 -2.1518
23123SOL     OW74215   6.980   9.223   4.267 -0.4912 -0.6188  0.1770
23123SOL    HW174216   7.019   9.311   4.264 -0.0824 -0.7967  0.1505
23123SOL    HW274217   6.898   9.235   4.315 -0.1558 -0.3232  0.7006
23124SOL     OW74218   6.775   1.070   2.942 -0.0510 -0.4174 -0.0970
23124SOL    HW174219   6.766   1.021   2.860  0.2977 -0.1024 -0.3288
23124SOL    HW274220   6.718   1.145   2.931 -2.1866 -1.7826  1.0740
23125SOL     OW74221   9.567   2.925   3.311 -0.0523 -0.3540  0.0373
23125SOL    HW174222   9.481   2.913   3.352  0.3747  1.5013  1.6412
23125SOL    HW274223   9.630   2.896   3.377  0.5868 -0.0403 -0.4205
23126SOL     OW74224   6.463   0.060   4.400  0.2699  0.4283  0.2013
23126SOL    HW174225   6.390   0.018   4.446  0.4314  0.4978  0.5230
23126SOL    HW274226   6.504   0.114   4.467 -0.5522  1.9072 -0.4519
23127SOL     OW74227   9.006   3.356   4.499 -0.0926  0.5382  0.0170
23127SOL    HW174228   8.952   3.387   4.571 -0.9211 -0.5143 -0.1288
23127SOL    HW274229   9.026   3.265   4.522 -0.0169  0.3230 -0.8810
23128SOL     OW74230   8.362   1.510   4.519 -0.3725  0.2209  0.4699
23128SOL    HW174231   8.366   1.419   4.490  1.6501  0.3970  0.0898
23128SOL    HW274232   8.389   1.562   4.443  0.9813  0.9467  1.3914
23129SOL     OW74233   8.119   1.481   3.434 -0.8425 -1.0406 -0.2166
23129SOL    HW174234   8.106   1.480   3.528 -2.2569 -0.9765 -0.3959
23129SOL    HW274235   8.196   1.537   3.421 -2.2277  1.2436  0.7408
23130SOL     OW74236   7.724   1.008   5.899  0.2023  0.0331 -0.1960
23130SOL    HW174237   7.808   1.035   5.862  0.5493 -0.9272 -0.1385
23130SOL    HW274238   7.690   0.943   5.838  0.7843 -1.5767  1.1046
23131SOL     OW74239   7.947   9.743   4.489  0.5898 -0.3144  0.0195
23131SOL    HW174240   7.917   9.833   4.497 -0.3299 -0.1921 -3.4319
23131SOL    HW274241   7.868   9.692   4.471  1.2519 -1.6421  0.6847
23132SOL     OW74242   7.678   0.223   4.041 -0.6431  0.0634  0.2374
23132SOL    HW174243   7.738   0.205   4.113 -1.2839 -0.0480  0.7537
23132SOL    HW274244   7.734   0.255   3.970 -0.0265  0.3460  0.8435
23133SOL     OW74245   7.162   7.923   4.593 -0.1206 -0.0290 -0.7801
23133SOL    HW174246   7.216   7.987   4.546  0.2472 -0.5488 -1.0623
23133SOL    HW274247   7.087   7.974   4.624  0.0767  0.5035 -1.1650
23134SOL     OW74248   9.031   9.656   3.997 -0.0563 -0.6386 -0.4314
23134SOL    HW174249   9.105   9.623   4.050 -0.1401 -0.7653 -0.3922
23134SOL    HW274250   9.058   9.640   3.907 -1.0169 -2.8792 -0.3941
23135SOL     OW74251   8.381   0.724   6.633  0.3424  0.6775 -0.3515
23135SOL    HW174252   8.303   0.668   6.638 -0.8234  2.2596  0.1015
23135SOL    HW274253   8.408   0.720   6.542 -0.9277  0.9381 -0.7562
23136SOL     OW74254   6.499   1.256   2.619 -0.0109  0.6199  0.0994
23136SOL    HW174255   6.544   1.311   2.554 -0.9884 -0.5999 -1.7044
23136SOL    HW274256   6.409   1.249   2.585 -0.7082  0.3806  1.9007
23137SOL     OW74257   9.426   0.985   5.098  0.2779 -0.3585 -0.9074
23137SOL    HW174258   9.473   0.903   5.086  1.1499  0.0954 -0.6520
23137SOL    HW274259   9.408   0.989   5.192 -0.3227 -0.5475 -1.0070
23138SOL     OW74260   9.761   9.240   5.416  0.0989  0.1463  0.6347
23138SOL    HW174261   9.713   9.308   5.367  1.5218  1.8858  1.5269
23138SOL    HW274262   9.699   9.211   5.482 -0.0943  1.6661  1.1715
23139SOL     OW74263   6.181   1.310   4.354 -0.4215 -0.5681  0.2237
23139SOL    HW174264   6.148   1.228   4.392  0.9778 -2.6455 -2.6824
23139SOL    HW274265   6.269   1.289   4.324  1.2997  3.0083  2.1285
23140SOL     OW74266   8.184   1.745   5.172 -0.8058 -0.3254 -0.1225
23140SOL    HW174267   8.183   1.691   5.092 -0.6597  0.9467 -1.0075
23140SOL    HW274268   8.093   1.774   5.181 -0.4608  1.0743 -0.9247
23141SOL     OW74269   9.408   9.676   3.443  0.7057 -0.0647 -0.0169
23141SOL    HW174270   9.492   9.630   3.453  0.6205 -0.3708 -0.6405
23141SOL    HW274271   9.400   9.729   3.522 -0.2320 -2.7716  1.8482
23142SOL     OW74272   8.920   9.067   2.529 -0.2740 -0.2232  0.2915
23142SOL    HW174273   8.949   9.155   2.506 -0.9939 -0.0098  0.1520
23142SOL    HW274274   8.988   9.009   2.495 -0.1699  0.2339 -0.2959
23143SOL     OW74275   9.850   0.947   4.331  0.2936  0.3383  0.3200
23143SOL    HW174276   9.772   0.925   4.280  0.1177  0.1369  0.6745
23143SOL    HW274277   9.826   1.025   4.381  0.3873  0.3975  0.2728
23144SOL     OW74278   9.069   0.732   4.649 -0.0087 -0.2561  0.1153
23144SOL    HW174279   9.078   0.721   4.554  0.6341 -0.1398  0.1600
23144SOL    HW274280   9.152   0.770   4.677  0.7472 -2.4607  1.0674
23145SOL     OW74281   8.684   0.564   3.589  0.0482 -0.2630 -0.7113
23145SOL    HW174282   8.720   0.517   3.513  0.3445  1.3494 -1.6213
23145SOL    HW274283   8.589   0.560   3.577 -0.0721 -2.7654  0.5939
23146SOL     OW74284   6.968   0.059   4.037 -0.9052  0.2517 -0.2299
23146SOL    HW174285   6.979   0.018   4.123 -0.3189  0.4759 -0.1961
23146SOL    HW274286   7.056   0.087   4.012 -1.2476  1.2168 -0.3966
23147SOL     OW74287   8.217   2.075   2.345  0.4477 -0.4301  0.3039
23147SOL    HW174288   8.204   2.032   2.429  0.2193 -1.4168 -0.2221
23147SOL    HW274289   8.291   2.029   2.305  0.3115 -0.2290 -0.1958
23148SOL     OW74290   6.798   0.599   3.539 -0.7240  0.2180  0.0620
23148SOL    HW174291   6.869   0.626   3.481  0.6450 -4.4422 -0.8526
23148SOL    HW274292   6.724   0.583   3.480 -0.6514 -0.4566  0.1395
23149SOL     OW74293   9.431   7.559   4.222 -0.5657 -0.4674 -0.1820
23149SOL    HW174294   9.393   7.595   4.302 -0.2871 -1.4184  0.3934
23149SOL    HW274295   9.505   7.616   4.203 -1.5084  0.6546 -0.6106
23150SOL     OW74296   7.044   9.526   4.272  0.2477 -0.3350 -0.6147
23150SOL    HW174297   7.095   9.506   4.350 -0.6332  1.5639  0.5081
23150SOL    HW274298   6.954   9.535   4.303 -0.5076 -1.6854 -2.2378
23151SOL     OW74299   6.822   6.713   2.273  0.4282  0.6721  0.0859
23151SOL    HW174300   6.889   6.703   2.206 -1.8837 -0.5943 -2.1973
23151SOL    HW274301   6.828   6.632   2.324 -1.0135 -0.7392 -1.8286
23152SOL     OW74302   9.075   0.755   5.027 -0.1256  0.1122 -0.1452
23152SOL    HW174303   9.079   0.787   5.117  0.4977  0.2528 -0.2156
23152SOL    HW274304   9.006   0.688   5.029  0.7454 -0.8028  0.7410
23153SOL     OW74305   1.652   1.997   4.848  0.0591 -0.1206 -0.4379
23153SOL    HW174306   1.629   2.088   4.869 -0.8624 -0.4897  0.2133
23153SOL    HW274307   1.605   1.945   4.913  1.2699 -1.0248 -0.2479
23154SOL     OW74308   7.386   0.662   4.723 -0.1679  0.3660 -0.5404
23154SOL    HW174309   7.460   0.628   4.671 -0.7822 -0.7320 -0.7389
23154SOL    HW274310   7.378   0.600   4.796 -1.7534 -0.3667 -1.2835
23155SOL     OW74311   8.647   8.419   3.865 -0.4651 -0.2565 -0.3024
23155SOL    HW174312   8.719   8.388   3.920  0.1913  1.7097  0.0487
23155SOL    HW274313   8.684   8.421   3.777  0.0990  1.1612 -0.0601
23156SOL     OW74314   7.907   2.953   4.253  0.3758 -0.1954  0.0586
23156SOL    HW174315   7.917   2.994   4.167  0.6642  1.0561  0.6715
23156SOL    HW274316   7.888   2.861   4.234  4.2897 -0.8743 -1.3239
23157SOL     OW74317   7.988   3.567   2.756  0.1738 -0.0757 -0.4282
23157SOL    HW174318   8.012   3.500   2.820 -1.2880  0.0265  0.2572
23157SOL    HW274319   8.041   3.546   2.679  2.0400 -0.1652  0.8048
23158SOL     OW74320   6.840   1.121   2.014 -0.2477 -0.6346  0.4059
23158SOL    HW174321   6.803   1.034   2.029 -2.1907  0.3032  1.4790
23158SOL    HW274322   6.788   1.157   1.943 -1.3518  0.6340  1.7935
23159SOL     OW74323   0.658   9.236   4.383  0.1641  0.2585  0.0645
23159SOL    HW174324   0.574   9.240   4.427  0.9449  0.9825  1.5665
23159SOL    HW274325   0.712   9.181   4.440  1.1918  1.1718  0.0103
23160SOL     OW74326   8.362   8.800   4.452  0.5247  0.0014  0.3897
23160SOL    HW174327   8.371   8.770   4.542  0.4214 -0.0560  0.3817
23160SOL    HW274328   8.398   8.728   4.399 -1.4741 -0.9897  0.2690
23161SOL     OW74329   9.717   1.693   6.351 -0.7407 -0.5093 -0.2975
23161SOL    HW174330   9.793   1.637   6.332  0.0674  0.3022  0.4852
23161SOL    HW274331   9.661   1.683   6.274  0.2778 -0.9302 -1.0064
23162SOL     OW74332   8.100   9.544   7.233  0.6087  0.1655 -0.5130
23162SOL    HW174333   8.024   9.600   7.214  0.5380  0.0177 -0.6698
23162SOL    HW274334   8.086   9.516   7.324 -0.6647 -1.5973 -1.1863
23163SOL     OW74335   7.212   1.583   4.225 -0.1036  0.6468 -0.2808
23163SOL    HW174336   7.166   1.512   4.180  0.7082  0.7200 -1.2598
23163SOL    HW274337   7.239   1.545   4.308 -1.7573  0.5457  0.2555
23164SOL     OW74338   6.080   0.774   3.412  0.0940  0.4671  0.4366
23164SOL    HW174339   5.998   0.777   3.362 -0.5271 -0.3495  1.3658
23164SOL    HW274340   6.063   0.711   3.482  1.5261  0.2878  0.6504
23165SOL     OW74341   9.756   9.446   4.974  0.3645  0.3992 -0.9703
23165SOL    HW174342   9.821   9.376   4.978 -0.0653 -0.0954 -1.9800
23165SOL    HW274343   9.804   9.522   4.939  0.6426  0.3574 -0.6778
23166SOL     OW74344   8.562   9.611   4.659 -0.1262 -0.5525  0.4771
23166SOL    HW174345   8.588   9.575   4.574 -2.4149 -1.9637  0.2670
23166SOL    HW274346   8.506   9.543   4.697 -0.8301  0.9190  2.2002
23167SOL     OW74347   6.426   0.053   4.756  0.5006 -0.9618 -0.1623
23167SOL    HW174348   6.518   0.044   4.730  0.6014 -0.1689 -0.1133
23167SOL    HW274349   6.378  -0.001   4.694  0.5638  1.9606 -3.0516
23168SOL     OW74350   7.761   1.308   5.109  0.1229  0.0872  0.0063
23168SOL    HW174351   7.824   1.370   5.146 -0.6869 -0.8224  3.2703
23168SOL    HW274352   7.729   1.259   5.185 -0.7608 -2.9709 -2.1719
23169SOL     OW74353   9.226   8.751   6.036  0.0135  0.2012  0.4644
23169SOL    HW174354   9.176   8.833   6.037  0.4049  0.4408  0.5736
23169SOL    HW274355   9.310   8.774   6.074  0.2874 -0.1554  0.0787
23170SOL     OW74356   9.753   9.851   8.487 -0.1019 -0.1249  0.5707
23170SOL    HW174357   9.746   9.930   8.540 -2.6283 -0.8913  1.5281
23170SOL    HW274358   9.803   9.878   8.410 -0.5416  2.2868  1.0543
23171SOL     OW74359   0.091   1.035   3.910 -0.1051  0.3472  0.5285
23171SOL    HW174360   0.112   0.948   3.877 -1.5761  0.7761 -1.8122
23171SOL    HW274361  -0.003   1.032   3.929  0.0196  1.1631  1.3479
23172SOL     OW74362   7.521   9.725   4.875  0.0901  0.2174  0.4391
23172SOL    HW174363   7.557   9.716   4.786  3.6552 -0.7535  1.7834
23172SOL    HW274364   7.498   9.636   4.900 -1.9178  0.6270  0.1944
23173SOL     OW74365   8.816   0.846   4.783 -0.1548 -0.1236  0.2718
23173SOL    HW174366   8.811   0.941   4.796  0.8919  0.0127 -0.2441
23173SOL    HW274367   8.903   0.831   4.746 -1.4291 -0.9145 -2.6699
23174SOL     OW74368   8.511   0.633   4.419  0.0558  0.4507 -0.5971
23174SOL    HW174369   8.558   0.632   4.336  0.6042  2.3121 -0.3589
23174SOL    HW274370   8.556   0.700   4.471 -2.3558  1.7585 -0.0631
23175SOL     OW74371   0.329   2.390   5.149 -0.1254 -0.2619  0.1118
23175SOL    HW174372   0.363   2.431   5.069 -1.7994  0.0153 -0.4921
23175SOL    HW274373   0.310   2.464   5.208 -2.4813 -0.1205 -0.7148
23176SOL     OW74374   7.074   1.862   5.319 -0.0164 -0.4827  0.9718
23176SOL    HW174375   7.043   1.943   5.278 -2.3864 -1.2156  1.1157
23176SOL    HW274376   7.136   1.891   5.386  2.2342  0.8783 -1.5217
23177SOL     OW74377   9.191   2.079   3.546 -0.3140  0.0087  0.0379
23177SOL    HW174378   9.155   2.081   3.634 -0.0131  1.3029  0.1534
23177SOL    HW274379   9.284   2.065   3.558  0.0932  2.3625  0.0972
23178SOL     OW74380   9.713   2.191   4.145  0.0055 -0.7030  0.0190
23178SOL    HW174381   9.791   2.231   4.107 -0.3428  0.8023  0.8112
23178SOL    HW274382   9.739   2.101   4.164  0.8244 -0.9010 -1.8221
23179SOL     OW74383   8.492   9.789   3.873 -0.2763 -0.0065  0.1296
23179SOL    HW174384   8.459   9.699   3.876 -1.1520  0.3204  0.4878
23179SOL    HW274385   8.572   9.783   3.819 -0.2249 -1.0193  0.2944
23180SOL     OW74386   7.551   0.314   3.818  0.2253 -0.3046 -0.3678
23180SOL    HW174387   7.562   0.250   3.889 -0.7863  1.3025  1.3481
23180SOL    HW274388   7.632   0.365   3.819 -0.9588  1.8255  2.0181
23181SOL     OW74389   8.542   1.340   5.315  0.4806  0.4390 -0.2972
23181SOL    HW174390   8.490   1.411   5.354  0.6391  0.5195 -0.2293
23181SOL    HW274391   8.552   1.365   5.224  0.2078  0.3090 -0.3629
23182SOL     OW74392   7.813   0.817   4.786  0.6061 -0.0371  0.0001
23182SOL    HW174393   7.802   0.760   4.862 -0.1823 -0.1056 -0.1521
23182SOL    HW274394   7.731   0.808   4.737  1.2594 -0.3085 -1.0813
23183SOL     OW74395   5.500   0.117   3.309  0.4189  0.2292  0.6722
23183SOL    HW174396   5.479   0.177   3.380  1.1021  0.7521  0.4489
23183SOL    HW274397   5.577   0.156   3.267  0.6299 -0.5910  0.2709
23184SOL     OW74398   7.819   1.580   5.008  0.2857  0.1719 -0.5584
23184SOL    HW174399   7.798   1.545   4.922 -0.2619  1.1676 -0.8454
23184SOL    HW274400   7.734   1.596   5.049  0.4133  2.7499 -1.1102
23185SOL     OW74401   7.288   2.295   4.525 -0.8084 -0.2539  0.3278
23185SOL    HW174402   7.304   2.386   4.499 -0.2200 -0.5838 -0.5264
23185SOL    HW274403   7.363   2.247   4.490 -0.3678 -0.8640  2.0062
23186SOL     OW74404   1.078   9.586   7.602 -0.0618 -0.5958  0.5331
23186SOL    HW174405   1.108   9.672   7.574  1.6540 -1.4925 -0.5372
23186SOL    HW274406   0.984   9.586   7.582 -0.0644  0.9439  0.4168
23187SOL     OW74407   6.512   2.022   4.112 -0.1708 -0.1581 -0.2977
23187SOL    HW174408   6.547   2.111   4.118  0.6096 -0.5781  3.3651
23187SOL    HW274409   6.418   2.032   4.121 -0.1833  0.3474 -0.9522
23188SOL     OW74410   8.394   1.059   6.830 -0.4406 -0.1719 -0.6303
23188SOL    HW174411   8.487   1.053   6.812 -0.3087 -1.7974  0.3935
23188SOL    HW274412   8.354   1.082   6.745  0.7719 -0.6174 -1.3393
23189SOL     OW74413   0.354   8.236   5.747 -0.1597 -0.0908  0.4033
23189SOL    HW174414   0.396   8.211   5.665 -0.5170  0.1784  0.1336
23189SOL    HW274415   0.386   8.324   5.765  1.1751 -0.7425  1.4052
23190SOL     OW74416   8.377   7.688   3.242  0.3822  0.2640  0.1515
23190SOL    HW174417   8.443   7.654   3.302  0.4694 -0.4442 -0.3312
23190SOL    HW274418   8.340   7.610   3.200 -3.1457  0.2666  2.7622
23191SOL     OW74419   9.378   2.687   5.198  0.3777  0.1912  0.5027
23191SOL    HW174420   9.378   2.626   5.124  1.1209 -0.2904  0.9004
23191SOL    HW274421   9.418   2.767   5.163  1.8487 -0.4353  0.6968
23192SOL     OW74422   8.583   3.092   5.202 -0.4341  0.4757  0.0599
23192SOL    HW174423   8.554   3.179   5.175  0.6594  0.7295 -0.3329
23192SOL    HW274424   8.666   3.107   5.248  0.9561 -0.5151 -1.9657
23193SOL     OW74425   7.849   0.138   3.364  0.8862 -0.2070 -0.2768
23193SOL    HW174426   7.771   0.159   3.312 -0.0776  0.7979  1.4764
23193SOL    HW274427   7.845   0.043   3.375 -0.5820 -0.0898  0.4696
23194SOL     OW74428   0.405   0.742   3.340 -0.5607  0.1382 -0.0794
23194SOL    HW174429   0.386   0.763   3.431 -0.2817  1.4285 -0.3050
23194SOL    HW274430   0.485   0.689   3.344 -0.6094  0.1023  0.4391
23195SOL     OW74431   8.571   2.169   4.157 -0.3244 -0.2963  0.3287
23195SOL    HW174432   8.528   2.087   4.182  1.6082 -2.5850 -2.9580
23195SOL    HW274433   8.550   2.179   4.064  0.9952  1.9775  0.2075
23196SOL     OW74434   8.819   2.934   4.571  0.4343  0.1798 -0.4547
23196SOL    HW174435   8.788   2.971   4.653  0.0576 -0.0227 -0.5046
23196SOL    HW274436   8.841   2.843   4.591  1.6618  0.5016 -0.2587
23197SOL     OW74437   9.146   1.149   4.136  0.4233 -0.1942  0.0234
23197SOL    HW174438   9.171   1.241   4.143 -0.0003 -0.0553 -0.2821
23197SOL    HW274439   9.216   1.102   4.183 -0.8209  0.4606  2.7139
23198SOL     OW74440   0.142   2.631   3.957  0.1485  0.2422  0.3236
23198SOL    HW174441   0.067   2.642   4.015  0.8195  0.9838  1.0737
23198SOL    HW274442   0.128   2.546   3.915  0.0311 -0.6924  2.1493
23199SOL     OW74443   9.685   0.356   4.587  0.1978 -0.3242  0.1149
23199SOL    HW174444   9.754   0.336   4.524  0.1874 -1.6808  0.5040
23199SOL    HW274445   9.610   0.382   4.533  0.3389 -0.9891 -0.4055
23200SOL     OW74446   5.209   3.280   5.900  0.4453 -0.4628  0.2689
23200SOL    HW174447   5.206   3.216   5.829  1.2803 -0.6428  0.3916
23200SOL    HW274448   5.196   3.364   5.857 -1.1393 -0.7310  0.1626
23201SOL     OW74449   8.755   1.371   3.566 -0.1204  0.0552  0.4408
23201SOL    HW174450   8.790   1.456   3.591 -0.1941 -0.2317  1.5634
23201SOL    HW274451   8.808   1.344   3.491  0.6310  0.5840  0.7731
23202SOL     OW74452   0.002   8.916   4.231 -0.0597 -0.0473 -0.0766
23202SOL    HW174453   0.075   8.958   4.277  0.3494  0.3069 -1.0290
23202SOL    HW274454  -0.032   8.853   4.294  2.5061 -1.8733 -0.3495
23203SOL     OW74455   8.458   2.465   4.601  0.2492 -0.2973 -0.2682
23203SOL    HW174456   8.381   2.475   4.545  0.2126  0.6073 -0.0860
23203SOL    HW274457   8.532   2.462   4.540  0.0286 -1.9021 -0.4803
23204SOL     OW74458   7.510   3.575   4.439  0.3245  0.0450 -0.5584
23204SOL    HW174459   7.508   3.599   4.532  0.6407  1.4976 -0.9112
23204SOL    HW274460   7.522   3.658   4.393  0.5892 -0.7100 -1.8828
23205SOL     OW74461   7.734   1.510   4.725  0.5205  0.3786  0.4453
23205SOL    HW174462   7.803   1.567   4.691  1.2325 -0.5819  0.2370
23205SOL    HW274463   7.705   1.460   4.650  2.4141 -2.0779  1.2080
23206SOL     OW74464   7.712   0.958   2.261  0.4731  0.2343  0.3655
23206SOL    HW174465   7.625   0.947   2.223  0.5798 -0.3392  0.2718
23206SOL    HW274466   7.716   0.892   2.331  1.8735 -1.8635 -1.5293
23207SOL     OW74467   8.156   2.356   3.651 -0.2938  0.2001 -0.0721
23207SOL    HW174468   8.248   2.375   3.672  0.1591 -0.4288 -1.3700
23207SOL    HW274469   8.126   2.301   3.724  0.5695 -0.1439  0.0352
23208SOL     OW74470   9.301   0.985   7.252 -0.5098  1.0318 -0.1192
23208SOL    HW174471   9.232   0.941   7.301  1.1523 -0.3606  1.0616
23208SOL    HW274472   9.342   1.043   7.316  1.0899 -0.1202 -0.0552
23209SOL     OW74473   0.425   9.783   5.299 -0.0482 -0.8157 -0.2633
23209SOL    HW174474   0.411   9.716   5.232 -2.6209 -0.0719 -0.6010
23209SOL    HW274475   0.516   9.808   5.290  0.7623 -3.5428 -0.7835
23210SOL     OW74476   8.589   8.891   5.148 -0.3548  0.4227  0.7285
23210SOL    HW174477   8.657   8.948   5.183  0.1492  0.8130 -0.8569
23210SOL    HW274478   8.632   8.841   5.079 -2.2007  2.4369 -2.0527
23211SOL     OW74479   0.272   0.590   4.892 -0.0803 -0.6058 -0.4975
23211SOL    HW174480   0.320   0.541   4.826 -1.9557 -0.8395 -1.7621
23211SOL    HW274481   0.185   0.603   4.854 -1.1846 -0.6001  1.8507
23212SOL     OW74482   1.545   3.579   6.004 -0.3015  0.2790 -0.2322
23212SOL    HW174483   1.516   3.670   6.011  0.5895  0.5370  0.3011
23212SOL    HW274484   1.468   3.527   6.027 -0.5195  0.9207  0.5491
23213SOL     OW74485   9.140   0.687   2.300 -0.7148 -0.1313  0.1318
23213SOL    HW174486   9.155   0.618   2.365  0.8186  0.7750  0.7893
23213SOL    HW274487   9.143   0.768   2.351 -1.5021  0.4964 -0.7844
23214SOL     OW74488   8.393   0.741   3.657  0.3094 -0.5965 -0.2773
23214SOL    HW174489   8.310   0.696   3.643 -0.5228  0.7801  0.0152
23214SOL    HW274490   8.425   0.707   3.740  0.2155 -1.3870 -0.5559
23215SOL     OW74491   9.082   2.731   4.348  0.5045  0.4298  0.2331
23215SOL    HW174492   8.998   2.725   4.394  0.4631  1.1781  0.2718
23215SOL    HW274493   9.065   2.694   4.262 -0.1089  1.3783 -0.0651
23216SOL     OW74494   8.282   0.860   5.124 -0.6440  0.9776 -0.0684
23216SOL    HW174495   8.360   0.852   5.177  0.5704  1.0699 -1.7543
23216SOL    HW274496   8.267   0.954   5.116 -2.1527  0.9592  1.8892
23217SOL     OW74497   8.378   1.140   2.491 -0.3249 -0.5803  0.0325
23217SOL    HW174498   8.409   1.054   2.463 -1.5031 -0.3513 -2.2088
23217SOL    HW274499   8.410   1.200   2.423 -2.8432  0.1256 -0.6049
23218SOL     OW74500   7.979   0.637   5.007 -0.3495  0.2159  0.0822
23218SOL    HW174501   7.977   0.568   4.941  0.7313  0.2335  0.0124
23218SOL    HW274502   8.068   0.673   5.002 -0.2683  0.2820  1.4680
23219SOL     OW74503   7.219   0.178   3.979 -0.0141  0.9871  0.2753
23219SOL    HW174504   7.247   0.128   4.056  1.0601  2.5205  0.9231
23219SOL    HW274505   7.245   0.122   3.905  0.5024  0.2594  0.9800
23220SOL     OW74506   9.678   8.768   4.389 -0.1563 -0.5843 -0.4288
23220SOL    HW174507   9.585   8.751   4.396 -0.6527  1.9306  0.3850
23220SOL    HW274508   9.697   8.825   4.464  2.2145 -1.7050 -0.0952
23221SOL     OW74509   5.560   9.795   6.144 -0.3942  0.1716  0.0605
23221SOL    HW174510   5.511   9.877   6.134 -0.9187  0.0331  1.3150
23221SOL    HW274511   5.580   9.791   6.238  0.4945 -0.6508 -0.1596
23222SOL     OW74512   9.427   0.317   4.484 -0.5947 -0.0738  0.2173
23222SOL    HW174513   9.421   0.223   4.468 -1.2888 -0.0475  0.3204
23222SOL    HW274514   9.376   0.357   4.414 -3.1115  0.0709  1.9812
23223SOL     OW74515   6.670   7.244   8.505  0.1682  0.0713 -0.5431
23223SOL    HW174516   6.732   7.285   8.445  1.3078 -0.1706  0.4372
23223SOL    HW274517   6.602   7.311   8.518  0.7454  0.7280 -0.8390
23224SOL     OW74518   9.279   9.680   2.535  0.6436 -0.3157  0.8045
23224SOL    HW174519   9.343   9.610   2.543  0.9818  0.0255  1.1710
23224SOL    HW274520   9.213   9.647   2.475  1.1938 -0.6536  0.3879
23225SOL     OW74521   7.763   2.525   4.024 -0.0881  0.6347  0.5686
23225SOL    HW174522   7.815   2.516   3.944  0.3165  1.0626  0.7751
23225SOL    HW274523   7.739   2.435   4.047 -1.1472  0.5825 -0.6317
23226SOL     OW74524   9.015   0.784   5.886 -0.0596  0.0295 -0.5720
23226SOL    HW174525   9.019   0.737   5.969  1.7316  1.0718 -0.0157
23226SOL    HW274526   9.104   0.780   5.851 -0.4866  0.7122 -1.8158
23227SOL     OW74527   8.385   2.742   3.028  0.1030 -0.0979 -0.1460
23227SOL    HW174528   8.436   2.815   3.065 -0.0220  0.6599 -1.4144
23227SOL    HW274529   8.335   2.708   3.102  0.6906  0.6560  0.6240
23228SOL     OW74530   8.901   0.563   5.157  0.0956 -0.4758 -0.1990
23228SOL    HW174531   8.809   0.590   5.154 -0.1422 -1.0900  0.9836
23228SOL    HW274532   8.903   0.479   5.112  0.0789 -0.4792 -0.1930
23229SOL     OW74533   9.536   1.376   4.684  0.1185  0.9315  0.0581
23229SOL    HW174534   9.506   1.292   4.718 -1.0958  1.6236  0.7591
23229SOL    HW274535   9.618   1.393   4.731  0.3919  0.1413 -0.1132
23230SOL     OW74536   5.980   0.220   3.861 -0.6379  0.4407  0.1353
23230SOL    HW174537   5.950   0.196   3.773  1.8371  0.7853 -0.8834
23230SOL    HW274538   5.986   0.137   3.908  0.3645 -0.0778 -0.8542
23231SOL     OW74539   8.305   1.208   4.781 -0.2858 -0.0520  0.6887
23231SOL    HW174540   8.338   1.174   4.864  0.6730 -0.3797  0.1819
23231SOL    HW274541   8.312   1.303   4.790 -0.4062 -0.0766  1.0619
23232SOL     OW74542   7.022   1.930   5.640  0.4768 -0.1345 -0.4328
23232SOL    HW174543   7.033   1.929   5.735  2.1119  2.9184 -0.4786
23232SOL    HW274544   7.106   1.898   5.606 -0.3636 -1.9619 -0.9231
23233SOL     OW74545   8.010   0.084   3.948 -0.1852  0.0810  0.2917
23233SOL    HW174546   8.039   0.022   4.015 -0.5481  0.5864  0.9409
23233SOL    HW274547   7.944   0.037   3.897 -1.4362  0.3188  1.6112
23234SOL     OW74548   9.716   1.455   1.910  0.3052 -0.2739 -0.1447
23234SOL    HW174549   9.722   1.534   1.964  0.4818 -1.0483  1.0026
23234SOL    HW274550   9.773   1.391   1.953  1.1466 -0.6592 -1.7528
23235SOL     OW74551   8.716   9.818   5.015 -0.3226  0.3265 -0.3181
23235SOL    HW174552   8.800   9.824   4.969  0.3321 -1.3013  0.5914
23235SOL    HW274553   8.651   9.837   4.948  0.7279  0.6952 -1.2664
23236SOL     OW74554   9.670   1.512   5.372 -0.0124  0.1537 -0.4832
23236SOL    HW174555   9.663   1.590   5.427 -0.6479  0.1363 -0.5267
23236SOL    HW274556   9.681   1.440   5.434  1.4995  0.3556 -0.4744
23237SOL     OW74557   7.845   1.547   3.792 -0.1737 -0.5669 -0.4682
23237SOL    HW174558   7.921   1.558   3.734 -0.4043 -0.0510 -0.6797
23237SOL    HW274559   7.853   1.619   3.855  0.8375 -1.9148  1.0252
23238SOL     OW74560   8.240   2.444   3.980 -0.2935  0.4471  0.1030
23238SOL    HW174561   8.179   2.370   3.973  0.6048 -0.3188  0.0731
23238SOL    HW274562   8.306   2.426   3.913  1.0358  0.2021  1.4160
23239SOL     OW74563   8.351   1.954   5.081  0.0825 -0.1292  0.6271
23239SOL    HW174564   8.337   1.915   4.994 -0.0295  1.1634  0.0506
23239SOL    HW274565   8.322   1.886   5.142  2.6899 -2.1736 -0.2175
23240SOL     OW74566   9.236   1.018   4.705 -0.2505  0.7082 -0.2431
23240SOL    HW174567   9.200   1.106   4.700  0.2172  0.9993  1.0196
23240SOL    HW274568   9.226   0.982   4.617  1.1646  2.6560 -1.2646
23241SOL     OW74569   7.555   9.842   2.809 -0.5223 -0.4185  0.3147
23241SOL    HW174570   7.501   9.913   2.846  1.0367  0.3111  1.3149
23241SOL    HW274571   7.578   9.872   2.722  0.7510  0.7092  1.0056
23242SOL     OW74572   9.183   2.660   6.695 -0.0035  0.2476  0.9094
23242SOL    HW174573   9.272   2.643   6.663 -0.0152  0.2054  0.8985
23242SOL    HW274574   9.155   2.576   6.732 -0.3958  0.0007  0.0631
23243SOL     OW74575   7.558   0.061   3.190  0.5432 -0.3284 -0.3231
23243SOL    HW174576   7.637   0.019   3.156  1.8100 -0.3441  2.3203
23243SOL    HW274577   7.554   0.032   3.282 -2.5940 -0.3478 -0.3762
23244SOL     OW74578   6.375   0.622   4.235  0.2355 -0.2334 -0.1350
23244SOL    HW174579   6.305   0.592   4.177 -1.4727  0.9100  1.2384
23244SOL    HW274580   6.388   0.549   4.296  1.9283 -1.3740 -1.7216
23245SOL     OW74581   0.222   1.372   4.589  0.2476 -0.3545 -0.1701
23245SOL    HW174582   0.187   1.455   4.556 -0.2239  0.3590  1.9776
23245SOL    HW274583   0.291   1.349   4.527  0.0606  1.3951 -1.0906
23246SOL     OW74584   6.971   0.781   1.973 -0.2360 -0.2345 -0.6903
23246SOL    HW174585   6.935   0.788   2.062  0.4582  0.2722 -0.4311
23246SOL    HW274586   6.898   0.753   1.919 -0.9276  0.4159 -0.1249
23247SOL     OW74587   8.706   0.860   3.657 -0.6867  0.2110 -0.1263
23247SOL    HW174588   8.744   0.814   3.732  1.7456  0.5360 -1.0727
23247SOL    HW274589   8.628   0.808   3.634  0.8672 -2.3529  0.0447
23248SOL     OW74590   7.425   0.051   4.364 -0.0415 -0.3365  0.2701
23248SOL    HW174591   7.354  -0.008   4.390 -1.6005  0.3463 -2.0868
23248SOL    HW274592   7.392   0.138   4.384 -0.1645  0.0230 -1.3372
23249SOL     OW74593   7.376   1.063   3.643  0.0325  0.3108  0.4328
23249SOL    HW174594   7.365   1.158   3.641 -0.6796  0.3114  2.5816
23249SOL    HW274595   7.314   1.032   3.708 -0.2327 -1.7411 -0.6904
23250SOL     OW74596   8.402   9.419   4.801  0.0054  0.2955 -0.0965
23250SOL    HW174597   8.415   9.392   4.892 -1.1687  0.1832  0.0482
23250SOL    HW274598   8.321   9.470   4.802 -1.7151 -2.2199 -1.5570
23251SOL     OW74599   8.899   9.582   3.720 -0.5670  0.3574 -0.0398
23251SOL    HW174600   8.943   9.503   3.751 -1.4504 -0.4569 -0.8103
23251SOL    HW274601   8.970   9.638   3.688 -0.0348 -0.7169 -0.7848
23252SOL     OW74602   8.446   1.393   5.025 -0.4048 -0.0143  0.1272
23252SOL    HW174603   8.530   1.356   4.998  0.0114  0.7217  0.3932
23252SOL    HW274604   8.417   1.445   4.950 -0.3157  0.2477  0.2753
23253SOL     OW74605   9.717   1.123   3.646  0.0396 -0.2947 -0.3312
23253SOL    HW174606   9.783   1.069   3.688 -0.8057 -1.0611  0.0595
23253SOL    HW274607   9.678   1.174   3.717 -0.6942 -0.8395 -0.3306
23254SOL     OW74608   8.937   0.052   3.842  0.3288 -0.9990  0.2133
23254SOL    HW174609   8.894   0.117   3.787  2.1352 -0.8837 -1.1780
23254SOL    HW274610   8.868  -0.010   3.864 -0.6802 -0.5401 -1.4316
23255SOL     OW74611   7.076   1.828   6.881 -0.0800  0.1261 -0.5397
23255SOL    HW174612   7.079   1.784   6.796 -2.4763  0.6228 -0.9434
23255SOL    HW274613   7.160   1.807   6.922  0.3626 -1.6775 -2.2478
23256SOL     OW74614   7.918   0.727   3.749  0.1710 -0.2097  0.2331
23256SOL    HW174615   7.952   0.642   3.776 -1.2699 -0.7403  0.4844
23256SOL    HW274616   7.927   0.728   3.654  1.1356 -0.2122  0.3209
23257SOL     OW74617   8.498   1.029   5.555  0.0820 -0.0629  0.5614
23257SOL    HW174618   8.441   1.102   5.580 -0.4872 -0.2801 -0.0963
23257SOL    HW274619   8.463   0.953   5.602  0.1494 -0.0969  0.5578
23258SOL     OW74620   7.551   1.173   4.386  0.3090 -0.3345  0.2013
23258SOL    HW174621   7.593   1.088   4.376  0.0219 -0.2570 -2.1078
23258SOL    HW274622   7.458   1.154   4.397  0.4801 -0.3654  1.8082
23259SOL     OW74623   8.995   9.516   6.622  0.1182 -0.2274  0.0978
23259SOL    HW174624   9.048   9.593   6.642 -1.1092  0.6376  0.1525
23259SOL    HW274625   9.038   9.445   6.670  1.5841  0.2904 -0.3901
23260SOL     OW74626   8.431   3.420   7.296 -0.1393  0.2746 -0.3387
23260SOL    HW174627   8.370   3.403   7.224  0.7322 -0.0494 -1.0106
23260SOL    HW274628   8.513   3.445   7.253  0.9911 -1.8262  0.4754
23261SOL     OW74629   9.530   0.749   5.029 -0.4412 -0.1571 -0.1246
23261SOL    HW174630   9.621   0.753   4.999 -0.6005  0.4058 -0.5467
23261SOL    HW274631   9.534   0.704   5.113  0.0748 -1.3738 -0.7725
23262SOL     OW74632   7.420   0.408   6.153  0.4450  0.2076  0.3747
23262SOL    HW174633   7.331   0.390   6.183  0.1045  0.0932 -0.6595
23262SOL    HW274634   7.470   0.423   6.233 -0.3391 -0.4594  1.0093
23263SOL     OW74635   8.082   2.371   8.143  0.2898 -0.0509 -0.5028
23263SOL    HW174636   8.093   2.325   8.226  0.7780  1.5428  0.3642
23263SOL    HW274637   8.031   2.311   8.089 -0.8109 -0.7772  1.2487
23264SOL     OW74638   7.979   1.248   8.106 -0.1990  0.2289  0.7861
23264SOL    HW174639   7.899   1.207   8.139 -0.6743  0.8674  0.4458
23264SOL    HW274640   8.008   1.190   8.035 -1.1278  0.7084 -0.0128
23265SOL     OW74641   7.866   0.236   5.966  0.4032 -0.2132  0.1981
23265SOL    HW174642   7.949   0.201   5.933  0.5627  0.5294 -0.2030
23265SOL    HW274643   7.877   0.331   5.965 -1.1237  0.0078 -1.7322
23266SOL     OW74644   8.874   2.184   6.693 -0.1586 -0.0814 -0.5560
23266SOL    HW174645   8.950   2.193   6.751  1.0184 -2.4295 -1.5882
23266SOL    HW274646   8.843   2.274   6.681  2.0889  0.9207  0.3791
23267SOL     OW74647   9.159   1.811   6.503  0.5629 -0.0600  0.4149
23267SOL    HW174648   9.235   1.848   6.458 -0.0272  2.0788  1.0552
23267SOL    HW274649   9.104   1.776   6.432  0.7674  1.0815 -0.3371
23268SOL     OW74650   7.794   0.946   5.086 -0.1078  0.0540 -0.7281
23268SOL    HW174651   7.798   1.001   5.164 -0.9891  1.7616 -1.8191
23268SOL    HW274652   7.883   0.945   5.053  0.1105 -0.0005 -0.1562
23269SOL     OW74653   7.928   0.420   4.501 -0.5569  0.4282  0.1240
23269SOL    HW174654   8.002   0.398   4.444  0.2430  1.0372  0.8914
23269SOL    HW274655   7.856   0.439   4.441 -0.3698 -1.0539 -0.6250
23270SOL     OW74656   5.442   0.174   6.118 -0.2468  0.0314 -0.6371
23270SOL    HW174657   5.351   0.184   6.091 -0.4215  0.0766 -0.0558
23270SOL    HW274658   5.463   0.256   6.164 -0.8211 -1.0563  1.7320
23271SOL     OW74659   0.269   2.486   6.900 -0.9266 -0.1862 -0.4166
23271SOL    HW174660   0.276   2.542   6.977 -0.3797 -0.1797 -0.4706
23271SOL    HW274661   0.181   2.503   6.866 -1.2162 -0.2709  0.2688
23272SOL     OW74662   5.148   0.218   6.127  0.0675 -0.0424  0.0820
23272SOL    HW174663   5.148   0.296   6.183 -1.8751 -0.4499  0.7383
23272SOL    HW274664   5.065   0.224   6.079  0.5125 -1.0426 -0.8485
23273SOL     OW74665   8.381   0.382   9.446 -0.5751  0.1149 -0.2719
23273SOL    HW174666   8.414   0.369   9.534 -1.5578  1.3227  0.3057
23273SOL    HW274667   8.285   0.383   9.456 -0.7842 -1.3652 -1.6047
23274SOL     OW74668   9.134   7.529   7.114 -0.0195 -0.3131  0.1721
23274SOL    HW174669   9.228   7.515   7.125 -0.2162 -0.1884  2.5113
23274SOL    HW274670   9.109   7.581   7.191 -1.6867  1.2723 -1.3575
23275SOL     OW74671   7.500   2.430   5.276 -0.0515  0.6076 -0.1993
23275SOL    HW174672   7.574   2.404   5.331  1.2650  0.3423 -2.0426
23275SOL    HW274673   7.448   2.487   5.333  1.7902  1.1733  1.0107
23276SOL     OW74674   7.832   1.995   5.482  0.1940  0.6207  0.1901
23276SOL    HW174675   7.762   1.931   5.478 -0.2290  1.0730  0.2552
23276SOL    HW274676   7.847   2.008   5.576  0.3738  0.5185  0.1766
23277SOL     OW74677   8.374   0.901   5.771  0.3054  0.3419 -0.4193
23277SOL    HW174678   8.298   0.903   5.830 -0.3387  0.4973 -1.2437
23277SOL    HW274679   8.432   0.836   5.810 -0.5998 -0.3488 -0.1903
23278SOL     OW74680   6.593   1.588   4.939 -0.2160 -0.5278  0.0544
23278SOL    HW174681   6.634   1.534   5.006  3.4035 -1.1409 -2.3560
23278SOL    HW274682   6.577   1.528   4.866  0.8034  0.9712 -1.4796
23279SOL     OW74683   0.568   1.832   8.128  0.6912 -0.1909  0.0892
23279SOL    HW174684   0.564   1.842   8.224 -0.7686  1.7936 -0.1111
23279SOL    HW274685   0.478   1.814   8.102  0.6079  1.6605 -1.0794
23280SOL     OW74686   7.439   1.208   5.868  0.2435 -0.7735 -0.9284
23280SOL    HW174687   7.534   1.209   5.885  0.0558 -0.5501  0.1583
23280SOL    HW274688   7.432   1.216   5.773  1.2993  0.0359 -0.9504
23281SOL     OW74689   8.769   3.233   5.856 -0.5407  0.2007 -0.1875
23281SOL    HW174690   8.709   3.308   5.852 -0.6259  0.1059 -0.7813
23281SOL    HW274691   8.857   3.272   5.855 -0.5150  0.4699  2.7352
23282SOL     OW74692   0.890   2.317   6.547 -0.6822 -0.5393 -0.0803
23282SOL    HW174693   0.880   2.322   6.452 -2.1510 -0.8856  0.0261
23282SOL    HW274694   0.864   2.403   6.579  2.7059  0.6395 -0.1273
23283SOL     OW74695   9.137   9.019   4.491  0.5873 -0.2658 -0.7150
23283SOL    HW174696   9.222   8.996   4.528 -0.0068 -2.0227 -0.3537
23283SOL    HW274697   9.158   9.080   4.420  2.1784 -0.9562 -0.8907
23284SOL     OW74698   8.322   0.624   8.289  0.2614 -0.3180 -0.4910
23284SOL    HW174699   8.241   0.586   8.323 -1.9983  2.8254 -1.8260
23284SOL    HW274700   8.324   0.712   8.325  2.3966  0.1690 -1.6106
23285SOL     OW74701   7.696   0.350   4.355 -0.1232 -0.3520  0.3048
23285SOL    HW174702   7.673   0.295   4.430 -1.6367 -1.1760 -0.7154
23285SOL    HW274703   7.743   0.291   4.296 -2.0336 -0.7139 -0.9384
23286SOL     OW74704   9.088   0.699   6.541  0.1585  0.0521 -0.3614
23286SOL    HW174705   9.178   0.692   6.510 -0.2931  1.0483 -2.0615
23286SOL    HW274706   9.096   0.707   6.636  1.8187 -0.3424 -0.4343
23287SOL     OW74707   7.460   7.338   8.157 -0.8155 -0.4013 -0.0399
23287SOL    HW174708   7.449   7.411   8.218 -1.7391 -1.3762  0.9952
23287SOL    HW274709   7.550   7.347   8.125 -0.8805  1.1199  0.1367
23288SOL     OW74710   7.889   1.548   7.194  0.0020  0.2838 -0.2475
23288SOL    HW174711   7.871   1.534   7.287 -0.3618  1.1492 -0.1720
23288SOL    HW274712   7.820   1.609   7.165  1.4540  1.8925 -0.5072
23289SOL     OW74713   8.434   1.881   3.386  0.2803  0.3251 -0.1691
23289SOL    HW174714   8.529   1.886   3.377  0.2082 -0.0621 -1.4103
23289SOL    HW274715   8.403   1.967   3.356  0.1401 -0.3291 -2.0438
23290SOL     OW74716   7.387   1.753   4.504  0.2835  0.1930  0.6684
23290SOL    HW174717   7.325   1.681   4.494 -0.2418  0.6437  0.6154
23290SOL    HW274718   7.338   1.831   4.477  1.1968  0.4234 -0.4344
23291SOL     OW74719   9.776   2.344   7.648 -0.0539  0.0639 -0.2982
23291SOL    HW174720   9.713   2.371   7.582  0.6697  0.9809 -0.6309
23291SOL    HW274721   9.798   2.254   7.625 -1.5951 -0.4518  0.1163
23292SOL     OW74722   9.012   3.527   5.312 -0.6091  0.6234 -0.1393
23292SOL    HW174723   8.968   3.569   5.238  0.4336  0.9608 -0.5760
23292SOL    HW274724   9.046   3.445   5.277  0.5677  1.1407 -0.2614
23293SOL     OW74725   7.060   2.299   6.061 -0.3229 -0.0377 -0.2127
23293SOL    HW174726   7.061   2.349   6.142  0.9504 -1.4132  0.6663
23293SOL    HW274727   7.108   2.219   6.081  0.2073 -0.3397 -2.3910
23294SOL     OW74728   9.548   9.088   9.277  0.0733 -0.0687  0.2622
23294SOL    HW174729   9.500   9.135   9.345  1.0679  1.3963  0.0146
23294SOL    HW274730   9.489   9.087   9.202 -1.2270 -2.1398  1.2459
23295SOL     OW74731   0.342   2.211   7.352 -0.1609 -0.0719 -0.3818
23295SOL    HW174732   0.327   2.282   7.415  2.9280  0.1201  0.2559
23295SOL    HW274733   0.330   2.131   7.404  1.7328  0.0833  0.3850
23296SOL     OW74734   6.562   8.720   5.588  0.5872 -0.1486 -0.1216
23296SOL    HW174735   6.588   8.764   5.669 -1.3303  0.7686  0.0535
23296SOL    HW274736   6.595   8.777   5.519  0.3648  0.2155  0.0664
23297SOL     OW74737   8.095   0.139   4.312 -0.3534  0.5169  0.0347
23297SOL    HW174738   8.113   0.218   4.262  1.4747 -1.3292 -2.5160
23297SOL    HW274739   8.173   0.125   4.365 -0.4567  0.1966  0.1080
23298SOL     OW74740   8.742   8.939   9.121 -0.0858  0.4980  0.3687
23298SOL    HW174741   8.794   8.980   9.191 -2.1287  1.6868  1.3013
23298SOL    HW274742   8.807   8.905   9.060  1.7966  2.3923  1.1602
23299SOL     OW74743   6.173   3.189   8.133  0.2804 -0.1582  0.1659
23299SOL    HW174744   6.245   3.245   8.164 -0.3467  1.1151 -0.5599
23299SOL    HW274745   6.215   3.107   8.107  1.5409  0.6990 -0.6158
23300SOL     OW74746   8.838   9.413   3.281  0.1047  0.1082 -0.2905
23300SOL    HW174747   8.893   9.467   3.338  1.2503 -0.7952 -0.5050
23300SOL    HW274748   8.764   9.469   3.259  1.0229  1.4209 -0.1325
23301SOL     OW74749   0.676   0.879   8.686 -0.8014  0.1240  0.6631
23301SOL    HW174750   0.767   0.900   8.669 -1.2043  0.0768 -1.9495
23301SOL    HW274751   0.632   0.890   8.602 -2.6185 -2.8607  1.0361
23302SOL     OW74752   6.875   0.145   6.851 -0.5687 -0.1425 -1.0501
23302SOL    HW174753   6.917   0.200   6.918 -0.7040 -1.1453 -0.1027
23302SOL    HW274754   6.796   0.193   6.827 -1.9854 -0.9608  1.5530
23303SOL     OW74755   7.550   0.371   6.422  0.9032  0.4858 -0.6927
23303SOL    HW174756   7.563   0.418   6.504  0.2981  1.3073 -1.0475
23303SOL    HW274757   7.497   0.295   6.445 -0.1823  1.2899 -0.4828
23304SOL     OW74758   9.565   9.830   5.009  0.0075  0.6193  0.3879
23304SOL    HW174759   9.639   9.853   4.952  0.3659 -0.0132  0.5971
23304SOL    HW274760   9.504   9.903   4.997 -0.5894 -0.1690 -1.9340
23305SOL     OW74761   6.789   0.778   5.794 -0.1025  0.0311 -0.2490
23305SOL    HW174762   6.774   0.689   5.760  0.0041 -0.3702  0.7334
23305SOL    HW274763   6.719   0.792   5.857  0.0990  0.5086 -0.1298
23306SOL     OW74764   0.581   2.148   6.264 -0.2132  0.0436 -0.5433
23306SOL    HW174765   0.558   2.065   6.221 -1.6022  0.1911 -0.1120
23306SOL    HW274766   0.677   2.146   6.268 -0.1584 -0.9994 -1.6001
23307SOL     OW74767   8.928   9.576   5.119  0.1783 -0.3106  0.1103
23307SOL    HW174768   8.989   9.524   5.065  0.3268 -0.4719  0.4285
23307SOL    HW274769   8.932   9.664   5.081  1.1811 -0.1352  0.5769
23308SOL     OW74770   0.819   0.790   4.673  0.3435  0.0854 -0.3548
23308SOL    HW174771   0.747   0.746   4.719  0.0558  0.8690 -0.0409
23308SOL    HW274772   0.782   0.875   4.647  0.5773 -0.2435 -1.8281
23309SOL     OW74773   7.684   0.585   8.204  0.5984  0.1814  0.1235
23309SOL    HW174774   7.716   0.499   8.230  1.9521 -0.1457 -2.2948
23309SOL    HW274775   7.757   0.644   8.222 -0.0482  0.7191  1.0620
23310SOL     OW74776   9.853   2.604   4.635 -0.2058  0.3256 -0.2007
23310SOL    HW174777   9.839   2.693   4.665 -3.1036 -0.3972  0.9587
23310SOL    HW274778   9.824   2.604   4.544  4.4080  1.5084 -1.9415
23311SOL     OW74779   8.295   1.042   7.364  0.1594  0.1849 -0.3910
23311SOL    HW174780   8.383   1.062   7.398  0.6409  1.5151 -2.2464
23311SOL    HW274781   8.310   0.974   7.298  0.1722  1.9190 -2.2637
23312SOL     OW74782   7.848   0.791   8.812 -0.1160 -0.1536 -0.3319
23312SOL    HW174783   7.918   0.726   8.814  0.4170  0.4159 -0.1189
23312SOL    HW274784   7.776   0.750   8.860  0.5093 -0.2561  0.5473
23313SOL     OW74785   8.906   1.385   8.134  0.7212  0.1902  0.5822
23313SOL    HW174786   8.849   1.309   8.138 -2.0018  2.1084  0.9578
23313SOL    HW274787   8.967   1.374   8.206  0.9472 -1.9931  0.1092
23314SOL     OW74788   7.623   1.791   7.751 -0.0543  0.2777  0.1603
23314SOL    HW174789   7.716   1.769   7.757 -0.1611 -0.3144 -0.2813
23314SOL    HW274790   7.621   1.887   7.747  0.7233  0.2680 -2.4002
23315SOL     OW74791   8.964   2.413   3.801 -0.0542 -1.0482 -0.1489
23315SOL    HW174792   8.950   2.508   3.792  1.0179 -0.9109 -0.4133
23315SOL    HW274793   9.027   2.391   3.733 -0.8240 -2.0962 -0.5502
23316SOL     OW74794   7.814   1.976   8.130  0.2397 -0.4438  0.2282
23316SOL    HW174795   7.764   1.929   8.064 -1.7168  1.7598 -0.0214
23316SOL    HW274796   7.751   1.993   8.200  1.5577 -0.4252  1.4564
23317SOL     OW74797   8.578   1.360   6.203 -0.0836  0.2798 -0.0110
23317SOL    HW174798   8.544   1.446   6.226  0.4144  0.7580 -1.0224
23317SOL    HW274799   8.499   1.306   6.190 -0.3946  0.5925  0.5487
23318SOL     OW74800   0.826   0.360   7.678 -0.6443 -0.6341 -0.2188
23318SOL    HW174801   0.789   0.438   7.637  1.5206  0.1502 -0.8534
23318SOL    HW274802   0.835   0.297   7.606 -0.3722 -0.6602 -0.1620
23319SOL     OW74803   7.542   0.711   4.104 -0.0576 -0.1048  0.1582
23319SOL    HW174804   7.630   0.747   4.118 -0.0439  0.2289 -0.7268
23319SOL    HW274805   7.557   0.621   4.074  0.0450  0.4028 -1.3777
23320SOL     OW74806   6.067   0.477   7.694  0.2182 -0.0256  0.6327
23320SOL    HW174807   5.986   0.428   7.686  0.2090 -0.4586  2.8465
23320SOL    HW274808   6.053   0.555   7.640 -2.4179  0.8307  2.3829
23321SOL     OW74809   0.027   8.649   4.927  0.0933 -0.1771 -0.6232
23321SOL    HW174810  -0.049   8.678   4.877  0.1946 -0.9831 -1.2509
23321SOL    HW274811   0.081   8.601   4.865  1.8242  1.5429 -0.5373
23322SOL     OW74812   9.364   1.254   5.539 -0.0162  0.8586 -0.3400
23322SOL    HW174813   9.324   1.324   5.488  1.2611  2.5702  0.9198
23322SOL    HW274814   9.406   1.298   5.612  0.3822 -1.2883  0.8109
23323SOL     OW74815   9.355   1.486   5.376 -0.2266 -0.0351 -0.0935
23323SOL    HW174816   9.400   1.563   5.410  0.5553 -0.9608  1.0412
23323SOL    HW274817   9.401   1.464   5.295 -0.0097  0.2701 -0.0538
23324SOL     OW74818   8.923   0.238   5.934 -0.3350  0.0104  0.6823
23324SOL    HW174819   8.957   0.275   5.853 -0.7401 -1.4526 -0.1842
23324SOL    HW274820   8.841   0.286   5.949 -0.9471 -0.6304 -0.5143
23325SOL     OW74821   9.433   0.680   7.207 -0.3326  0.3114 -0.2066
23325SOL    HW174822   9.456   0.590   7.183  2.8506  1.0578 -0.3914
23325SOL    HW274823   9.338   0.679   7.213 -0.3883 -3.3170  0.8446
23326SOL     OW74824   7.961   0.140   7.679  0.2634 -0.7849 -0.6763
23326SOL    HW174825   7.922   0.216   7.635 -0.3195 -0.6879 -0.0089
23326SOL    HW274826   7.889   0.100   7.727  1.5110  1.7027  3.9210
23327SOL     OW74827   9.374   0.291   5.582 -0.4517  0.0088 -0.0583
23327SOL    HW174828   9.446   0.246   5.538 -0.2362  1.6186 -1.4737
23327SOL    HW274829   9.411   0.318   5.666  0.0546 -0.6656 -0.0579
23328SOL     OW74830   7.619   9.082   3.405 -0.1222 -0.5314  0.1175
23328SOL    HW174831   7.581   8.995   3.418 -0.7330 -0.6343 -1.9593
23328SOL    HW274832   7.665   9.076   3.321 -1.3764  1.5147 -0.8041
23329SOL     OW74833   7.236   1.206   6.259 -0.1435 -0.5505  0.5338
23329SOL    HW174834   7.199   1.119   6.270  1.1284 -1.0471  0.9355
23329SOL    HW274835   7.245   1.216   6.164  1.2110 -1.5203  0.5332
23330SOL     OW74836   7.112   7.605   5.468 -0.4265  0.4322  0.6307
23330SOL    HW174837   7.185   7.665   5.481 -0.3862  0.4574  0.2847
23330SOL    HW274838   7.137   7.552   5.392 -1.3226  1.3026 -0.3045
23331SOL     OW74839   1.417   0.746   7.836  0.4658 -0.6567  0.0051
23331SOL    HW174840   1.422   0.652   7.818  1.0457 -0.4626 -0.8937
23331SOL    HW274841   1.505   0.771   7.862  1.3159  0.2931 -3.2788
23332SOL     OW74842   8.139   2.097   7.257  0.2062 -0.5941 -0.7289
23332SOL    HW174843   8.229   2.128   7.268  0.4533 -1.3380 -0.5671
23332SOL    HW274844   8.127   2.034   7.328 -0.2075 -1.0121 -1.1617
23333SOL     OW74845   0.368   1.281   6.464 -0.0448 -0.1678 -0.5108
23333SOL    HW174846   0.356   1.349   6.398 -0.3199  0.5787  0.2946
23333SOL    HW274847   0.460   1.286   6.488  0.1482 -0.7024 -1.1017
23334SOL     OW74848   9.377   2.454   5.042  1.0663 -0.0254 -0.0979
23334SOL    HW174849   9.299   2.445   4.988  0.1588  3.2608  0.4112
23334SOL    HW274850   9.450   2.442   4.982  0.2033 -2.2864 -0.7680
23335SOL     OW74851   8.021   3.018   6.126  0.0705  0.0566 -0.0924
23335SOL    HW174852   7.933   3.001   6.162  0.5280 -3.2861 -0.1784
23335SOL    HW274853   8.071   3.053   6.199 -0.5700 -0.9719  0.8661
23336SOL     OW74854   8.718   0.422   6.041  0.1947 -0.6799 -0.2061
23336SOL    HW174855   8.691   0.488   5.977 -0.3346  0.3242  1.0046
23336SOL    HW274856   8.672   0.447   6.121  3.0470 -0.1901  1.3900
23337SOL     OW74857   7.550   0.638   7.330  0.4670  0.1684  0.4833
23337SOL    HW174858   7.470   0.587   7.323  0.0683  0.7631  0.6291
23337SOL    HW274859   7.565   0.646   7.424  0.6487  0.1358  0.4572
23338SOL     OW74860   6.941   9.180   6.438 -0.0442  0.1394  0.2507
23338SOL    HW174861   6.919   9.136   6.520  1.0447 -0.6400  0.1503
23338SOL    HW274862   6.859   9.219   6.409 -0.4533  0.4466  1.7109
23339SOL     OW74863   9.429   2.032   8.647 -0.1376 -0.6112 -0.1208
23339SOL    HW174864   9.452   2.115   8.690 -3.1636  0.6944 -0.7231
23339SOL    HW274865   9.468   1.965   8.703  1.4296  1.1572  1.0534
23340SOL     OW74866   7.813   1.727   6.752  0.3197  0.3512  0.4709
23340SOL    HW174867   7.875   1.754   6.685  0.3472 -2.0814 -0.5932
23340SOL    HW274868   7.864   1.724   6.833  1.3235 -0.5226 -0.1769
23341SOL     OW74869   0.758   9.366   9.120 -0.2525 -0.0377  0.2474
23341SOL    HW174870   0.822   9.419   9.073  0.1034  0.2835  1.0692
23341SOL    HW274871   0.740   9.416   9.200 -1.0455 -0.4344  0.3302
23342SOL     OW74872   7.005   8.442   6.803 -0.1766 -0.2631  0.0512
23342SOL    HW174873   7.025   8.481   6.888  0.0335  1.3269 -0.7066
23342SOL    HW274874   6.943   8.502   6.762 -0.2915 -1.0181 -0.9359
23343SOL     OW74875   7.147   8.648   9.479  0.2051  0.0731  0.2414
23343SOL    HW174876   7.204   8.586   9.524 -0.2148 -0.5898 -0.1246
23343SOL    HW274877   7.080   8.594   9.438 -0.1028  0.7607 -0.1848
23344SOL     OW74878   8.425   9.252   6.118  0.1954  0.0674  0.0771
23344SOL    HW174879   8.518   9.259   6.142 -0.0495 -1.5029  1.6501
23344SOL    HW274880   8.413   9.321   6.053  2.3640  0.5930  0.1318
23345SOL     OW74881   0.070   0.176   6.499 -0.0059  0.4263 -0.0653
23345SOL    HW174882   0.033   0.117   6.565  0.4341 -0.1521 -0.3243
23345SOL    HW274883   0.082   0.121   6.422 -2.6215  1.5782 -1.4362
23346SOL     OW74884   6.687   0.702   7.819 -0.6961 -0.1230 -0.1004
23346SOL    HW174885   6.660   0.792   7.841  0.9856  0.2706  0.5475
23346SOL    HW274886   6.774   0.693   7.858  0.6070 -0.9214 -2.8816
23347SOL     OW74887   5.679   8.630   6.833 -0.0720 -0.0453  0.5777
23347SOL    HW174888   5.748   8.646   6.769  0.1376 -0.1810  0.7684
23347SOL    HW274889   5.619   8.569   6.789 -1.0277  1.4399 -0.2524
23348SOL     OW74890   8.982   1.597   6.724  0.0584  0.4542  0.4091
23348SOL    HW174891   9.009   1.662   6.659 -1.3543 -1.2165 -2.0250
23348SOL    HW274892   9.039   1.521   6.707  0.2240  0.2661  1.7131
23349SOL     OW74893   8.716   0.474   6.788  0.0177 -0.1843 -0.5055
23349SOL    HW174894   8.705   0.569   6.790  1.4642  0.0136  1.3632
23349SOL    HW274895   8.754   0.455   6.702  0.3255  1.0242 -0.6469
23350SOL     OW74896   9.791   0.071   4.833  0.6444 -0.7055 -0.1302
23350SOL    HW174897   9.875   0.116   4.841  0.2290 -0.0055  0.4200
23350SOL    HW274898   9.757   0.100   4.748  1.0657 -1.1927 -0.4728
23351SOL     OW74899   9.155   2.766   6.299 -0.4027 -0.1395 -0.1598
23351SOL    HW174900   9.228   2.808   6.252  0.2065 -1.1831 -0.1863
23351SOL    HW274901   9.191   2.681   6.326 -0.9235  0.1924  1.6927
23352SOL     OW74902   7.853   3.628   6.341 -0.5562 -0.6084 -0.1082
23352SOL    HW174903   7.944   3.623   6.310 -0.6762  0.3397 -0.6390
23352SOL    HW274904   7.820   3.538   6.330  0.0113 -0.7360 -0.8855
23353SOL     OW74905   6.837   1.356   7.734  0.3940 -0.1780  0.8380
23353SOL    HW174906   6.865   1.385   7.647  1.4117 -2.8617  0.1618
23353SOL    HW274907   6.897   1.399   7.794  1.1836 -0.0656 -0.0056
23354SOL     OW74908   0.931   8.541   8.648  0.5274  0.3608 -0.2809
23354SOL    HW174909   0.926   8.538   8.552 -1.3382  1.2108 -0.2376
23354SOL    HW274910   0.957   8.631   8.667  0.0861  0.4179  0.0394
23355SOL     OW74911   7.883   1.009   8.391  0.1532  0.0089 -0.3372
23355SOL    HW174912   7.897   0.916   8.373  1.8492  0.1731 -0.0452
23355SOL    HW274913   7.854   1.045   8.307  0.7755 -0.5502 -0.8063
23356SOL     OW74914   9.647   0.994   5.951  0.2477  0.3585 -1.1926
23356SOL    HW174915   9.592   1.054   5.902  0.2400  0.4467 -1.0742
23356SOL    HW274916   9.613   0.997   6.041 -1.9690 -2.3174 -1.7719
23357SOL     OW74917   8.496   1.644   7.421  0.4590 -0.0925 -0.0286
23357SOL    HW174918   8.584   1.627   7.455  1.2344 -1.7548 -2.5356
23357SOL    HW274919   8.477   1.568   7.366 -0.9849  1.9301 -2.5575
23358SOL     OW74920   9.427   0.485   6.532 -0.2703  0.2513 -0.4057
23358SOL    HW174921   9.487   0.546   6.576 -1.7805  0.6503  1.2044
23358SOL    HW274922   9.476   0.403   6.527  0.0254  0.2172  2.0228
23359SOL     OW74923   8.095   8.568   5.546 -0.8782  0.2319 -0.2357
23359SOL    HW174924   8.086   8.576   5.641  0.0105  1.7329 -0.2398
23359SOL    HW274925   8.010   8.596   5.512 -1.4614 -1.0575  0.1224
23360SOL     OW74926   5.565   2.525   7.635 -0.5230 -0.1726 -0.5152
23360SOL    HW174927   5.625   2.453   7.653  0.4242  0.7009 -0.0613
23360SOL    HW274928   5.621   2.595   7.602 -0.9932  1.2606  1.4931
23361SOL     OW74929   7.679   0.485   5.517 -0.9589  0.1768 -0.4699
23361SOL    HW174930   7.604   0.487   5.576 -0.2342  1.7996  0.4668
23361SOL    HW274931   7.748   0.530   5.566  0.2469 -0.1685 -1.8109
23362SOL     OW74932   9.782   0.611   6.067 -0.2244  0.2685 -0.5742
23362SOL    HW174933   9.790   0.638   6.159 -0.7292 -0.7026 -0.2283
23362SOL    HW274934   9.857   0.554   6.053 -0.5866 -0.2304 -0.5163
23363SOL     OW74935   7.494   0.639   6.010 -0.0274  0.3803  0.0982
23363SOL    HW174936   7.466   0.554   6.045 -1.8143  0.8495 -0.0972
23363SOL    HW274937   7.492   0.698   6.085 -2.1019  0.9748 -0.3553
23364SOL     OW74938   8.839   2.183   5.280 -0.5159  0.7985  0.1802
23364SOL    HW174939   8.796   2.097   5.279  1.4412 -0.2810  1.1920
23364SOL    HW274940   8.880   2.190   5.194  0.2363  0.1796  0.4746
23365SOL     OW74941   8.701   9.398   7.352  0.1415  0.2503  0.9997
23365SOL    HW174942   8.700   9.458   7.278 -1.3682  0.7371  1.3909
23365SOL    HW274943   8.631   9.336   7.333  2.0568 -1.8357  0.2915
23366SOL     OW74944   9.522   9.800   6.522  0.4913 -0.1747  0.1773
23366SOL    HW174945   9.547   9.808   6.430 -0.0980  0.3047  0.0537
23366SOL    HW274946   9.429   9.822   6.523 -0.0416 -2.2574  0.5750
23367SOL     OW74947   6.684   0.565   4.893 -0.0504 -0.3312  0.0213
23367SOL    HW174948   6.597   0.540   4.923  0.0334 -0.2596  0.3249
23367SOL    HW274949   6.693   0.523   4.808 -0.8976  0.7094 -0.6218
23368SOL     OW74950   7.429   0.510   5.392 -0.5313 -0.4564 -0.0638
23368SOL    HW174951   7.523   0.517   5.412 -0.6047 -0.9645  0.5308
23368SOL    HW274952   7.386   0.536   5.474 -0.8629 -2.0118  0.2914
23369SOL     OW74953   8.679   3.692   5.764 -0.7141  0.1308 -0.1632
23369SOL    HW174954   8.719   3.711   5.679 -2.3221  0.2540 -0.9275
23369SOL    HW274955   8.585   3.700   5.748 -1.0621 -0.3346  1.5201
23370SOL     OW74956   7.444   2.215   5.587 -0.3466  0.2762  0.1785
23370SOL    HW174957   7.471   2.171   5.506 -0.4177  0.9333 -0.2077
23370SOL    HW274958   7.478   2.159   5.657 -0.7012 -0.5618 -0.2968
23371SOL     OW74959   8.048   2.483   9.097  0.4465  0.0053 -0.5581
23371SOL    HW174960   8.106   2.526   9.034  0.2919  1.1051  0.0296
23371SOL    HW274961   8.041   2.545   9.170  0.3314 -1.0903  0.3846
23372SOL     OW74962   9.083   8.922   5.503  0.1861 -0.5488  0.2203
23372SOL    HW174963   9.105   8.975   5.426 -1.0711  0.6667  0.6516
23372SOL    HW274964   8.987   8.930   5.510  0.3160 -0.3307  2.1182
23373SOL     OW74965   7.946   1.508   8.203  0.4204 -0.8912  0.8901
23373SOL    HW174966   7.885   1.517   8.276  2.6879 -0.9903  2.9202
23373SOL    HW274967   7.945   1.414   8.183 -1.2786 -0.6727 -0.2653
23374SOL     OW74968   8.458   7.973   8.703 -0.1406  0.0452  0.2073
23374SOL    HW174969   8.434   8.025   8.626 -0.5454 -1.7685 -0.9350
23374SOL    HW274970   8.376   7.934   8.732  0.5455 -2.3213 -0.7992
23375SOL     OW74971   9.415   1.915   6.404 -0.8454 -0.2005 -0.0134
23375SOL    HW174972   9.459   1.987   6.358  0.4924  0.6166  2.3787
23375SOL    HW274973   9.469   1.900   6.481 -1.9498 -2.7958  0.3358
23376SOL     OW74974   0.167   3.178   6.774  0.3184  1.1596  0.3524
23376SOL    HW174975   0.162   3.161   6.868  0.3329  0.8813  0.3027
23376SOL    HW274976   0.226   3.111   6.740  0.9315  1.7380  0.2589
23377SOL     OW74977   7.836   2.076   0.317 -0.5718 -0.5831  0.0732
23377SOL    HW174978   7.903   2.021   0.276 -0.8737 -0.9559  0.0817
23377SOL    HW274979   7.779   2.102   0.244  0.3492  0.8619 -0.1780
23378SOL     OW74980   6.378   9.359   9.346 -0.1905  0.0006 -0.7016
23378SOL    HW174981   6.377   9.267   9.317 -0.1553  0.4086 -2.0522
23378SOL    HW274982   6.461   9.393   9.313  0.2038  0.3029  0.5556
23379SOL     OW74983   0.180   2.307   8.467  0.8901  0.0238  0.1165
23379SOL    HW174984   0.089   2.311   8.495  0.4180 -1.7676 -1.0080
23379SOL    HW274985   0.191   2.382   8.408 -0.1999 -0.4271 -0.6745
23380SOL     OW74986   6.259   0.814   4.521  0.2592 -0.3627 -0.3386
23380SOL    HW174987   6.219   0.730   4.546 -3.0524  0.9728 -0.7208
23380SOL    HW274988   6.250   0.817   4.426 -0.7346  0.8956 -0.2247
23381SOL     OW74989   7.981   9.536   4.670  0.2454 -0.0206  0.0454
23381SOL    HW174990   7.976   9.602   4.602  0.5692  0.9255  0.9112
23381SOL    HW274991   7.948   9.456   4.629 -0.7369  0.8118 -0.8420
23382SOL     OW74992   4.929   9.495   8.287 -0.3331  0.0703  0.8578
23382SOL    HW174993   4.906   9.578   8.329  0.1873  1.0491 -0.6956
23382SOL    HW274994   4.845   9.460   8.256 -0.3805  0.9529 -0.0765
23383SOL     OW74995   4.948   1.179   7.137  0.5950 -0.3071  0.9674
23383SOL    HW174996   4.959   1.098   7.187 -0.8223 -0.3539  1.2540
23383SOL    HW274997   4.892   1.155   7.063 -1.3848  0.7138  2.0245
23384SOL     OW74998   6.507   9.659   7.141 -0.3349  0.2631 -0.1605
23384SOL    HW174999   6.571   9.591   7.121 -0.1682  0.0996  0.8606
23384SOL    HW275000   6.450   9.619   7.208 -0.5771  0.9299  0.0457
23385SOL     OW75001   0.331   0.844   3.859 -0.0323  0.5406  0.5097
23385SOL    HW175002   0.389   0.768   3.854  1.2635  1.5254  0.1766
23385SOL    HW275003   0.294   0.839   3.947  0.0504 -0.4610  0.4987
23386SOL     OW75004   0.263   2.741   5.738  0.2032  0.4889  0.3282
23386SOL    HW175005   0.179   2.700   5.717  0.6187  0.0161 -0.4513
23386SOL    HW275006   0.286   2.706   5.824 -0.1347  0.2050  0.3046
23387SOL     OW75007   9.619   2.626   6.064  0.8773 -0.0111  0.4818
23387SOL    HW175008   9.612   2.605   6.157  2.2641  1.6626  1.0293
23387SOL    HW275009   9.620   2.542   6.019 -0.9435 -0.8336  1.8531
23388SOL     OW75010   6.813   1.635   7.019  0.0773  0.1557 -0.4860
23388SOL    HW175011   6.768   1.552   7.002  0.0204  0.4703 -1.9861
23388SOL    HW275012   6.878   1.642   6.950  0.4825  1.0927 -0.0283
23389SOL     OW75013   9.247   1.494   6.935 -0.0684 -0.0746  0.2408
23389SOL    HW175014   9.293   1.561   6.986  2.3711 -1.8666  0.5313
23389SOL    HW275015   9.270   1.513   6.844 -0.1580  0.0240  0.2380
23390SOL     OW75016   7.776   9.738   6.799 -0.2244  0.0212 -0.3083
23390SOL    HW175017   7.860   9.747   6.843 -0.6915 -0.0033  0.6396
23390SOL    HW275018   7.738   9.826   6.802 -1.3436 -0.4452  1.6949
23391SOL     OW75019   8.313   9.677   4.908 -0.5248 -0.2116  0.2969
23391SOL    HW175020   8.344   9.678   4.999  1.2906 -0.9358 -0.2746
23391SOL    HW275021   8.380   9.725   4.859 -2.0005  1.0868 -0.5485
23392SOL     OW75022   9.125   0.115   7.299  0.1938 -0.0343 -0.0765
23392SOL    HW175023   9.193   0.177   7.272  1.3124 -0.0314  2.5633
23392SOL    HW275024   9.053   0.171   7.330 -0.3575 -0.0686 -1.2221
23393SOL     OW75025   1.385   2.846   6.429 -0.0100 -0.7733  0.0531
23393SOL    HW175026   1.453   2.805   6.376  2.1367  0.8574  1.3761
23393SOL    HW275027   1.357   2.922   6.378 -0.7248 -1.3209 -0.3917
23394SOL     OW75028   7.897   1.337   9.092 -0.6207 -0.1625 -0.0690
23394SOL    HW175029   7.903   1.407   9.027  1.6814 -0.4570 -0.2414
23394SOL    HW275030   7.910   1.257   9.043 -0.5622 -0.5192  0.5181
23395SOL     OW75031   9.844   2.654   8.871  0.3847 -0.3989  0.3796
23395SOL    HW175032   9.918   2.610   8.913  1.6701  1.9701  0.8122
23395SOL    HW275033   9.829   2.732   8.925 -1.3274  0.0393 -0.6654
23396SOL     OW75034   7.896   1.033   6.324  0.3934  0.3336 -0.0058
23396SOL    HW175035   7.841   0.985   6.385 -0.8326  0.1512 -1.2167
23396SOL    HW275036   7.955   0.967   6.287 -2.0542 -0.6129 -2.5368
23397SOL     OW75037   7.572   1.125   6.264  1.0768  0.3475 -0.1418
23397SOL    HW175038   7.659   1.163   6.252  0.3384  1.7235 -1.5564
23397SOL    HW275039   7.517   1.200   6.288 -0.1025 -0.1064 -1.3216
23398SOL     OW75040   8.850   1.280   4.044 -0.2902 -0.3723  0.0649
23398SOL    HW175041   8.854   1.192   4.009 -1.5704 -0.8127  0.9426
23398SOL    HW275042   8.756   1.300   4.048 -0.0169  1.6941 -1.6927
23399SOL     OW75043   6.723   0.026   5.835  0.0811 -0.6242  0.0568
23399SOL    HW175044   6.716   0.121   5.832  0.2752 -0.6371 -2.9499
23399SOL    HW275045   6.633  -0.005   5.831  0.0118 -0.6237  1.1266
23400SOL     OW75046   8.275   2.223   6.056  0.3965  0.3518 -0.2650
23400SOL    HW175047   8.308   2.134   6.071 -0.4062 -0.1829 -1.5309
23400SOL    HW275048   8.328   2.256   5.983 -0.1362  0.4518 -0.6065
23401SOL     OW75049   8.914   0.613   4.433 -0.7372 -0.1040  0.2311
23401SOL    HW175050   8.879   0.583   4.517 -1.6026 -2.2252 -0.7922
23401SOL    HW275051   8.959   0.536   4.398  0.2694  0.9766 -0.9096
23402SOL     OW75052   6.086   3.416   6.789  0.2995  0.5544 -0.6036
23402SOL    HW175053   6.025   3.352   6.751 -1.4556  3.0417 -2.2814
23402SOL    HW275054   6.054   3.428   6.879 -0.5015  0.4006 -0.8528
23403SOL     OW75055   9.456   1.422   5.090  0.0550  0.3019  0.3870
23403SOL    HW175056   9.391   1.465   5.034  0.9165  0.8102 -0.2452
23403SOL    HW275057   9.532   1.480   5.086  0.1752  0.2977  2.0149
23404SOL     OW75058   9.256   8.785   6.538  0.1019  0.7428  0.5333
23404SOL    HW175059   9.222   8.745   6.619  1.1901 -1.2462  0.0769
23404SOL    HW275060   9.350   8.792   6.552  0.5164 -0.9184 -1.0129
23405SOL     OW75061   8.121   0.854   5.854 -0.0006 -0.4220 -0.0427
23405SOL    HW175062   8.048   0.820   5.802  2.0445 -3.0229 -1.4460
23405SOL    HW275063   8.121   0.799   5.933 -0.5211  0.6803  0.7462
23406SOL     OW75064   1.422   1.293   7.915 -0.3022 -0.0513  0.6160
23406SOL    HW175065   1.490   1.331   7.970  0.2846 -0.5874  0.2697
23406SOL    HW275066   1.464   1.219   7.872 -0.3444  1.1584 -1.6405
23407SOL     OW75067   9.179   1.606   7.934  0.1832 -0.4952  0.2384
23407SOL    HW175068   9.199   1.522   7.975  1.5735 -0.9012 -1.1939
23407SOL    HW275069   9.087   1.597   7.907  0.1084 -1.2945  0.7114
23408SOL     OW75070   5.281   1.180   7.824 -0.6122 -0.1593  0.6411
23408SOL    HW175071   5.230   1.150   7.899  0.2841 -1.6650  0.7090
23408SOL    HW275072   5.372   1.177   7.854 -0.2649 -0.4753 -0.3852
23409SOL     OW75073   7.704   8.029   5.764 -0.3832 -0.0239 -0.5021
23409SOL    HW175074   7.719   8.094   5.833  0.9188 -2.0454  1.2483
23409SOL    HW275075   7.790   8.012   5.727 -0.4233 -1.7957  0.1248
23410SOL     OW75076   8.902   1.690   5.277 -0.8096 -0.4220  0.2942
23410SOL    HW175077   8.820   1.670   5.233 -1.1147 -0.0215  0.6681
23410SOL    HW275078   8.892   1.652   5.364 -0.3216 -0.9691  0.1187
23411SOL     OW75079   9.720   0.030   4.478  0.4023  0.2985 -0.2971
23411SOL    HW175080   9.792   0.046   4.418  0.3752  0.2509 -0.3422
23411SOL    HW275081   9.648   0.085   4.446  0.3757  0.2450 -0.3302
23412SOL     OW75082   8.660   2.664   6.187 -0.6321  0.1663  0.4210
23412SOL    HW175083   8.587   2.726   6.192 -0.5730  0.1614  2.3539
23412SOL    HW275084   8.733   2.710   6.231 -0.5838 -1.2042  1.8686
23413SOL     OW75085   9.686   0.556   7.737  0.5361  0.4988  0.5363
23413SOL    HW175086   9.626   0.509   7.680  0.1352  1.5180  0.0839
23413SOL    HW275087   9.758   0.583   7.681  1.5097 -0.8315  1.1069
23414SOL     OW75088   7.940   1.932   5.869 -0.2769 -0.1216 -0.0705
23414SOL    HW175089   7.892   1.869   5.815  0.0672  0.8378 -1.5337
23414SOL    HW275090   8.032   1.905   5.861 -0.0465  0.9227 -1.2565
23415SOL     OW75091   6.967   8.764   8.944 -0.1296  0.1354 -0.8747
23415SOL    HW175092   6.892   8.714   8.977  0.5046  0.0384  0.4685
23415SOL    HW275093   7.016   8.789   9.022  0.6500  1.1536 -1.6627
23416SOL     OW75094   6.920   8.589   6.287 -0.1481  0.1994  0.1740
23416SOL    HW175095   6.857   8.575   6.358 -0.8495  1.8020 -0.0632
23416SOL    HW275096   6.865   8.611   6.211  0.6455  2.5903  0.1964
23417SOL     OW75097   9.117   4.051   7.740 -1.1618  0.1574 -0.0989
23417SOL    HW175098   9.138   4.092   7.655  1.2602  0.9238  0.7899
23417SOL    HW275099   9.157   3.964   7.735 -2.0017 -0.2423 -0.1221
23418SOL     OW75100   8.788   1.819   5.670  0.1771 -0.2371  0.1529
23418SOL    HW175101   8.740   1.861   5.599  1.4017 -1.9850 -1.8335
23418SOL    HW275102   8.766   1.726   5.663 -1.8007 -0.2599  3.8693
23419SOL     OW75103   7.877   0.535   6.655 -0.4996  0.4810 -0.3498
23419SOL    HW175104   7.782   0.528   6.655 -0.6443  1.9393 -1.5419
23419SOL    HW275105   7.899   0.565   6.743 -1.3464  2.0074 -0.6261
23420SOL     OW75106   9.570   2.304   5.581 -0.0920  0.4357  0.1321
23420SOL    HW175107   9.519   2.254   5.517 -2.3065  0.2638  1.8870
23420SOL    HW275108   9.550   2.396   5.562  0.8034  0.4936 -0.5951
23421SOL     OW75109   9.291   0.773   5.771 -0.5096  0.2614 -0.0024
23421SOL    HW175110   9.369   0.721   5.749 -0.4396  0.1703  0.4486
23421SOL    HW275111   9.310   0.860   5.736  0.4633  0.6597  1.4262
23422SOL     OW75112   8.036   1.267   6.355  0.2561 -0.0848  0.0917
23422SOL    HW175113   7.995   1.188   6.390  1.7847 -0.8142  0.3206
23422SOL    HW275114   8.102   1.234   6.294  0.4991  1.0437 -0.2726
23423SOL     OW75115   9.437   1.489   5.744  0.1212 -0.5315  0.3928
23423SOL    HW175116   9.401   1.538   5.670 -1.2864 -1.3363  0.5018
23423SOL    HW275117   9.485   1.553   5.795 -1.6083  0.7634  0.4896
23424SOL     OW75118   6.493   0.653   3.600  0.3577  0.1888  0.7175
23424SOL    HW175119   6.533   0.677   3.684 -0.2651  1.4119  0.6958
23424SOL    HW275120   6.525   0.719   3.539  2.0386 -1.5653 -0.4155
23425SOL     OW75121   8.047   0.537   7.186  0.9152 -0.4880 -0.2529
23425SOL    HW175122   8.116   0.569   7.128 -0.0108 -0.4667 -1.3830
23425SOL    HW275123   7.968   0.538   7.132  0.1074 -0.9231  0.8794
23426SOL     OW75124   7.850   3.224   7.437 -0.1813  0.0829 -0.7354
23426SOL    HW175125   7.828   3.278   7.513 -1.7143  0.6016 -1.5081
23426SOL    HW275126   7.940   3.195   7.453  0.7987  3.0271 -0.3918
23427SOL     OW75127   5.792   0.042   5.878  0.1304 -0.4295  0.2856
23427SOL    HW175128   5.726   0.058   5.810 -0.1618  1.3926  0.9655
23427SOL    HW275129   5.782   0.114   5.940  1.7877 -0.9125  1.1838
23428SOL     OW75130   6.480   1.660   5.389 -0.5010 -0.0678  0.3382
23428SOL    HW175131   6.455   1.688   5.300 -4.2013 -0.0936  1.1878
23428SOL    HW275132   6.509   1.570   5.378 -1.6113 -0.3266 -0.8140
23429SOL     OW75133   7.931   2.762   7.465 -0.1677 -0.7466  0.4294
23429SOL    HW175134   7.877   2.830   7.425  0.5916 -0.4675 -0.1467
23429SOL    HW275135   7.952   2.704   7.392  0.5949 -0.6546  0.5771
23430SOL     OW75136   0.298   2.497   3.096  0.6282 -0.2415  0.2013
23430SOL    HW175137   0.337   2.559   3.034  1.4466 -0.2418  0.7050
23430SOL    HW275138   0.372   2.453   3.137  0.0965 -0.4554  0.9692
23431SOL     OW75139   8.464   1.641   6.297  0.2619 -0.3487 -0.3822
23431SOL    HW175140   8.486   1.647   6.390  0.1668 -0.2482 -0.3663
23431SOL    HW275141   8.497   1.722   6.260 -0.7280  0.1424 -0.2279
23432SOL     OW75142   7.250   1.777   4.815 -0.2260 -0.0913  0.0140
23432SOL    HW175143   7.245   1.699   4.759 -2.7855  0.5885 -0.8463
23432SOL    HW275144   7.327   1.823   4.783 -0.4578 -0.7431 -1.6312
23433SOL     OW75145   9.688   8.756   5.119  0.0656  0.3127  0.2078
23433SOL    HW175146   9.674   8.845   5.150 -0.7748 -0.3716  1.9227
23433SOL    HW275147   9.678   8.701   5.197 -0.1626 -1.3462 -0.9280
23434SOL     OW75148   8.036   1.446   8.644 -0.0033  0.2673  0.3568
23434SOL    HW175149   8.111   1.388   8.629 -0.9659 -0.8160 -0.4128
23434SOL    HW275150   8.041   1.512   8.575 -0.9367 -1.0764 -1.0611
23435SOL     OW75151   8.194   7.484   4.113  0.4231  0.0965 -0.1537
23435SOL    HW175152   8.185   7.569   4.070 -1.5072 -0.0424 -0.0725
23435SOL    HW275153   8.259   7.499   4.181  2.5131  0.6823 -2.1227
23436SOL     OW75154   5.484   0.555   8.360  0.2290  0.0711 -0.2724
23436SOL    HW175155   5.449   0.473   8.324 -0.5755  0.1561  0.2952
23436SOL    HW275156   5.575   0.558   8.328 -0.1470 -0.3514 -1.4502
23437SOL     OW75157   9.638   9.504   5.917 -0.0351 -0.1381  0.1380
23437SOL    HW175158   9.699   9.578   5.922 -0.7468  0.6011 -1.3271
23437SOL    HW275159   9.596   9.502   6.003  2.3207 -0.9489  1.3397
23438SOL     OW75160   8.220   0.971   6.469  0.1766 -0.3717  0.2631
23438SOL    HW175161   8.269   0.971   6.387  1.9867 -3.3633  1.2141
23438SOL    HW275162   8.158   0.898   6.460 -1.6749  1.0788  0.5255
23439SOL     OW75163   8.282   9.748   6.619 -0.3039 -0.3674  0.0409
23439SOL    HW175164   8.308   9.685   6.552  4.3408  1.0404  0.1438
23439SOL    HW275165   8.258   9.827   6.571  0.0706 -0.3107 -0.0607
23440SOL     OW75166   5.072   9.745   8.166 -0.5862  0.2727  0.1258
23440SOL    HW175167   5.019   9.796   8.226  0.2175 -0.2776  1.3518
23440SOL    HW275168   5.041   9.655   8.177  1.2438 -0.2267  1.6542
23441SOL     OW75169   7.620   3.053   6.533  0.5258 -0.4300  0.2045
23441SOL    HW175170   7.555   3.123   6.545  0.9470  0.3779 -1.8483
23441SOL    HW275171   7.697   3.097   6.498  1.4879 -1.6779  0.6589
23442SOL     OW75172   7.408   1.652   5.677  0.3413  0.1752  0.4352
23442SOL    HW175173   7.459   1.579   5.642  0.8592  1.6442 -2.0992
23442SOL    HW275174   7.472   1.704   5.726  0.6295  0.4419 -0.2177
23443SOL     OW75175   8.115   8.854   7.767 -0.1621 -0.0762  0.2641
23443SOL    HW175176   8.117   8.946   7.742 -0.8235 -0.6065 -2.0418
23443SOL    HW275177   8.173   8.811   7.704 -0.4430 -1.3227  0.8204
23444SOL     OW75178   8.515   9.585   9.227 -0.8045 -0.1156  0.0499
23444SOL    HW175179   8.524   9.680   9.228  0.5889 -0.2089 -0.5882
23444SOL    HW275180   8.460   9.565   9.303 -1.0997  1.1879  0.2041
23445SOL     OW75181   8.251   2.730   7.941 -0.4687  0.2795  0.2466
23445SOL    HW175182   8.303   2.651   7.955 -2.2159 -0.5944  2.2893
23445SOL    HW275183   8.314   2.795   7.912  1.7559 -0.7857  2.3303
23446SOL     OW75184   9.420   1.898   7.195  0.3691 -0.5726 -0.0568
23446SOL    HW175185   9.508   1.872   7.222 -0.7288 -2.0873  2.4981
23446SOL    HW275186   9.402   1.977   7.247  0.0397 -0.5567 -0.1931
23447SOL     OW75187   0.210   1.182   5.116  0.6705 -0.3856 -0.0718
23447SOL    HW175188   0.246   1.271   5.118  0.7874 -0.4345  1.4208
23447SOL    HW275189   0.129   1.190   5.066 -1.3894  1.4637  3.1293
23448SOL     OW75190   6.798   9.477   6.767 -0.3460  0.0422  0.7410
23448SOL    HW175191   6.857   9.516   6.831  0.8942  0.9582 -0.8820
23448SOL    HW275192   6.855   9.446   6.696 -1.4503 -3.0802  1.0511
23449SOL     OW75193   8.077   1.265   9.301  0.4845  0.7216 -0.0187
23449SOL    HW175194   8.028   1.301   9.226  0.3028  2.3106  0.8188
23449SOL    HW275195   8.031   1.299   9.378  0.7314 -0.7968  0.8455
23450SOL     OW75196   9.279   1.398   9.624  0.6677  0.3206  0.2221
23450SOL    HW175197   9.256   1.444   9.705  1.4934 -0.5862  1.0009
23450SOL    HW275198   9.342   1.331   9.652  0.4194 -0.4784 -1.0676
23451SOL     OW75199   7.866   2.045   9.106  0.5215 -0.1633 -0.3141
23451SOL    HW175200   7.776   2.045   9.075  0.3796 -1.2247  0.0564
23451SOL    HW275201   7.883   1.955   9.132  1.3499  0.2383  0.6196
23452SOL     OW75202   6.452   0.126   9.370  0.2282  0.0915 -0.5733
23452SOL    HW175203   6.545   0.146   9.375  0.1569  0.0917  1.2301
23452SOL    HW275204   6.449   0.036   9.337  0.8740 -0.0378 -0.2906
23453SOL     OW75205   9.491   0.944   8.455 -0.1700  0.1099  1.0247
23453SOL    HW175206   9.527   0.953   8.366 -2.2618 -0.8124  0.0040
23453SOL    HW275207   9.413   0.999   8.455 -2.0274 -2.3122  1.1294
23454SOL     OW75208   5.555   1.172   0.802 -0.2631 -0.4150 -0.8045
23454SOL    HW175209   5.626   1.144   0.859  0.0210  0.3581 -0.7721
23454SOL    HW275210   5.480   1.117   0.828  0.1517 -0.8112 -0.4308
23455SOL     OW75211   0.164   9.091   5.993  0.1244 -0.0883 -0.0787
23455SOL    HW175212   0.152   9.005   5.953 -1.4547 -0.3952  0.9503
23455SOL    HW275213   0.226   9.076   6.064 -0.9651 -0.6397  0.7839
23456SOL     OW75214   7.592   1.962   6.655  0.4271  0.0251  0.2028
23456SOL    HW175215   7.616   2.019   6.583  2.2759  3.5175  3.2461
23456SOL    HW275216   7.674   1.946   6.702 -0.9121 -0.5696  2.5115
23457SOL     OW75217   8.169   1.501   9.538 -0.1545  0.3114 -0.2999
23457SOL    HW175218   8.166   1.421   9.591  0.5962  0.1137 -0.5427
23457SOL    HW275219   8.263   1.521   9.532  0.0706 -1.1058 -3.6882
23458SOL     OW75220   8.336   1.766   8.234  0.4330 -0.4786  0.2130
23458SOL    HW175221   8.262   1.723   8.278  0.9502 -0.2754  1.3050
23458SOL    HW275222   8.370   1.827   8.298  0.0343  1.2407 -1.1503
23459SOL     OW75223   9.176   3.407   7.971  0.0027 -0.5807  0.3861
23459SOL    HW175224   9.109   3.372   8.030 -0.4762  2.1757  1.5971
23459SOL    HW275225   9.248   3.433   8.028  1.4999 -1.9610 -0.7488
23460SOL     OW75226   8.713   0.772   5.940 -0.2979  0.1320  0.0269
23460SOL    HW175227   8.641   0.772   6.004  0.2660  0.4895  0.6705
23460SOL    HW275228   8.781   0.825   5.980  0.4659 -0.4786 -0.4317
23461SOL     OW75229   8.050   0.357   8.161 -0.2610  0.6132 -0.5285
23461SOL    HW175230   8.075   0.410   8.236  0.9122 -0.3528 -0.2218
23461SOL    HW275231   8.100   0.393   8.088 -1.0724  1.2676 -0.7896
23462SOL     OW75232   7.996   0.912   0.052  0.8572 -0.2324  1.0558
23462SOL    HW175233   7.947   0.974   0.106  0.5317  0.8138 -0.3663
23462SOL    HW275234   7.928   0.867   0.001  1.2551  0.1846  0.1296
23463SOL     OW75235   7.289   0.950   6.769  0.0715  0.0897  0.0681
23463SOL    HW175236   7.236   0.872   6.754  0.1549  0.2385 -1.0857
23463SOL    HW275237   7.324   0.973   6.683  0.8526  0.8273  0.5609
23464SOL     OW75238   7.393   3.038   8.894  0.0100 -0.4966  0.7464
23464SOL    HW175239   7.408   2.945   8.911  0.3830 -0.6797 -0.4534
23464SOL    HW275240   7.321   3.039   8.831 -0.5349  0.0742  1.3612
23465SOL     OW75241   7.130   2.756   7.285 -0.1404 -0.4198 -0.0746
23465SOL    HW175242   7.196   2.687   7.298  0.3006 -0.0796 -0.5024
23465SOL    HW275243   7.174   2.823   7.233 -0.0278  0.9644  1.6932
23466SOL     OW75244   8.166   2.184   8.749 -0.2023 -0.3708 -0.1032
23466SOL    HW175245   8.248   2.134   8.747  0.3504  0.5308 -0.4470
23466SOL    HW275246   8.100   2.120   8.721  0.6446 -0.6640 -1.5867
23467SOL     OW75247   8.620   0.909   7.096  0.0881 -0.0489 -0.1342
23467SOL    HW175248   8.653   0.981   7.150  1.1793  0.3945 -1.3479
23467SOL    HW275249   8.650   0.830   7.141  1.0505  0.3145 -0.1186
23468SOL     OW75250   7.844   1.052   7.524 -0.8637  0.0055 -0.0941
23468SOL    HW175251   7.821   0.962   7.501 -0.3501  0.1348 -1.1697
23468SOL    HW275252   7.804   1.066   7.610 -1.7853 -0.9235 -0.3516
23469SOL     OW75253   7.820   0.457   7.880  0.4411  0.0561  0.1607
23469SOL    HW175254   7.784   0.377   7.918 -0.6473  1.2731  1.8569
23469SOL    HW275255   7.914   0.442   7.878  0.4388 -0.5949  2.2155
23470SOL     OW75256   6.670   0.946   9.775  0.2786 -0.4921 -0.5742
23470SOL    HW175257   6.687   0.913   9.863 -0.4944 -1.9973 -0.9547
23470SOL    HW275258   6.745   0.915   9.723  2.0901  2.5129 -0.0454
23471SOL     OW75259   7.360   1.808   8.464  0.4265  0.2469  0.0083
23471SOL    HW175260   7.269   1.838   8.465  0.0157 -0.8548 -1.4734
23471SOL    HW275261   7.356   1.718   8.433  1.9340 -0.2646  1.1521
23472SOL     OW75262   7.346   0.307   9.774  0.1718 -0.1885  0.1549
23472SOL    HW175263   7.427   0.332   9.730 -0.3178 -1.0663 -1.3029
23472SOL    HW275264   7.276   0.344   9.721 -0.4415 -1.5228 -0.0240
23473SOL     OW75265   8.005   2.563   6.704  0.1927  0.5716 -0.2752
23473SOL    HW175266   8.042   2.475   6.698 -0.7166  0.1886 -0.5016
23473SOL    HW275267   7.998   2.580   6.798  2.9711  1.5707 -0.1444
23474SOL     OW75268   8.905   1.904   9.333 -0.2027 -0.5318 -0.3747
23474SOL    HW175269   8.963   1.838   9.294 -0.0901 -0.2498 -0.6829
23474SOL    HW275270   8.917   1.982   9.279 -1.3264 -0.6434 -0.8174
23475SOL     OW75271   7.036   1.019   0.223  0.0776  0.0081  0.1773
23475SOL    HW175272   7.053   0.927   0.204 -2.9403 -0.7721  0.7161
23475SOL    HW275273   7.019   1.059   0.138  0.9121 -0.0298 -0.0120
23476SOL     OW75274   0.087   1.974   7.097  0.1372 -0.7706  0.2627
23476SOL    HW175275   0.028   2.009   7.030 -1.1438 -1.5956  0.9151
23476SOL    HW275276   0.171   2.016   7.080 -0.0038 -1.3396 -2.1787
23477SOL     OW75277   6.311   2.157   8.111 -0.9897  0.2561  0.0674
23477SOL    HW175278   6.230   2.178   8.157 -2.1999 -0.5100 -1.6084
23477SOL    HW275279   6.343   2.078   8.154 -0.4970  1.1723  1.4525
23478SOL     OW75280   6.502   0.608   7.262  0.3832 -0.1699  0.0494
23478SOL    HW175281   6.465   0.614   7.350 -0.3161 -1.8863 -0.0964
23478SOL    HW275282   6.543   0.693   7.247 -4.0169  2.2012 -0.0291
23479SOL     OW75283   9.210   8.786   8.700  0.0781 -0.0293 -0.7167
23479SOL    HW175284   9.229   8.855   8.637  0.4353  0.0542 -0.5160
23479SOL    HW275285   9.119   8.762   8.682 -0.5299  1.4842  0.1589
23480SOL     OW75286   0.967   1.583   9.778  0.3191 -0.5660 -0.0513
23480SOL    HW175287   0.887   1.584   9.725 -0.0879 -1.6855  0.4996
23480SOL    HW275288   0.937   1.609   9.865  0.2752 -2.2888  0.4807
23481SOL     OW75289   7.582   9.129   0.215 -0.2358  0.1367  0.4519
23481SOL    HW175290   7.665   9.122   0.166 -0.8355 -0.1862 -0.5420
23481SOL    HW275291   7.515   9.099   0.153 -0.9898 -0.5788  1.5779
23482SOL     OW75292   8.571   9.330   8.882 -0.3956  0.7003 -0.2089
23482SOL    HW175293   8.618   9.376   8.812  1.9428  0.0409  0.8565
23482SOL    HW275294   8.605   9.367   8.963 -1.8470  0.2741  0.6300
23483SOL     OW75295   6.885   7.632   8.046 -0.8657 -0.3645 -0.1349
23483SOL    HW175296   6.851   7.543   8.057 -0.4102 -0.3369  1.8867
23483SOL    HW275297   6.979   7.620   8.031 -0.5996 -0.2212  1.2797
23484SOL     OW75298   7.660   0.220   5.788 -0.0562 -0.1094  0.3645
23484SOL    HW175299   7.726   0.214   5.857  0.5491  0.9981 -0.0890
23484SOL    HW275300   7.692   0.289   5.731 -0.4292 -1.1509 -1.1625
23485SOL     OW75301   7.177   0.448   6.750 -0.2760 -0.2164 -0.5853
23485SOL    HW175302   7.226   0.495   6.682 -1.3962  3.6398  0.9585
23485SOL    HW275303   7.088   0.439   6.714 -0.3249 -0.1606 -0.4803
23486SOL     OW75304   6.958   2.845   7.498 -0.0692 -0.2085 -0.7145
23486SOL    HW175305   7.029   2.828   7.561 -1.2948 -0.3099  0.7066
23486SOL    HW275306   6.984   2.796   7.420  1.5741  0.0144 -0.3542
23487SOL     OW75307   8.656   1.177   6.552 -0.0688  0.2935  0.4439
23487SOL    HW175308   8.683   1.184   6.460 -1.7673  2.3911  0.0226
23487SOL    HW275309   8.606   1.096   6.556 -1.3114  0.9354 -0.9095
23488SOL     OW75310   0.816   9.817   9.613 -0.6410 -0.2036 -0.4835
23488SOL    HW175311   0.778   9.899   9.647 -0.2852 -0.5146  0.7307
23488SOL    HW275312   0.908   9.822   9.637 -0.4287 -0.5556 -1.2166
23489SOL     OW75313   8.204   0.048   7.411 -0.3470  0.5296  0.3023
23489SOL    HW175314   8.197  -0.045   7.431  0.7150  0.0180 -1.4274
23489SOL    HW275315   8.179   0.054   7.319 -1.2644  2.1012  0.6281
23490SOL     OW75316   7.609   0.648   8.769 -0.0822 -0.3815 -0.0444
23490SOL    HW175317   7.655   0.644   8.685  0.1210  0.4969  0.0183
23490SOL    HW275318   7.540   0.582   8.761  0.3862 -0.8152 -0.6225
23491SOL     OW75319   7.340   2.409   7.594 -0.3535 -0.2486 -0.1919
23491SOL    HW175320   7.431   2.427   7.570 -0.8170  2.0078 -0.3868
23491SOL    HW275321   7.341   2.317   7.621  1.9822 -0.2794 -0.1827
23492SOL     OW75322   7.527   1.865   8.053 -0.6980  0.0177  0.2294
23492SOL    HW175323   7.448   1.822   8.086 -0.3100 -1.8668 -1.1376
23492SOL    HW275324   7.529   1.843   7.960 -0.3211  2.8694 -0.5212
23493SOL     OW75325   9.034   0.210   9.838 -0.4140  0.0620  0.1500
23493SOL    HW175326   9.125   0.214   9.867 -0.5840  1.2533  0.5469
23493SOL    HW275327   9.014   0.298   9.806 -2.0054  0.4088  1.9340
23494SOL     OW75328   8.275   1.011   8.541 -0.6819 -0.1670  0.1962
23494SOL    HW175329   8.207   1.058   8.493 -0.6382  0.3709  0.6663
23494SOL    HW275330   8.268   0.921   8.509 -0.4448  0.2361 -1.0712
23495SOL     OW75331   8.158   1.439   5.144  0.4490  0.5348 -0.1197
23495SOL    HW175332   8.088   1.451   5.209 -0.1132 -0.0346 -0.6047
23495SOL    HW275333   8.239   1.454   5.193  0.0212  0.4183  0.6401
23496SOL     OW75334   0.465   9.687   0.871 -0.1395 -0.3916 -0.4764
23496SOL    HW175335   0.480   9.780   0.886  0.4287 -0.5372 -0.0902
23496SOL    HW275336   0.496   9.671   0.782  1.9106 -0.6409  0.2243
23497SOL     OW75337   7.916   2.774   0.550 -0.2963 -0.2292 -0.5755
23497SOL    HW175338   7.916   2.749   0.458 -1.4882  1.0009 -0.9401
23497SOL    HW275339   7.824   2.773   0.576 -0.3939  2.8168 -0.4191
23498SOL     OW75340   6.049   2.763   6.081 -0.0012 -0.3620 -0.0251
23498SOL    HW175341   6.089   2.846   6.053  0.3405 -0.1065  1.1477
23498SOL    HW275342   6.120   2.699   6.076  0.2005 -0.2046  0.7291
23499SOL     OW75343   7.051   0.424   4.051 -0.5229  0.2274  0.2229
23499SOL    HW175344   7.104   0.358   4.095 -1.4950 -0.1320  0.8886
23499SOL    HW275345   7.089   0.430   3.963  0.0524 -0.6690  0.3924
23500SOL     OW75346   8.262   8.850   8.014 -0.2603 -0.2589 -0.0218
23500SOL    HW175347   8.236   8.939   8.037 -1.3467 -0.5118 -0.2087
23500SOL    HW275348   8.222   8.835   7.928 -1.8280 -1.6035  0.8632
23501SOL     OW75349   5.832   0.299   8.513 -0.1204  0.2452 -0.1075
23501SOL    HW175350   5.807   0.294   8.421 -0.0386 -0.8030 -0.0830
23501SOL    HW275351   5.887   0.222   8.527 -0.6460  0.0549  0.9723
23502SOL     OW75352   0.032   7.195   9.823 -0.9135  0.3175  0.1165
23502SOL    HW175353   0.127   7.209   9.818 -1.0797  2.1028  1.0022
23502SOL    HW275354  -0.003   7.238   9.745 -0.9482 -1.2330 -0.7562
23503SOL     OW75355   7.305   0.068   1.350  0.0728 -1.0566  0.7418
23503SOL    HW175356   7.304   0.163   1.360 -0.9580 -1.0765  0.9470
23503SOL    HW275357   7.365   0.037   1.418  1.7194 -0.4634 -0.3779
23504SOL     OW75358   7.598   0.746   9.013 -0.2524 -0.3175 -0.0871
23504SOL    HW175359   7.606   0.733   8.918 -1.2411 -1.5812 -0.0208
23504SOL    HW275360   7.510   0.714   9.034 -1.4653  3.0793  0.7390
23505SOL     OW75361   6.750   1.025   5.609  0.7979 -0.6669 -0.4467
23505SOL    HW175362   6.797   0.972   5.674  0.8870 -0.4498 -0.3345
23505SOL    HW275363   6.796   1.007   5.526 -0.1614 -2.0299 -0.7298
23506SOL     OW75364   9.547   8.260   8.105  0.3087  0.1565  0.4436
23506SOL    HW175365   9.616   8.284   8.043  1.5079  0.0700  1.7011
23506SOL    HW275366   9.532   8.340   8.156  2.9891 -1.0250  3.3997
23507SOL     OW75367   6.832   0.964   7.011  0.0617 -0.4229 -0.0448
23507SOL    HW175368   6.763   1.022   7.042  1.5418  0.4355  1.8508
23507SOL    HW275369   6.907   1.020   6.996  1.7732 -1.8250  2.5666
23508SOL     OW75370   5.886   0.853   8.636 -0.2609  0.5047  0.2510
23508SOL    HW175371   5.899   0.815   8.549 -0.5192  0.5439  0.1945
23508SOL    HW275372   5.803   0.900   8.630 -0.6848 -0.1640  0.7529
23509SOL     OW75373   7.563   0.464   9.686 -0.5846  0.6017 -0.4599
23509SOL    HW175374   7.529   0.548   9.716 -0.6011 -0.1713  1.8524
23509SOL    HW275375   7.596   0.421   9.765  0.8496 -0.9417 -1.8082
23510SOL     OW75376   9.109   0.701   6.820  0.1412 -0.0861  0.3764
23510SOL    HW175377   9.098   0.620   6.869 -2.2615  1.6379  3.0151
23510SOL    HW275378   9.157   0.759   6.880  1.2059  0.6864 -1.1643
23511SOL     OW75379   6.856   2.621   7.808  0.2217  0.1189  0.4691
23511SOL    HW175380   6.787   2.559   7.832 -0.9478  1.2011  0.0469
23511SOL    HW275381   6.873   2.671   7.887  0.1349  0.1978  0.4389
23512SOL     OW75382   6.078   1.393   4.819 -0.1912  0.1181  0.1096
23512SOL    HW175383   6.038   1.422   4.901 -0.9774 -0.5534 -0.0221
23512SOL    HW275384   6.073   1.297   4.822 -1.7207  0.0918 -1.4130
23513SOL     OW75385   6.351   9.111   9.162  0.1617 -0.2155  0.2927
23513SOL    HW175386   6.290   9.038   9.175 -0.0155 -0.4708 -1.6656
23513SOL    HW275387   6.423   9.073   9.111  0.5658  0.7516  0.1311
23514SOL     OW75388   6.094   1.704   6.354  0.3760  0.1169  0.0303
23514SOL    HW175389   6.189   1.715   6.360  0.3331  0.1621  0.7314
23514SOL    HW275390   6.067   1.761   6.283  0.7948  0.6158  0.2682
23515SOL     OW75391   7.977   0.144   5.281  0.3257 -0.8088  0.1162
23515SOL    HW175392   8.060   0.192   5.285 -0.0084 -0.3132  1.4345
23515SOL    HW275393   7.997   0.058   5.316  0.0555 -0.3202  1.5369
23516SOL     OW75394   9.522   0.540   7.502 -0.0164 -0.5678 -0.0193
23516SOL    HW175395   9.455   0.526   7.435  0.0161  1.0564 -0.4421
23516SOL    HW275396   9.579   0.608   7.465  1.5103 -1.4764  0.5959
23517SOL     OW75397   8.380   1.779   8.871 -0.4845 -0.1787  0.0387
23517SOL    HW175398   8.406   1.870   8.857  0.3886 -0.5244 -0.7724
23517SOL    HW275399   8.392   1.737   8.785 -1.3660 -0.9443  0.2692
23518SOL     OW75400   0.188   9.326   6.428  0.0328 -0.1379  0.3207
23518SOL    HW175401   0.269   9.320   6.377 -0.0903 -1.5579  0.2436
23518SOL    HW275402   0.181   9.418   6.451 -1.2758  1.2576 -4.4720
23519SOL     OW75403   6.860   1.547   6.565 -0.1691 -0.2888  0.0409
23519SOL    HW175404   6.916   1.499   6.505 -0.5496  1.6048 -1.9629
23519SOL    HW275405   6.915   1.617   6.600 -0.1369 -0.9783  1.4381
23520SOL     OW75406   9.043   1.817   7.627 -0.7593  0.5228  0.2006
23520SOL    HW175407   9.075   1.850   7.711  5.3632  1.8538 -2.0900
23520SOL    HW275408   9.057   1.723   7.631 -1.2462  0.4772  0.9317
23521SOL     OW75409   9.072   9.216   6.511 -0.1505  0.0514 -0.8560
23521SOL    HW175410   9.074   9.240   6.604  0.4825 -1.6258 -0.4094
23521SOL    HW275411   9.145   9.265   6.472  0.8114 -0.7193 -0.0702
23522SOL     OW75412   8.266   0.267   8.828 -0.2055  0.7698  0.3211
23522SOL    HW175413   8.339   0.322   8.801  0.7679  0.2209  1.7271
23522SOL    HW275414   8.225   0.314   8.900 -1.1991  1.0204 -0.3849
23523SOL     OW75415   7.821   9.850   8.253 -0.0911  0.5010  0.0303
23523SOL    HW175416   7.751   9.884   8.309  0.5419  0.2662  0.9869
23523SOL    HW275417   7.776   9.799   8.186 -0.7480 -1.4665  1.8760
23524SOL     OW75418   8.994   0.425   8.729  0.0000 -0.6915 -0.1905
23524SOL    HW175419   9.042   0.401   8.649  2.0843 -0.6974  0.9898
23524SOL    HW275420   8.978   0.341   8.772  0.3294 -0.5750  0.1650
23525SOL     OW75421   7.509   2.928   5.744 -0.1938  0.1564 -0.6492
23525SOL    HW175422   7.458   2.877   5.682  0.0832 -0.1805 -0.6057
23525SOL    HW275423   7.532   3.008   5.696 -0.7943  0.3304 -0.6515
23526SOL     OW75424   7.415   0.780   5.054 -0.0307 -0.5652  0.2412
23526SOL    HW175425   7.350   0.715   5.028 -0.1807 -1.3060  2.2858
23526SOL    HW275426   7.428   0.765   5.148  3.0115 -0.3568 -0.0527
23527SOL     OW75427   0.346   8.626   8.267 -0.1143 -0.1767  0.0460
23527SOL    HW175428   0.396   8.633   8.186  0.6888 -2.0584  0.3204
23527SOL    HW275429   0.342   8.532   8.285 -0.7802  0.1512  1.8639
23528SOL     OW75430   9.683   1.643   7.352 -0.1384  0.5293  0.6466
23528SOL    HW175431   9.700   1.733   7.325 -1.1588  0.6552  0.3876
23528SOL    HW275432   9.598   1.646   7.395 -0.5661 -0.4492 -0.0942
23529SOL     OW75433   9.397   0.114   9.727  0.0952  0.6586 -0.0962
23529SOL    HW175434   9.454   0.055   9.775 -0.2129  1.0656  0.7933
23529SOL    HW275435   9.451   0.190   9.708  0.7234 -0.1808 -1.9136
23530SOL     OW75436   8.965   9.678   4.518  0.2911 -0.2703 -0.2390
23530SOL    HW175437   9.044   9.684   4.465  0.5570  1.3753  0.2763
23530SOL    HW275438   8.965   9.758   4.571 -1.9351  0.0017 -0.5382
23531SOL     OW75439   7.306   2.179   6.741  0.0917 -0.4022  0.5737
23531SOL    HW175440   7.356   2.259   6.726  1.3537 -1.1684  0.5646
23531SOL    HW275441   7.304   2.136   6.656 -4.2595  1.5384 -0.5992
23532SOL     OW75442   0.050   1.949   7.838  0.3410  0.3290 -0.4705
23532SOL    HW175443  -0.009   1.905   7.777  1.2238  1.7703 -2.5022
23532SOL    HW275444   0.085   1.879   7.893 -2.3262 -0.6934  0.0400
23533SOL     OW75445   9.836   1.528   9.177 -0.6756 -0.5208 -0.2329
23533SOL    HW175446   9.829   1.623   9.168 -0.3518 -0.4338  0.4099
23533SOL    HW275447   9.746   1.496   9.173 -0.9711 -0.0031  1.5408
23534SOL     OW75448   9.321   3.889   9.508 -0.5320 -0.0424 -0.1921
23534SOL    HW175449   9.357   3.875   9.596  0.7094  0.9710 -0.5096
23534SOL    HW275450   9.236   3.930   9.523 -0.0441  0.7291  0.5426
23535SOL     OW75451   5.044   2.831   7.561 -0.1235 -0.4989 -0.0649
23535SOL    HW175452   4.974   2.814   7.624 -0.3447  3.8019  1.1412
23535SOL    HW275453   4.999   2.864   7.483  0.4518 -0.2657 -0.3015
23536SOL     OW75454   9.356   0.415   8.732  0.2002 -0.3178  0.6417
23536SOL    HW175455   9.356   0.476   8.806 -0.8648  1.0405 -0.4223
23536SOL    HW275456   9.346   0.471   8.655  1.7856 -1.6414 -0.6132
23537SOL     OW75457   8.960   8.803   8.997  0.8169  1.3393  0.2373
23537SOL    HW175458   8.901   8.756   8.939 -0.1433  0.2952  1.9679
23537SOL    HW275459   9.017   8.735   9.033  0.8575  1.8270  1.1174
23538SOL     OW75460   7.824   1.673   9.161  0.2025  0.3342 -0.0048
23538SOL    HW175461   7.855   1.637   9.244  1.5832 -0.6625 -0.9028
23538SOL    HW275462   7.856   1.611   9.095 -0.9549  1.0376 -1.2815
23539SOL     OW75463   7.131   9.157   9.108 -0.4154 -0.1850  0.4534
23539SOL    HW175464   7.219   9.189   9.126 -0.4179 -0.6212  1.3206
23539SOL    HW275465   7.109   9.103   9.184 -0.8751 -1.2398 -0.3990
23540SOL     OW75466   5.294   4.244   7.213  0.2482 -0.4397 -0.1672
23540SOL    HW175467   5.312   4.292   7.294  0.4000  0.0982 -0.5145
23540SOL    HW275468   5.253   4.163   7.242  2.3350 -1.2935  0.6121
23541SOL     OW75469   8.476   0.354   8.656 -0.3772 -0.0287 -0.3890
23541SOL    HW175470   8.428   0.329   8.578  0.2789 -2.9317  0.0239
23541SOL    HW275471   8.556   0.301   8.654 -1.2311 -1.7967  3.1688
23542SOL     OW75472   8.297   0.474   8.040  0.3100 -0.7004 -0.0193
23542SOL    HW175473   8.306   0.554   8.091  1.0592  0.3037 -1.6333
23542SOL    HW275474   8.385   0.436   8.037  0.4032 -0.4489 -0.9726
23543SOL     OW75475   6.615   0.931   8.245  0.3706  0.1498  0.2807
23543SOL    HW175476   6.573   0.872   8.183  0.7340 -0.0257  0.1967
23543SOL    HW275477   6.639   0.876   8.319  2.4233 -0.2225 -0.6039
23544SOL     OW75478   6.835   1.942   6.940 -0.4740  0.0290 -0.5703
23544SOL    HW175479   6.805   1.876   7.002  2.1638 -0.1867  0.6347
23544SOL    HW275480   6.929   1.927   6.933 -0.2835  1.7043 -2.6788
23545SOL     OW75481   6.621   1.563   0.771 -0.4021  0.1439  0.3515
23545SOL    HW175482   6.553   1.631   0.777 -0.0545  0.6201 -0.9171
23545SOL    HW275483   6.574   1.481   0.789 -0.7261  0.7355  2.4141
23546SOL     OW75484   7.789   7.800   6.875  0.6475  0.3969 -0.6624
23546SOL    HW175485   7.856   7.733   6.865 -0.8251 -1.1516 -0.5021
23546SOL    HW275486   7.779   7.810   6.970 -0.1602 -0.2392 -0.6736
23547SOL     OW75487   5.685   8.967   0.753  0.5388  0.1328  0.0236
23547SOL    HW175488   5.595   8.953   0.783 -0.0235 -1.8707 -2.2770
23547SOL    HW275489   5.685   9.056   0.718 -0.9157 -0.2099 -0.9518
23548SOL     OW75490   8.715   3.081   8.924 -0.8465 -0.4788  0.1875
23548SOL    HW175491   8.723   3.021   8.849 -0.8196  0.1419 -0.3172
23548SOL    HW275492   8.801   3.121   8.932 -1.1295  0.2088 -0.1045
23549SOL     OW75493   0.667   0.524   9.255  0.3946 -0.1779 -0.6908
23549SOL    HW175494   0.599   0.468   9.293  1.4213 -1.4202 -0.6023
23549SOL    HW275495   0.700   0.575   9.329 -0.6629  0.6957 -0.8032
23550SOL     OW75496   0.463   8.432   6.118 -0.4644 -0.0335 -0.5270
23550SOL    HW175497   0.408   8.381   6.178 -0.1664 -0.3524 -0.5260
23550SOL    HW275498   0.400   8.481   6.065 -0.7338  0.1822 -0.0196
23551SOL     OW75499   8.688   0.880   8.129  0.0965 -0.1707  0.5256
23551SOL    HW175500   8.636   0.923   8.197 -0.0654 -1.7148  1.4257
23551SOL    HW275501   8.758   0.836   8.177  2.1224  1.5811 -0.6332
23552SOL     OW75502   5.305   2.814   6.599 -0.3257 -0.5626 -0.3007
23552SOL    HW175503   5.214   2.791   6.617 -0.2117 -0.9728 -0.2283
23552SOL    HW275504   5.335   2.746   6.539  0.1684 -0.9098  0.3174
23553SOL     OW75505   8.081   1.154   8.969  0.1834  0.0455  0.3105
23553SOL    HW175506   8.121   1.241   8.974 -0.9844  0.6320 -0.0099
23553SOL    HW275507   8.154   1.093   8.979  0.7525  1.0193  2.9699
23554SOL     OW75508   8.859   9.691   9.645 -0.4079  0.3302 -0.1554
23554SOL    HW175509   8.771   9.655   9.629 -0.7710  0.2975  1.6367
23554SOL    HW275510   8.884   9.732   9.562 -2.2683  0.6524 -0.6068
23555SOL     OW75511   7.209   0.640   8.019 -0.1813  0.0367  0.2055
23555SOL    HW175512   7.190   0.566   7.962 -0.0549 -0.1159  0.3584
23555SOL    HW275513   7.169   0.616   8.103  0.7226 -0.3144  0.5492
23556SOL     OW75514   8.159   0.386   9.713  0.6143  0.1620 -0.7877
23556SOL    HW175515   8.231   0.373   9.775 -0.5604 -1.9874  0.2298
23556SOL    HW275516   8.149   0.481   9.709  0.5034  0.4431  2.6717
23557SOL     OW75517   7.777   8.730   9.651  0.7326  0.6765  0.5525
23557SOL    HW175518   7.833   8.795   9.610 -0.3793  0.8721 -0.7186
23557SOL    HW275519   7.701   8.722   9.593  0.7203 -1.5846  0.7645
23558SOL     OW75520   6.590   2.430   9.328  0.9492 -0.1578 -0.0467
23558SOL    HW175521   6.591   2.439   9.423 -0.6614  0.3819 -0.0474
23558SOL    HW275522   6.508   2.470   9.301  1.6222  0.1679 -1.7295
23559SOL     OW75523   8.885   2.578   0.020  0.2347  0.2311 -0.4633
23559SOL    HW175524   8.792   2.567   0.004  0.7155 -1.7121 -2.3193
23559SOL    HW275525   8.913   2.646  -0.041  0.1484  0.4067 -0.3085
23560SOL     OW75526   7.656   1.090   8.532  0.0080  0.0151 -0.1791
23560SOL    HW175527   7.660   1.164   8.592 -0.2064 -0.7614  0.8086
23560SOL    HW275528   7.747   1.074   8.507  0.2174 -0.2673  0.7181
23561SOL     OW75529   7.455   2.222   7.921 -0.4997 -0.5228 -0.2892
23561SOL    HW175530   7.507   2.277   7.863 -0.3602  0.4758  0.7457
23561SOL    HW275531   7.384   2.189   7.865 -1.5520  2.0375 -0.6357
23562SOL     OW75532   7.494   1.171   9.283 -0.1173 -0.0983  0.1558
23562SOL    HW175533   7.565   1.171   9.219 -1.1666  1.2523 -1.0580
23562SOL    HW275534   7.440   1.095   9.259 -1.9623  1.8704 -2.3255
23563SOL     OW75535   7.876   9.708   8.656 -0.5331 -0.0323 -0.6532
23563SOL    HW175536   7.832   9.635   8.614 -0.9209 -0.1784  0.0042
23563SOL    HW275537   7.835   9.786   8.618  0.7125 -0.1107 -2.2623
23564SOL     OW75538   0.736   9.637   7.720 -0.0394 -0.6141 -0.0893
23564SOL    HW175539   0.738   9.561   7.778 -2.0424 -0.3771  0.3788
23564SOL    HW275540   0.651   9.631   7.676  1.0556 -0.3377 -2.4437
23565SOL     OW75541   0.103   0.619   8.921  0.2488 -0.1689 -0.0163
23565SOL    HW175542   0.154   0.574   8.854  1.0225  0.6394  0.0032
23565SOL    HW275543   0.153   0.603   9.002 -0.3844 -0.6820  0.2814
23566SOL     OW75544   9.688   9.379   8.610  0.8496 -0.0454 -0.0710
23566SOL    HW175545   9.640   9.296   8.617  1.0468 -0.1175  0.4442
23566SOL    HW275546   9.621   9.444   8.587  0.4680 -0.1087  0.8326
23567SOL     OW75547   8.675   2.616   9.226  0.2336  0.0944  0.2991
23567SOL    HW175548   8.732   2.541   9.242 -0.5761 -0.8901 -1.1683
23567SOL    HW275549   8.617   2.619   9.302  1.0616 -0.0161  0.9419
23568SOL     OW75550   4.647   4.829   7.402  1.0853 -0.1088 -0.2049
23568SOL    HW175551   4.715   4.771   7.368  1.3527  0.2308 -0.2634
23568SOL    HW275552   4.590   4.772   7.453  1.7263 -0.3190  0.3058
23569SOL     OW75553   6.638   1.705   9.217  0.2842  0.5332 -0.1612
23569SOL    HW175554   6.563   1.760   9.195  0.8007  1.6009  0.6600
23569SOL    HW275555   6.613   1.618   9.187 -0.0950  1.3807 -2.5597
23570SOL     OW75556   6.200   1.410   7.232 -0.7028 -0.3035 -0.1157
23570SOL    HW175557   6.125   1.437   7.178  0.1742  3.3029  0.1650
23570SOL    HW275558   6.163   1.393   7.318 -1.5147 -1.2822 -0.6476
23571SOL     OW75559   6.666   0.873   8.829  0.5088 -0.1040 -0.2633
23571SOL    HW175560   6.732   0.822   8.876 -0.2902 -0.0170  1.0180
23571SOL    HW275561   6.598   0.809   8.807  0.0497  0.1774  0.3107
23572SOL     OW75562   5.359   0.942   8.875  0.2466 -0.2953  0.1325
23572SOL    HW175563   5.348   0.867   8.934  0.1449 -1.9534 -1.8829
23572SOL    HW275564   5.371   1.017   8.934 -2.2181 -1.4231  2.2820
23573SOL     OW75565   2.180   8.747   8.851  0.3900 -0.1885 -0.2990
23573SOL    HW175566   2.147   8.780   8.767  0.8036  1.8106  0.2673
23573SOL    HW275567   2.256   8.693   8.827  1.2217  1.2884 -1.1973
23574SOL     OW75568   8.182   1.547   8.339 -0.0887  0.1876 -0.1855
23574SOL    HW175569   8.233   1.500   8.273 -1.1985  0.4434 -1.2780
23574SOL    HW275570   8.094   1.551   8.301 -0.8403  0.0688  1.4620
23575SOL     OW75571   0.108   1.301   8.269 -0.1147  0.3956  0.1162
23575SOL    HW175572   0.029   1.353   8.256 -0.1342  0.4754  0.5381
23575SOL    HW275573   0.123   1.259   8.184 -1.6671 -1.1128  0.5277
23576SOL     OW75574   3.490   2.558   8.199 -0.3980  0.4748 -0.3586
23576SOL    HW175575   3.564   2.514   8.157 -1.0925 -0.5834 -0.4834
23576SOL    HW275576   3.420   2.555   8.134 -0.5612  1.5216 -0.2614
23577SOL     OW75577   8.779   2.243   0.350  0.0206  0.2335  0.0589
23577SOL    HW175578   8.829   2.172   0.390 -1.4910 -1.7704 -1.4124
23577SOL    HW275579   8.845   2.293   0.301  0.9272 -1.1017 -0.1549
23578SOL     OW75580   8.965   0.831   8.724 -0.2730  0.8082 -0.3493
23578SOL    HW175581   9.007   0.765   8.779 -1.0407 -1.3830 -2.2263
23578SOL    HW275582   8.875   0.833   8.755 -0.4316  0.3867 -0.7624
23579SOL     OW75583   5.775   0.134   7.365 -0.4326  0.3103  0.2158
23579SOL    HW175584   5.733   0.117   7.281 -1.3288 -0.6632  0.8367
23579SOL    HW275585   5.704   0.132   7.429  0.2135  1.1650  0.9928
23580SOL     OW75586   9.524   0.633   5.699 -0.1596 -0.2852 -0.0806
23580SOL    HW175587   9.589   0.690   5.741 -0.4379  0.5995 -0.8136
23580SOL    HW275588   9.547   0.545   5.728  0.3007  0.1967  1.0506
23581SOL     OW75589   6.887   0.465   7.145 -0.1518  0.1475  0.1128
23581SOL    HW175590   6.804   0.485   7.188  0.3443  1.5509  0.4546
23581SOL    HW275591   6.914   0.381   7.183 -0.1057  0.9602  1.9764
23582SOL     OW75592   8.675   9.578   5.933  0.2593  0.2420 -0.4331
23582SOL    HW175593   8.737   9.519   5.890  0.2713  0.7614 -1.1488
23582SOL    HW275594   8.718   9.603   6.015  1.1794  0.8980 -1.0940
23583SOL     OW75595   0.238   1.685   9.846  0.1414 -0.6809  0.4107
23583SOL    HW175596   0.146   1.661   9.860 -0.2179 -0.1360 -0.8652
23583SOL    HW275597   0.253   1.760   9.903 -0.9274  0.7513 -1.1113
23584SOL     OW75598   7.533   3.299   7.253  0.4411 -0.4479  1.0814
23584SOL    HW175599   7.532   3.393   7.269  0.7120 -0.1139 -0.6350
23584SOL    HW275600   7.616   3.283   7.208  0.1346 -1.4026  0.8108
23585SOL     OW75601   7.589   0.136   9.643 -0.5843 -0.2365 -0.2525
23585SOL    HW175602   7.577   0.093   9.558  1.4196 -0.2399 -0.5689
23585SOL    HW275603   7.626   0.068   9.699  1.4476  0.6576 -0.4148
23586SOL     OW75604   1.317   0.104   8.555  0.1440  0.3704 -0.2051
23586SOL    HW175605   1.348   0.176   8.610  1.1059 -0.8806  0.9582
23586SOL    HW275606   1.360   0.119   8.470  0.8607  0.8166  0.2221
23587SOL     OW75607   0.126   2.154   8.015  0.3318 -0.3445 -0.2860
23587SOL    HW175608   0.169   2.113   8.090 -1.4515 -0.7146  0.5686
23587SOL    HW275609   0.079   2.082   7.972  0.7454  0.0010 -1.3598
23588SOL     OW75610   8.042   0.412   0.490  0.3143  0.7503 -0.8407
23588SOL    HW175611   7.976   0.347   0.516  0.8306  0.1665 -0.9680
23588SOL    HW275612   8.037   0.413   0.394  1.9710 -0.9146 -1.0090
23589SOL     OW75613   8.390   0.629   9.601  0.9473  0.4177  0.2977
23589SOL    HW175614   8.382   0.688   9.526  0.8102  1.4017  1.0564
23589SOL    HW275615   8.301   0.619   9.634  1.2361  1.6761  1.5546
23590SOL     OW75616   9.485   0.382   9.608 -0.5436 -0.1508  0.2851
23590SOL    HW175617   9.558   0.425   9.653 -1.6199  0.1462  1.8433
23590SOL    HW275618   9.526   0.330   9.539  1.1219  0.1261  1.0235
23591SOL     OW75619   9.515   8.552   5.055  1.0247  0.0347  0.2828
23591SOL    HW175620   9.575   8.626   5.046  0.4711  0.4145 -0.4338
23591SOL    HW275621   9.572   8.476   5.066  1.6539  0.3540 -0.6663
23592SOL     OW75622   7.448   0.334   8.049  0.0223  0.5314 -0.5240
23592SOL    HW175623   7.476   0.342   8.141 -0.7587  3.0178 -0.4341
23592SOL    HW275624   7.528   0.310   8.002  0.3392 -1.2689  0.8161
23593SOL     OW75625   9.102   0.678   5.568  0.2241  0.5471 -0.0240
23593SOL    HW175626   9.020   0.653   5.610  0.1135  0.7635 -0.1080
23593SOL    HW275627   9.157   0.711   5.639  0.9335 -1.2862  0.3495
23594SOL     OW75628   6.551   8.790   6.842  0.3640  0.5758 -0.2281
23594SOL    HW175629   6.478   8.850   6.827 -0.3551 -0.5108 -1.2598
23594SOL    HW275630   6.629   8.845   6.832 -0.1140  0.8291 -4.4740
23595SOL     OW75631   7.243   0.871   8.335  0.2008 -0.0008 -0.1175
23595SOL    HW175632   7.209   0.911   8.255  1.9537  1.7360 -0.0713
23595SOL    HW275633   7.217   0.931   8.405  1.8592  0.4994  0.1124
23596SOL     OW75634   0.047   1.714   5.022 -0.2144  0.5862 -0.0583
23596SOL    HW175635   0.010   1.629   5.045  2.1345 -0.3719  0.4903
23596SOL    HW275636   0.027   1.724   4.929 -0.8500 -0.3823 -0.0436
23597SOL     OW75637   8.086   9.459   5.950  0.6614  0.6381  0.2908
23597SOL    HW175638   8.004   9.499   5.981  0.4109 -0.2040  0.7675
23597SOL    HW275639   8.152   9.527   5.962 -0.1883  1.8190 -1.3841
23598SOL     OW75640   8.968   1.017   9.565 -0.1759  0.0141  0.0992
23598SOL    HW175641   8.904   1.072   9.521 -1.8479  0.0986  2.4592
23598SOL    HW275642   9.025   1.078   9.611  1.1347 -0.1049 -1.2695
23599SOL     OW75643   8.054   0.625   8.827 -0.3891 -0.7066  0.4997
23599SOL    HW175644   8.062   0.596   8.736 -0.5539 -2.2223  0.9306
23599SOL    HW275645   8.140   0.610   8.864  0.0277  1.0628  0.3106
23600SOL     OW75646   0.450   9.653   8.047 -0.1839 -0.2973 -0.0135
23600SOL    HW175647   0.364   9.614   8.059  0.2298 -1.1867  0.1137
23600SOL    HW275648   0.487   9.657   8.135 -1.1068  2.5654  0.3656
23601SOL     OW75649   8.021   1.810   8.032 -0.3241  0.3154  0.1499
23601SOL    HW175650   8.100   1.860   8.009 -0.3310 -0.1230 -0.8438
23601SOL    HW275651   7.953   1.877   8.039  0.0552  0.6576  0.6760
23602SOL     OW75652   9.838   0.711   8.326  0.0422  0.0487 -0.0446
23602SOL    HW175653   9.896   0.781   8.354  0.6430 -0.7637  0.8124
23602SOL    HW275654   9.889   0.663   8.260 -0.1376  0.0676 -0.1978
23603SOL     OW75655   9.426   0.216   7.859 -0.2896  0.1401  0.4511
23603SOL    HW175656   9.377   0.292   7.829 -0.3640  1.0003  2.5592
23603SOL    HW275657   9.517   0.246   7.861 -0.2406 -0.0231  0.7005
23604SOL     OW75658   6.137   2.809   1.402  0.2573 -0.0010  0.4869
23604SOL    HW175659   6.171   2.733   1.354 -1.3909 -0.8762  0.6161
23604SOL    HW275660   6.055   2.831   1.357  0.7375  1.7728  0.4174
23605SOL     OW75661   8.331   1.422   5.837  0.0516  0.5792 -0.5658
23605SOL    HW175662   8.257   1.470   5.800 -1.4201 -0.0715  1.3747
23605SOL    HW275663   8.322   1.433   5.932  0.9852 -1.5736 -0.1633
23606SOL     OW75664   9.657   0.121   0.183 -0.6857 -0.6709  0.0059
23606SOL    HW175665   9.708   0.202   0.180  0.2865 -1.2584  0.2653
23606SOL    HW275666   9.662   0.087   0.094 -1.8438 -0.0194 -0.3356
23607SOL     OW75667   5.351   0.264   7.208  0.2047  0.2250 -0.1839
23607SOL    HW175668   5.442   0.237   7.198  0.5677  0.9506  0.9087
23607SOL    HW275669   5.336   0.262   7.303 -0.9769 -0.0600 -0.3632
23608SOL     OW75670   8.242   4.231   7.071  0.2664 -0.2164  0.1272
23608SOL    HW175671   8.173   4.203   7.011  1.0102 -1.2839 -0.2580
23608SOL    HW275672   8.199   4.237   7.156 -0.9093  1.7379 -0.5298
23609SOL     OW75673   7.986   1.537   0.181 -0.0981 -0.0567  0.6637
23609SOL    HW175674   7.951   1.524   0.269 -0.3946 -0.1733  0.5315
23609SOL    HW275675   7.993   1.449   0.145 -0.3792  0.0204  0.4188
23610SOL     OW75676   6.588   1.475   7.874  0.2161  0.6645 -0.7907
23610SOL    HW175677   6.677   1.455   7.845  0.3211 -0.1959  0.1000
23610SOL    HW275678   6.547   1.516   7.797  1.4014  1.1821 -1.1801
23611SOL     OW75679   9.704   0.615   8.836 -0.6205 -0.0919 -0.1974
23611SOL    HW175680   9.691   0.652   8.749  0.7397  0.7803 -0.0579
23611SOL    HW275681   9.798   0.622   8.852 -0.5824 -1.8737  0.6388
23612SOL     OW75682   8.341   2.641   8.786  0.1568  0.1237 -0.0312
23612SOL    HW175683   8.341   2.706   8.716  2.8285 -0.3047 -0.5622
23612SOL    HW275684   8.321   2.558   8.742 -0.6081  0.1962  0.1705
23613SOL     OW75685   7.212   9.761   9.314 -0.0163 -0.9411  0.4613
23613SOL    HW175686   7.155   9.760   9.237 -0.0797  0.1445  0.4704
23613SOL    HW275687   7.290   9.714   9.287 -0.2824 -1.0816 -0.0750
23614SOL     OW75688   8.568   9.742   6.893 -0.1120 -0.0287 -0.2567
23614SOL    HW175689   8.581   9.796   6.971  0.2313  0.5669 -0.7134
23614SOL    HW275690   8.655   9.736   6.853 -0.3343 -0.0869 -0.7463
23615SOL     OW75691   7.454   7.900   9.043  0.1265  0.1832  0.2948
23615SOL    HW175692   7.419   7.935   8.961  0.6087 -2.6844 -1.2794
23615SOL    HW275693   7.376   7.871   9.091 -0.0273 -0.4789 -0.3405
23616SOL     OW75694   9.255   0.066   6.446  0.2705  0.1234 -0.1809
23616SOL    HW175695   9.241   0.156   6.476  1.0594  0.3345 -0.4181
23616SOL    HW275696   9.246   0.071   6.351  0.3386 -0.0463 -0.1971
23617SOL     OW75697   6.233   2.270   8.826 -0.1742 -0.5772 -0.5021
23617SOL    HW175698   6.231   2.328   8.750  1.0609 -1.7571 -1.4700
23617SOL    HW275699   6.193   2.322   8.896  0.5069  1.2967 -1.4247
23618SOL     OW75700   8.147   2.435   6.952 -0.9582 -0.1067 -0.3281
23618SOL    HW175701   8.211   2.478   7.009 -2.0064  0.3775  0.5204
23618SOL    HW275702   8.181   2.346   6.941 -1.2525 -0.5615  1.9830
23619SOL     OW75703   7.926   0.823   5.366 -0.1309  0.1940 -0.2913
23619SOL    HW175704   8.009   0.854   5.401  0.4096 -0.5692 -0.8647
23619SOL    HW275705   7.876   0.903   5.348  1.4779  0.8104 -2.3594
23620SOL     OW75706   8.764   1.716   0.084  0.3230  0.1827 -0.0826
23620SOL    HW175707   8.726   1.753   0.164  0.6182 -0.5860  0.4157
23620SOL    HW275708   8.828   1.653   0.114  1.2771  0.7193 -0.9284
23621SOL     OW75709   6.680   0.387   7.298  0.1864  0.2845  0.6086
23621SOL    HW175710   6.598   0.420   7.334 -0.0732  0.5784 -0.2242
23621SOL    HW275711   6.717   0.334   7.368  0.7819  2.5519  2.1196
23622SOL     OW75712   6.868   0.571   4.445 -0.0305  0.9579  0.1198
23622SOL    HW175713   6.902   0.613   4.524 -0.8006  1.2270  0.3148
23622SOL    HW275714   6.835   0.644   4.391 -0.2338  0.7073 -0.0984
23623SOL     OW75715   8.374   3.432   7.568 -0.2401  0.8967  0.1390
23623SOL    HW175716   8.453   3.485   7.561  0.4868 -0.3772 -2.9627
23623SOL    HW275717   8.344   3.422   7.478 -0.1840 -4.0072  0.3876
23624SOL     OW75718   6.936   0.786   0.572  0.7122  0.2246  0.4240
23624SOL    HW175719   6.913   0.849   0.504  2.6023 -1.3975 -1.9261
23624SOL    HW275720   7.029   0.803   0.590  0.4596  0.0489  1.9732
23625SOL     OW75721   8.053   1.090   7.201 -0.0266  0.1272 -0.4044
23625SOL    HW175722   8.091   1.083   7.289 -0.3958 -0.2123 -0.2698
23625SOL    HW275723   7.983   1.026   7.200  1.0643 -1.0987 -1.5277
23626SOL     OW75724   7.342   0.689   0.411  0.5526  0.0484  0.0323
23626SOL    HW175725   7.354   0.696   0.317  0.7109  0.5377  0.0857
23626SOL    HW275726   7.262   0.740   0.429  0.6188  0.1025  0.1815
23627SOL     OW75727   0.691   1.023   8.383  0.0982  0.1553  0.6584
23627SOL    HW175728   0.693   0.952   8.319 -0.3503  0.6524  0.0800
23627SOL    HW275729   0.605   1.063   8.372  1.0074  1.9738 -0.3553
23628SOL     OW75730   7.920   8.886   8.161  0.1641 -0.0142  0.3844
23628SOL    HW175731   8.011   8.896   8.188 -0.3775 -1.0972  2.8963
23628SOL    HW275732   7.882   8.827   8.226 -2.0693 -0.5124 -1.2457
23629SOL     OW75733   9.387   3.864   8.281  0.8701 -0.4066 -0.0181
23629SOL    HW175734   9.440   3.789   8.257  0.1783 -0.9333  0.0552
23629SOL    HW275735   9.413   3.933   8.220  2.9114 -0.0672  1.1355
23630SOL     OW75736   5.977   2.440   0.917  0.3243  0.4777 -0.2575
23630SOL    HW175737   6.056   2.390   0.896 -0.4254 -0.5424 -0.7978
23630SOL    HW275738   5.928   2.441   0.835 -0.8400 -0.0997  0.4015
23631SOL     OW75739   9.433   0.065   9.190  0.2995  0.4310  0.5235
23631SOL    HW175740   9.451  -0.004   9.253 -1.9822 -0.1338  0.6470
23631SOL    HW275741   9.498   0.052   9.121  2.5628  0.7921  2.4719
23632SOL     OW75742   8.868   7.385   9.166 -0.0476  0.2432 -0.0034
23632SOL    HW175743   8.902   7.411   9.081  0.5536 -1.6689 -0.3993
23632SOL    HW275744   8.885   7.291   9.171 -3.0530 -0.3761  0.8258
23633SOL     OW75745   7.185   0.294   6.217  0.1747  0.2272  0.7639
23633SOL    HW175746   7.100   0.298   6.173 -0.1560  1.6774  1.4775
23633SOL    HW275747   7.165   0.311   6.309  1.2378  0.6215  0.9350
23634SOL     OW75748   9.021   1.069   7.412  0.3244  0.2946 -0.4107
23634SOL    HW175749   8.952   1.009   7.439  1.0509 -0.5400 -0.3419
23634SOL    HW275750   8.979   1.130   7.352 -0.6299  0.2779  0.2164
23635SOL     OW75751   8.414   0.124   9.366 -0.1699  0.2895 -0.2498
23635SOL    HW175752   8.391   0.207   9.409  3.0637  0.1857  2.0420
23635SOL    HW275753   8.364   0.058   9.415 -1.4865  0.6937 -1.0018
23636SOL     OW75754   1.016   9.602   8.429 -0.0483  0.6436 -0.1485
23636SOL    HW175755   1.033   9.558   8.512  1.6275  0.3241 -0.6171
23636SOL    HW275756   1.073   9.679   8.430  1.1610 -0.1655 -1.5847
23637SOL     OW75757   0.127   9.416   0.935 -0.2899 -0.1487 -0.3631
23637SOL    HW175758   0.074   9.345   0.970  0.0553  0.0678  0.6379
23637SOL    HW275759   0.167   9.379   0.857 -0.7274 -0.8027 -0.2872
23638SOL     OW75760   7.817   9.758   9.426  0.6068  0.0926 -0.4157
23638SOL    HW175761   7.748   9.758   9.359 -0.5570 -0.3147  0.7306
23638SOL    HW275762   7.828   9.850   9.449  0.2840  0.1436 -0.4556
23639SOL     OW75763   7.773   9.377   5.606 -0.6672 -0.3324 -0.3221
23639SOL    HW175764   7.853   9.325   5.617 -0.1237  0.4292 -0.6464
23639SOL    HW275765   7.788   9.456   5.658 -0.2438  0.8700 -2.2010
23640SOL     OW75766   6.426   1.433   3.147  0.2405 -0.3214 -0.6524
23640SOL    HW175767   6.331   1.420   3.150  0.2223 -0.0812  0.0241
23640SOL    HW275768   6.457   1.371   3.081 -0.3442 -0.6651 -0.6089
23641SOL     OW75769   7.799   7.582   9.291 -0.5572  0.6430  0.1075
23641SOL    HW175770   7.891   7.606   9.276 -0.7666  1.8170  0.5481
23641SOL    HW275771   7.750   7.640   9.232 -1.0154 -0.1885 -0.3519
23642SOL     OW75772   9.500   2.996   1.489  0.0154 -0.3536 -0.7450
23642SOL    HW175773   9.590   2.981   1.461  0.7502 -1.6063  2.0096
23642SOL    HW275774   9.500   3.083   1.528 -0.5700  0.5784 -2.6601
23643SOL     OW75775   9.286   0.063   5.809 -0.1057  0.6257  0.2310
23643SOL    HW175776   9.372   0.022   5.799  0.2315  1.6571 -1.4058
23643SOL    HW275777   9.230   0.020   5.745  0.6161  3.5055 -2.5675
23644SOL     OW75778   8.475   1.433   0.940  0.4690  1.0977  0.4896
23644SOL    HW175779   8.507   1.523   0.929  1.6795  0.8561  1.7086
23644SOL    HW275780   8.537   1.393   1.001  0.2583 -0.7477 -0.4403
23645SOL     OW75781   9.543   2.632   9.711 -0.6936  0.0827 -0.2585
23645SOL    HW175782   9.575   2.671   9.629  0.6953 -1.2784 -0.4292
23645SOL    HW275783   9.580   2.543   9.710 -0.2592  0.1830  2.0535
23646SOL     OW75784   7.193   1.194   8.189  0.4578 -0.7710 -0.5252
23646SOL    HW175785   7.231   1.264   8.136  1.2566 -0.8243 -0.0452
23646SOL    HW275786   7.131   1.151   8.131 -1.2123  1.2638 -0.3755
23647SOL     OW75787   7.457   7.546   8.346 -0.0940  0.1724  0.7268
23647SOL    HW175788   7.367   7.578   8.352 -0.1947  0.6279 -1.8363
23647SOL    HW275789   7.508   7.624   8.324  0.3461 -0.5908 -1.2035
23648SOL     OW75790   8.718   6.741   9.192  0.4530  0.5203  0.2972
23648SOL    HW175791   8.776   6.711   9.262  0.9459 -0.4517 -0.4882
23648SOL    HW275792   8.630   6.720   9.222  0.6126  0.7397  0.9158
23649SOL     OW75793   9.342   0.132   0.287  0.1042 -0.0192 -0.0226
23649SOL    HW175794   9.318   0.041   0.302 -1.4677  0.0007 -1.9271
23649SOL    HW275795   9.374   0.135   0.197  2.0468  1.0138  0.6341
23650SOL     OW75796   9.649   1.884   0.268  0.1743  0.0437  0.2186
23650SOL    HW175797   9.658   1.813   0.332 -0.7028 -0.8569 -0.6124
23650SOL    HW275798   9.558   1.910   0.274 -0.2239 -0.8310 -1.4116
23651SOL     OW75799   8.777   9.239   9.653  0.9031 -0.7896  0.5094
23651SOL    HW175800   8.745   9.283   9.574  0.1046 -0.8364  0.8002
23651SOL    HW275801   8.859   9.285   9.674  1.9651 -1.7836 -1.2199
23652SOL     OW75802   5.283   9.697   1.375  0.0592  0.1550 -0.2310
23652SOL    HW175803   5.192   9.709   1.349 -0.4757 -1.3621  0.8535
23652SOL    HW275804   5.326   9.778   1.348 -1.2506  0.2473 -2.2253
23653SOL     OW75805   8.087   0.468   7.878  0.3228  0.0722  0.1482
23653SOL    HW175806   8.112   0.473   7.785 -0.2031  3.3779  0.0885
23653SOL    HW275807   8.171   0.462   7.925  0.5993 -1.4176 -0.4748
23654SOL     OW75808   7.012   1.144   6.614  0.2684  0.2256  0.1427
23654SOL    HW175809   7.007   1.054   6.582 -3.8179  1.1658 -2.6475
23654SOL    HW275810   6.981   1.139   6.704 -1.0716 -1.0846 -0.3444
23655SOL     OW75811   8.975   9.067   9.267 -0.4397 -0.2536  0.0398
23655SOL    HW175812   9.049   9.011   9.248  0.2883  0.4388  0.7534
23655SOL    HW275813   9.012   9.139   9.318 -1.2324  1.1773 -1.3021
23656SOL     OW75814   0.518   1.538   9.298  0.7773 -0.4188  0.3092
23656SOL    HW175815   0.503   1.450   9.332  0.3306 -0.3083  0.4024
23656SOL    HW275816   0.435   1.564   9.260  1.7238 -1.2635 -2.5721
23657SOL     OW75817   7.400   1.934   8.876 -0.2144 -0.4764 -0.1035
23657SOL    HW175818   7.327   1.916   8.816  0.3104 -1.1112 -0.5657
23657SOL    HW275819   7.445   1.850   8.884  0.9817  0.1044 -0.5354
23658SOL     OW75820   6.925   9.600   0.604  0.2595 -0.0687  0.3542
23658SOL    HW175821   6.860   9.577   0.538 -0.1321 -0.7282  0.9657
23658SOL    HW275822   7.007   9.608   0.555  0.0038 -0.7092 -0.1855
23659SOL     OW75823   7.810   9.265   0.704 -0.0860 -0.1336  0.0963
23659SOL    HW175824   7.790   9.178   0.739 -0.2739  0.7718  2.4002
23659SOL    HW275825   7.831   9.318   0.781  0.0567  1.8762 -1.2445
23660SOL     OW75826   7.652   1.304   7.828  0.4006 -0.7018  0.0803
23660SOL    HW175827   7.672   1.351   7.910 -0.8300  0.7509 -0.3996
23660SOL    HW275828   7.733   1.259   7.806  1.5701  0.9704  0.7472
23661SOL     OW75829   9.692   6.803   6.917  0.1166 -0.3844 -0.5587
23661SOL    HW175830   9.705   6.721   6.966 -0.2980  0.8921  1.8236
23661SOL    HW275831   9.597   6.811   6.909  0.1782 -1.0850 -2.6183
23662SOL     OW75832   5.892   1.844   0.762 -0.1405  0.1400  0.1840
23662SOL    HW175833   5.963   1.862   0.701  0.5709 -2.0774  0.2580
23662SOL    HW275834   5.892   1.748   0.771 -3.7788 -0.0499 -0.5748
23663SOL     OW75835   6.356   9.560   7.701 -0.2463 -0.3042  0.0328
23663SOL    HW175836   6.355   9.590   7.610 -0.7447 -3.8427 -1.3036
23663SOL    HW275837   6.446   9.532   7.716  0.3231  1.9650  1.3966
23664SOL     OW75838   8.092   9.607   1.015  0.3130 -0.5095 -0.0016
23664SOL    HW175839   8.121   9.566   1.097  2.2834 -1.2866 -1.0315
23664SOL    HW275840   8.163   9.590   0.953 -0.6053  1.0855 -1.5694
23665SOL     OW75841   9.376   9.662   8.913 -0.0444  0.4673 -0.1688
23665SOL    HW175842   9.408   9.748   8.887 -0.1074  0.7471  0.6636
23665SOL    HW275843   9.317   9.636   8.842  0.0572  1.0632 -0.4739
23666SOL     OW75844   9.755   7.336   9.579 -0.3055  0.3798  0.2475
23666SOL    HW175845   9.691   7.348   9.648 -0.6883 -0.7036  0.0945
23666SOL    HW275846   9.789   7.424   9.562 -0.7877  0.7682  1.2425
23667SOL     OW75847   9.222   8.067   0.174  0.4843 -0.3472 -0.0336
23667SOL    HW175848   9.294   8.006   0.185  0.6702 -0.3190 -0.9991
23667SOL    HW275849   9.264   8.153   0.172  0.3031 -0.2407  0.5063
23668SOL     OW75850   7.040   2.656   9.575 -0.0615 -0.3079 -0.3105
23668SOL    HW175851   6.966   2.671   9.634 -0.4888  1.4586 -1.2432
23668SOL    HW275852   7.098   2.598   9.624 -1.2321 -0.3061  1.1355
23669SOL     OW75853   7.803   1.584   9.577  0.0596  0.1276 -0.3947
23669SOL    HW175854   7.805   1.538   9.494  0.4234 -1.1256  0.2760
23669SOL    HW275855   7.710   1.597   9.595 -0.0199  0.3323 -0.9634
23670SOL     OW75856   9.589   9.853   0.892 -0.0205 -0.8930 -0.1333
23670SOL    HW175857   9.612   9.806   0.812  0.1755 -0.4836 -0.3230
23670SOL    HW275858   9.662   9.914   0.905 -0.2539 -0.6685  0.1273
23671SOL     OW75859   0.631   0.909   0.786 -0.4198 -0.2071 -0.1925
23671SOL    HW175860   0.683   0.863   0.851 -1.0398 -0.5791  0.0393
23671SOL    HW275861   0.571   0.843   0.751 -0.3742  0.0852 -0.8526
23672SOL     OW75862   7.499   1.709   0.630  0.1077  0.4167  0.2019
23672SOL    HW175863   7.551   1.674   0.703  0.0422  0.5002  0.2892
23672SOL    HW275864   7.512   1.804   0.635 -0.8052  0.5220  0.8062
23673SOL     OW75865   9.643   3.520   5.849  0.8881  0.1397  0.1958
23673SOL    HW175866   9.737   3.529   5.868  0.7232  1.9409  0.3759
23673SOL    HW275867   9.609   3.609   5.858 -0.3985 -0.0088 -2.3454
23674SOL     OW75868   7.747   9.702   7.634 -0.3295  0.7553  0.4362
23674SOL    HW175869   7.777   9.646   7.705  0.3396  0.3714 -0.1400
23674SOL    HW275870   7.747   9.790   7.671 -0.2456  0.5249  0.9898
23675SOL     OW75871   8.416   8.332   9.381 -0.0621  0.4241 -0.0611
23675SOL    HW175872   8.341   8.331   9.322  0.0394 -0.0074 -0.1856
23675SOL    HW275873   8.378   8.347   9.467 -0.3895 -0.6558  0.0002
23676SOL     OW75874   5.989   1.355   1.347 -0.0269  0.1959  0.0340
23676SOL    HW175875   6.035   1.414   1.407  1.8417 -0.5992 -0.5525
23676SOL    HW275876   5.990   1.270   1.392  1.7574 -0.5042 -1.2202
23677SOL     OW75877   9.293   1.328   0.367  0.7782  0.1984  0.1057
23677SOL    HW175878   9.222   1.299   0.425  0.4298  2.0578  0.6742
23677SOL    HW275879   9.345   1.249   0.351 -0.6347 -0.9162  0.7884
23678SOL     OW75880   0.963   8.859   8.751  0.3214  0.0153  0.0648
23678SOL    HW175881   0.998   8.942   8.781 -0.6411  0.5764 -0.3218
23678SOL    HW275882   1.002   8.845   8.665  0.0249  0.3664 -0.1272
23679SOL     OW75883   9.455   9.243   9.815 -0.2558 -0.2424 -0.0934
23679SOL    HW175884   9.522   9.226   9.882  1.0097 -0.3937 -1.3453
23679SOL    HW275885   9.434   9.336   9.826 -0.3697 -0.3605  0.7630
23680SOL     OW75886   6.101   1.060   1.239  0.1984 -0.0011  0.2235
23680SOL    HW175887   6.107   1.138   1.294 -1.4200  0.1633  0.2147
23680SOL    HW275888   6.069   0.992   1.298 -2.0823  0.3076 -0.5755
23681SOL     OW75889   1.594   8.983   0.278 -0.0328 -0.8201  0.3443
23681SOL    HW175890   1.506   9.019   0.266 -0.7388 -2.6558 -0.4717
23681SOL    HW275891   1.596   8.953   0.369 -0.2228 -0.6829  0.3927
23682SOL     OW75892   1.949   1.635   0.156  0.0421  0.3673 -0.0198
23682SOL    HW175893   1.929   1.668   0.244 -0.8543  0.2574 -0.1781
23682SOL    HW275894   2.021   1.574   0.169 -1.1284 -0.8835  0.8751
23683SOL     OW75895   8.360   0.682   0.163  0.3401 -0.4748  1.0566
23683SOL    HW175896   8.428   0.633   0.118 -1.0439 -1.1573 -0.3916
23683SOL    HW275897   8.308   0.721   0.093  0.1468  1.3434  2.1453
23684SOL     OW75898   0.034   2.313   8.897 -0.4370  0.5895 -0.6943
23684SOL    HW175899  -0.020   2.343   8.824 -2.3771  0.6148  0.6574
23684SOL    HW275900  -0.020   2.247   8.941  0.3054  1.1252  1.1339
23685SOL     OW75901   7.458   2.740   8.471 -0.0793 -0.7969 -0.1507
23685SOL    HW175902   7.445   2.645   8.473 -0.4275 -0.7823 -1.4353
23685SOL    HW275903   7.541   2.752   8.426  0.4298 -0.5100  0.8191
23686SOL     OW75904   9.171   2.332   8.783  0.1420  0.5775  0.4467
23686SOL    HW175905   9.236   2.314   8.715 -0.4129  1.7751 -0.4426
23686SOL    HW275906   9.091   2.351   8.735 -1.0202 -1.2879  1.5282
23687SOL     OW75907   0.413   8.456   0.114 -0.1268 -0.4514  0.1300
23687SOL    HW175908   0.367   8.442   0.197  0.4245  0.2258  0.5602
23687SOL    HW275909   0.476   8.384   0.109 -0.7808 -1.0138 -0.1492
23688SOL     OW75910   0.045   9.619   0.430  0.5505 -1.1220  0.2528
23688SOL    HW175911   0.016   9.707   0.407  1.1945  0.0669  3.4809
23688SOL    HW275912  -0.037   9.571   0.447  0.1720 -1.4331 -2.0494
23689SOL     OW75913   9.003   2.821   8.489 -0.7884 -0.0610 -1.0637
23689SOL    HW175914   9.016   2.730   8.461  1.3314 -0.4568  0.8500
23689SOL    HW275915   9.090   2.861   8.478 -1.6423  1.7246 -1.6820
23690SOL     OW75916   9.078   0.630   7.974 -0.0790 -0.2113 -0.5485
23690SOL    HW175917   9.169   0.602   7.975 -0.7907 -2.6839 -0.0560
23690SOL    HW275918   9.033   0.568   8.030 -1.9465  1.5151 -0.0378
23691SOL     OW75919   9.643   1.652   8.937  0.0467 -0.2642 -0.1871
23691SOL    HW175920   9.581   1.580   8.946  1.8546 -2.1895 -1.8422
23691SOL    HW275921   9.592   1.731   8.952 -2.2741 -1.8387  0.6669
23692SOL     OW75922   7.546   0.935   0.518 -0.3760 -0.0245 -0.3082
23692SOL    HW175923   7.550   0.988   0.439  1.0814 -0.5798 -0.6279
23692SOL    HW275924   7.542   0.845   0.487 -0.8513 -0.2039  0.2519
23693SOL     OW75925   1.079   0.504   3.331  0.2983  0.0500  0.3547
23693SOL    HW175926   1.003   0.560   3.314  0.0108 -0.4508 -0.0775
23693SOL    HW275927   1.147   0.537   3.273  0.6247  0.9081  1.2120
23694SOL     OW75928   8.614   1.261   0.752  0.3744  0.5309 -0.1144
23694SOL    HW175929   8.587   1.303   0.834  0.5264 -0.7428  0.6174
23694SOL    HW275930   8.690   1.311   0.723  0.1603  1.1574  0.3748
23695SOL     OW75931   5.697   2.876   9.394  0.0220 -0.7819  0.2617
23695SOL    HW175932   5.616   2.825   9.408 -1.4375  1.0987 -0.7977
23695SOL    HW275933   5.700   2.937   9.467  0.9857 -1.4357  0.7718
23696SOL     OW75934   5.719   1.950   0.464  0.0961  0.0767  0.2179
23696SOL    HW175935   5.722   1.862   0.501  0.7263  0.0278  0.0587
23696SOL    HW275936   5.639   1.951   0.411  2.2637 -1.9519 -3.5576
23697SOL     OW75937   6.684   1.225   0.760 -0.5418 -0.6550 -0.7537
23697SOL    HW175938   6.663   1.185   0.845 -1.1471 -0.1804 -0.6775
23697SOL    HW275939   6.771   1.191   0.739 -0.1813 -0.3954  0.2817
23698SOL     OW75940   7.701   0.245   7.045  0.2265 -0.4969 -0.4483
23698SOL    HW175941   7.794   0.260   7.028  0.3133 -1.7157 -1.1755
23698SOL    HW275942   7.660   0.250   6.959 -0.7584  2.2076  0.0955
23699SOL     OW75943   9.344   8.559   0.097 -0.0583  0.3030 -0.1964
23699SOL    HW175944   9.255   8.589   0.113 -0.2601 -1.1583  1.7953
23699SOL    HW275945   9.391   8.575   0.178  1.5454  1.0856 -1.2264
23700SOL     OW75946   0.883   8.653   0.708 -0.5483 -0.1799 -0.1161
23700SOL    HW175947   0.911   8.657   0.799  1.1051 -2.5857 -0.4361
23700SOL    HW275948   0.956   8.613   0.662 -0.8158  2.1242 -2.8005
23701SOL     OW75949   8.425   2.298   9.041 -0.2401 -0.3111  0.1815
23701SOL    HW175950   8.433   2.247   9.121 -0.3524  0.7219  0.8771
23701SOL    HW275951   8.456   2.240   8.972  0.6516 -0.9291  1.0821
23702SOL     OW75952   9.253   7.604   0.695  0.4635 -0.3585 -0.0538
23702SOL    HW175953   9.225   7.516   0.671  0.0006 -0.5042  0.9558
23702SOL    HW275954   9.218   7.617   0.783  0.5625  0.8184 -0.1676
23703SOL     OW75955   7.110   2.940   3.115  0.1657 -0.3373 -0.8424
23703SOL    HW175956   7.107   2.868   3.051 -0.3167 -1.4775  0.4292
23703SOL    HW275957   7.192   2.926   3.162 -0.1112 -0.2684 -0.3406
23704SOL     OW75958   8.127   0.223   9.502  0.2113 -0.4664 -0.2333
23704SOL    HW175959   8.201   0.164   9.518  0.7262  0.6374  1.8664
23704SOL    HW275960   8.114   0.268   9.586 -1.2281  1.1920 -1.2801
23705SOL     OW75961   1.748   0.031   8.867  0.1932  0.8269  0.1393
23705SOL    HW175962   1.782  -0.058   8.863  1.0775  0.7585  4.2264
23705SOL    HW275963   1.653   0.021   8.855 -0.1167 -1.2036  3.1501
23706SOL     OW75964   7.767   1.823   0.434 -0.1538  0.5346  0.3770
23706SOL    HW175965   7.766   1.918   0.421 -0.1809  0.2214 -2.4016
23706SOL    HW275966   7.860   1.801   0.444  0.6041  0.3374 -4.7555
23707SOL     OW75967   6.518   3.444   9.775 -0.2167  0.1352 -0.6092
23707SOL    HW175968   6.504   3.355   9.741 -1.8332  0.1314 -0.0288
23707SOL    HW275969   6.541   3.431   9.867 -0.2481  0.3172 -0.5759
23708SOL     OW75970   8.337   1.895   0.633 -0.3442  0.3424  0.0620
23708SOL    HW175971   8.262   1.928   0.682 -0.8155  0.3577 -0.6534
23708SOL    HW275972   8.326   1.800   0.634 -0.8849  0.3843 -0.8173
23709SOL     OW75973   7.060   3.836   2.960  0.3992 -0.0831  0.0419
23709SOL    HW175974   6.994   3.770   2.940  0.8706 -0.3406 -0.7112
23709SOL    HW275975   7.014   3.920   2.952 -0.1718 -0.3003  0.8786
23710SOL     OW75976   7.159   4.014   1.696  0.2213 -0.1994  0.5649
23710SOL    HW175977   7.141   4.028   1.789  1.7048 -1.9081  1.1544
23710SOL    HW275978   7.236   3.958   1.694 -0.2446 -0.8642 -1.6976
23711SOL     OW75979   7.782   1.238   1.122 -0.4858 -0.0603 -0.0436
23711SOL    HW175980   7.784   1.207   1.031 -1.4516 -0.3081  0.0141
23711SOL    HW275981   7.855   1.192   1.164  1.2231  1.4880 -1.1193
23712SOL     OW75982   7.094   2.989   1.250 -0.0135 -0.4946 -0.4244
23712SOL    HW175983   7.095   2.910   1.305  0.4070  0.2440  0.6584
23712SOL    HW275984   7.184   3.022   1.255 -0.1025 -0.1371 -1.1658
23713SOL     OW75985   9.328   2.351   0.840 -0.2048  0.8086  0.1772
23713SOL    HW175986   9.317   2.259   0.818 -1.2821  1.4351 -2.1581
23713SOL    HW275987   9.396   2.351   0.908  0.5053 -1.6129 -0.4225
23714SOL     OW75988   7.949   2.821   9.104 -0.4535  0.7985 -0.3050
23714SOL    HW175989   8.042   2.841   9.113 -0.1465 -0.2158 -1.0047
23714SOL    HW275990   7.924   2.861   9.021  0.0058 -1.0171 -1.3854
23715SOL     OW75991   8.125   6.631   8.815  0.1688 -0.6095 -0.2642
23715SOL    HW175992   8.117   6.679   8.898 -2.6633 -0.2946 -0.6336
23715SOL    HW275993   8.129   6.699   8.748  0.3952 -0.8941 -0.5449
23716SOL     OW75994   8.358   2.177   1.644 -0.1511 -1.3752  0.2475
23716SOL    HW175995   8.313   2.126   1.711  1.2434 -1.7460  0.9329
23716SOL    HW275996   8.310   2.260   1.641 -0.6854 -1.6346  1.1706
23717SOL     OW75997   8.166   2.135   1.429  0.4732  0.0547 -0.3609
23717SOL    HW175998   8.158   2.045   1.399 -0.0291  0.0929 -0.3452
23717SOL    HW275999   8.230   2.132   1.500 -0.2165 -0.4322  0.2500
23718SOL     OW76000   7.868   3.180   9.387  0.1351  0.1633 -0.3855
23718SOL    HW176001   7.919   3.199   9.309  0.2325  0.7481 -0.1861
23718SOL    HW276002   7.812   3.107   9.362  0.9385 -0.3666 -0.6644
23719SOL     OW76003   7.932   3.055   0.659 -0.6470 -0.4352  0.3812
23719SOL    HW176004   7.932   2.969   0.616 -0.4430  0.2122 -0.9293
23719SOL    HW276005   7.950   3.034   0.751 -0.5344 -1.7959  0.0803
23720SOL     OW76006   9.366   5.284   2.158  0.0769 -0.0146 -0.6007
23720SOL    HW176007   9.351   5.313   2.068  0.8890 -0.9872 -1.0757
23720SOL    HW276008   9.431   5.345   2.192 -1.9401  1.8456  0.1849
23721SOL     OW76009   6.919   3.763   1.221  0.9444  0.2989  0.0848
23721SOL    HW176010   6.966   3.718   1.150  0.5237 -2.7615  1.5813
23721SOL    HW276011   6.826   3.749   1.200  0.7538  1.8406 -0.1843
23722SOL     OW76012   6.673   3.109   2.283 -0.3890 -0.7706  0.1239
23722SOL    HW176013   6.732   3.175   2.319  0.0309 -0.7037 -0.6738
23722SOL    HW276014   6.648   3.056   2.359  2.5184 -2.2693  0.1819
23723SOL     OW76015   6.947   2.060   9.800 -0.3597 -0.0133 -0.1931
23723SOL    HW176016   6.991   2.044   9.883  1.0659  0.5144 -0.8204
23723SOL    HW276017   7.009   2.032   9.733 -1.1752  0.2698 -1.1009
23724SOL     OW76018   8.607   0.997   2.380 -0.0797  0.5277  0.6240
23724SOL    HW176019   8.629   1.087   2.360 -2.8227  1.4078  1.1600
23724SOL    HW276020   8.596   0.955   2.294  0.3938  0.9031  0.3744
23725SOL     OW76021   0.983   5.298   1.900  0.4443  0.1750  0.4536
23725SOL    HW176022   1.035   5.369   1.863 -0.2120  0.7468  0.5895
23725SOL    HW276023   0.903   5.297   1.846 -0.0021  0.2360  1.1038
23726SOL     OW76024   9.110   1.158   1.222  0.2650 -0.4169  0.5369
23726SOL    HW176025   9.148   1.104   1.292  1.6273  1.9797  1.7970
23726SOL    HW276026   9.184   1.207   1.187 -0.6067 -0.6858 -1.8453
23727SOL     OW76027   7.909   2.384   2.883  0.3136 -0.1939 -0.6133
23727SOL    HW176028   7.845   2.440   2.927  1.0156 -0.4045  0.7227
23727SOL    HW276029   7.905   2.411   2.791  0.1790  1.6039 -0.1123
23728SOL     OW76030   6.186   3.813   0.964  0.3447 -0.4535 -0.2985
23728SOL    HW176031   6.181   3.848   1.053  0.3542 -0.1545 -0.4142
23728SOL    HW276032   6.153   3.723   0.972  1.2389 -0.7483  0.1709
23729SOL     OW76033   1.412   5.449   0.406  0.3930 -0.0086 -0.0098
23729SOL    HW176034   1.368   5.423   0.487 -0.8339 -0.5776 -0.8327
23729SOL    HW276035   1.418   5.545   0.412  1.5524 -0.1200  1.3365
23730SOL     OW76036   0.922   1.000   8.600 -0.1597 -0.3345  0.1799
23730SOL    HW176037   0.906   1.037   8.513  0.6742 -0.1407  0.0997
23730SOL    HW276038   0.939   1.075   8.656  2.4804 -0.5705 -0.1807
23731SOL     OW76039   9.835   0.621   2.432  0.3689  0.5647 -0.0804
23731SOL    HW176040   9.923   0.658   2.422  0.4203  0.3693 -0.3809
23731SOL    HW276041   9.851   0.535   2.471  0.1954  1.1734  1.3820
23732SOL     OW76042   7.807   3.920   0.836 -0.3578  0.2925  0.2522
23732SOL    HW176043   7.748   3.909   0.911  0.6613  1.4811  1.2837
23732SOL    HW276044   7.895   3.905   0.871  0.1026  0.2632 -0.8511
23733SOL     OW76045   9.135   4.115   8.709  0.2581  0.3567 -0.2609
23733SOL    HW176046   9.165   4.148   8.625  0.6998 -0.3103 -0.3699
23733SOL    HW276047   9.101   4.192   8.755  0.4902  0.8082 -0.8429
23734SOL     OW76048   7.568   4.941   8.955 -0.0770  0.5118  0.3365
23734SOL    HW176049   7.584   4.964   8.863 -0.6541 -1.2739 -0.2539
23734SOL    HW276050   7.475   4.957   8.968 -0.3775 -0.8784  0.0622
23735SOL     OW76051   8.916   1.529   0.999 -0.0083  0.2469 -0.0585
23735SOL    HW176052   8.953   1.465   1.059 -1.2757 -0.6200 -0.1418
23735SOL    HW276053   8.850   1.479   0.950 -0.3865  1.4086 -0.7610
23736SOL     OW76054   7.702   2.650   8.392  0.0406 -0.7452 -0.6599
23736SOL    HW176055   7.786   2.683   8.358 -0.2228 -1.1549 -1.7368
23736SOL    HW276056   7.661   2.607   8.317 -0.8931 -1.0348  0.0040
23737SOL     OW76057   0.442   2.026   0.920  0.4446  0.1338  0.2230
23737SOL    HW176058   0.362   2.063   0.957  0.5944 -1.1845  1.9642
23737SOL    HW276059   0.505   2.098   0.923 -0.2958  0.8002  0.0487
23738SOL     OW76060   9.721   3.376   9.393  0.0229  0.4460  0.1345
23738SOL    HW176061   9.640   3.362   9.344  0.7139  0.4350 -1.0440
23738SOL    HW276062   9.715   3.467   9.423 -0.4457  0.4255  0.1200
23739SOL     OW76063   9.731   9.810   1.207 -0.4727 -0.3990  0.5965
23739SOL    HW176064   9.743   9.894   1.251 -1.5000 -0.2153  0.5507
23739SOL    HW276065   9.664   9.828   1.140 -0.9415 -1.3322  0.8068
23740SOL     OW76066   8.493   2.696   0.979 -0.0229 -0.1845  0.1883
23740SOL    HW176067   8.454   2.754   1.044 -2.3992 -0.7219 -0.6673
23740SOL    HW276068   8.463   2.609   1.004 -0.0594 -0.5269 -1.0021
23741SOL     OW76069   0.096   4.232   1.427  0.0980  0.1334 -0.0744
23741SOL    HW176070   0.098   4.281   1.345  0.1412 -1.2780 -0.9376
23741SOL    HW276071   0.022   4.172   1.418  0.1611 -0.1132  0.8907
23742SOL     OW76072   9.145   4.725   0.463  0.7356  0.1390  0.2765
23742SOL    HW176073   9.212   4.660   0.485  0.2655 -1.0696 -1.6675
23742SOL    HW276074   9.070   4.702   0.519  0.6093 -0.9631 -0.3205
23743SOL     OW76075   8.541   1.116   7.446 -0.3658  0.4528  0.3371
23743SOL    HW176076   8.619   1.098   7.392  1.7313  2.2541  2.5355
23743SOL    HW276077   8.517   1.206   7.425 -0.9990  0.3708  0.6853
23744SOL     OW76078   8.416   1.906   0.166 -0.0226  0.2472 -0.4333
23744SOL    HW176079   8.502   1.864   0.177 -0.7197 -1.2375 -0.3286
23744SOL    HW276080   8.354   1.842   0.200 -1.0591  2.1782  1.5273
23745SOL     OW76081   7.971   2.765   2.270 -0.2422  0.1661  1.0089
23745SOL    HW176082   7.982   2.837   2.332  0.1491  1.0471 -0.0341
23745SOL    HW276083   8.058   2.727   2.261 -0.4744 -0.5375  1.6561
23746SOL     OW76084   8.714   2.322   0.703 -0.4249 -1.0786  0.3374
23746SOL    HW176085   8.705   2.337   0.609  0.7982 -1.9950  0.0440
23746SOL    HW276086   8.808   2.306   0.716 -0.2780  0.6761  1.9760
23747SOL     OW76087   1.480   2.566   0.368 -0.7022 -0.1682  0.1791
23747SOL    HW176088   1.421   2.587   0.441  0.4135  0.7287  0.8537
23747SOL    HW276089   1.422   2.535   0.299 -1.8323 -0.6375  1.2963
23748SOL     OW76090   8.952   3.581   1.067  0.0009  0.1825  0.3783
23748SOL    HW176091   8.937   3.656   1.010  3.1125  0.5864 -0.1057
23748SOL    HW276092   8.946   3.505   1.008 -0.7339  0.2400  0.3698
23749SOL     OW76093   6.852   1.454   1.282  0.8759  0.2425  0.4318
23749SOL    HW176094   6.825   1.540   1.250  1.8717  0.3020 -0.3214
23749SOL    HW276095   6.832   1.394   1.210 -1.4185 -0.4808  1.6064
23750SOL     OW76096   8.276   3.380   9.839  0.5426 -0.2811  0.3606
23750SOL    HW176097   8.323   3.456   9.804 -0.0993  0.2467  0.6231
23750SOL    HW276098   8.280   3.315   9.769 -0.8807  0.8240 -0.8190
23751SOL     OW76099   4.948   4.692   2.059  0.6835  0.6276  0.6385
23751SOL    HW176100   4.959   4.600   2.035 -0.3627  0.6266  0.1065
23751SOL    HW276101   4.870   4.721   2.011  1.2458  1.9150  0.4454
23752SOL     OW76102   8.315   3.121   1.481  0.5205  0.3537 -0.6431
23752SOL    HW176103   8.341   3.079   1.399  1.6095  0.4240 -0.3499
23752SOL    HW276104   8.396   3.161   1.514 -0.1523  1.3076 -0.1090
23753SOL     OW76105   8.686   2.088   3.172 -0.5891  0.2501  0.1147
23753SOL    HW176106   8.696   2.166   3.227 -3.6552  0.5565  0.4592
23753SOL    HW276107   8.673   2.017   3.235  1.2232 -0.3929 -0.2112
23754SOL     OW76108   7.067   2.935   0.177  0.3603  0.4604 -0.0392
23754SOL    HW176109   6.993   2.973   0.128  0.1171 -0.8165 -0.7027
23754SOL    HW276110   7.103   3.009   0.226 -0.8424  1.2918 -0.3450
23755SOL     OW76111   9.343   3.049   3.032  0.3111 -0.2837 -0.1281
23755SOL    HW176112   9.306   3.136   3.050 -0.0995 -0.2754 -0.9535
23755SOL    HW276113   9.299   2.991   3.093 -1.1600 -0.2852 -1.1339
23756SOL     OW76114   6.358   4.147   0.931 -0.8025 -0.5041 -0.2124
23756SOL    HW176115   6.447   4.112   0.940 -1.0346 -1.0258  0.0569
23756SOL    HW276116   6.332   4.122   0.842 -0.8843 -0.8240 -0.0992
23757SOL     OW76117   8.261   0.583   9.073 -0.5531 -0.1837  0.0246
23757SOL    HW176118   8.319   0.572   8.997 -0.2007 -0.5071  0.3414
23757SOL    HW276119   8.285   0.512   9.132  0.4559  1.1547  1.2665
23758SOL     OW76120   9.626   2.764   0.652  0.1982 -0.5620 -0.8316
23758SOL    HW176121   9.534   2.784   0.669  0.3507  0.2374 -0.8814
23758SOL    HW276122   9.668   2.767   0.738  0.5049  0.9252 -1.0144
23759SOL     OW76123   8.906   3.997   9.854 -0.6530 -0.5163 -0.0313
23759SOL    HW176124   8.956   3.923   9.888 -0.3862  0.0119  0.7728
23759SOL    HW276125   8.814   3.971   9.864 -0.5576 -0.9926 -0.3672
23760SOL     OW76126   9.011   2.344   0.723  0.6494  0.3289 -0.2745
23760SOL    HW176127   9.018   2.273   0.786  1.2675  0.4203 -0.2350
23760SOL    HW276128   9.093   2.392   0.731  0.2618  1.0165 -0.3399
23761SOL     OW76129   6.901   4.602   3.240  0.1048 -0.2397 -0.3468
23761SOL    HW176130   6.934   4.658   3.169 -2.1485  0.6572 -0.7834
23761SOL    HW276131   6.919   4.513   3.211  2.1638  0.1765 -0.4773
23762SOL     OW76132   7.108   4.546   1.956 -0.6746  0.3223 -0.1009
23762SOL    HW176133   7.014   4.535   1.969 -0.8018  1.0447 -0.3336
23762SOL    HW276134   7.124   4.638   1.977  0.4342 -0.3886  2.5737
23763SOL     OW76135   7.137   2.077   1.192  0.6077 -0.4045  0.0408
23763SOL    HW176136   7.159   1.984   1.202  2.2403  0.0015  0.5280
23763SOL    HW276137   7.197   2.123   1.251 -0.8049  0.9214  0.5304
23764SOL     OW76138   2.240   2.452   4.078 -0.2170 -0.3000  1.1571
23764SOL    HW176139   2.214   2.383   4.139 -0.0945 -0.8639  0.5828
23764SOL    HW276140   2.160   2.501   4.062 -0.5621 -0.9928  0.7040
23765SOL     OW76141   8.407   2.310   9.459  0.0860 -0.1589  0.0522
23765SOL    HW176142   8.373   2.396   9.436 -0.3575 -0.2362  0.4181
23765SOL    HW276143   8.425   2.316   9.553  0.0668 -0.4622  0.0745
23766SOL     OW76144   8.963   2.383   1.531  0.2839  0.2644  0.3614
23766SOL    HW176145   8.915   2.329   1.594 -0.4697  1.0407  0.4777
23766SOL    HW276146   8.999   2.455   1.584 -1.9934  2.0316 -0.3038
23767SOL     OW76147   0.671   4.151   1.415  0.2689  0.1982  0.1786
23767SOL    HW176148   0.607   4.086   1.385  0.2325 -0.5043  1.6588
23767SOL    HW276149   0.749   4.134   1.363 -0.0573 -0.3924 -0.1249
23768SOL     OW76150   5.987   4.097   1.381 -0.0816 -0.1098  0.0013
23768SOL    HW176151   5.964   4.123   1.471 -1.3290 -2.1105  0.3236
23768SOL    HW276152   5.912   4.127   1.329  1.1304  2.0430 -0.6359
23769SOL     OW76153   8.967   2.164   0.020  0.1938 -0.2705 -0.6517
23769SOL    HW176154   8.972   2.070   0.037  0.5782  0.1015  1.6936
23769SOL    HW276155   8.949   2.203   0.106  0.1864  1.8141 -1.5330
23770SOL     OW76156   8.226   1.222   9.671 -0.1461 -0.4029  0.9726
23770SOL    HW176157   8.198   1.171   9.747 -0.7311 -1.7785 -0.1247
23770SOL    HW276158   8.205   1.167   9.596 -2.3758  2.1317 -0.4133
23771SOL     OW76159   9.180   2.551   0.268 -0.2361  0.5854  0.5812
23771SOL    HW176160   9.243   2.581   0.334 -0.1755  1.2019  0.2519
23771SOL    HW276161   9.148   2.632   0.228  0.7319  0.1998 -1.0814
23772SOL     OW76162   8.598   3.157   1.989  0.2245 -0.1811  0.5403
23772SOL    HW176163   8.680   3.167   2.038  1.4919  1.1449 -1.6873
23772SOL    HW276164   8.626   3.139   1.899 -1.9586 -0.2679 -0.1666
23773SOL     OW76165   8.673   3.236   1.011  0.1176 -0.4917 -0.0636
23773SOL    HW176166   8.681   3.316   1.064 -0.9893 -0.6743  0.4040
23773SOL    HW276167   8.759   3.195   1.017  0.9853  1.0691 -0.9970
23774SOL     OW76168   6.748   2.988   9.478 -0.1119  0.1388  0.8061
23774SOL    HW176169   6.825   3.044   9.481  0.2412 -0.2730 -0.2884
23774SOL    HW276170   6.714   2.990   9.567  1.6393 -0.3517  1.5193
23775SOL     OW76171   9.625   7.613   9.811  0.0549 -0.4404 -0.2811
23775SOL    HW176172   9.531   7.600   9.816 -0.4594  2.1374 -1.3973
23775SOL    HW276173   9.639   7.700   9.849  1.9223 -0.5444 -0.6097
23776SOL     OW76174   8.267   2.958   0.792  0.5857 -0.1714  0.4331
23776SOL    HW176175   8.176   2.973   0.821  0.3040  0.9122 -0.9153
23776SOL    HW276176   8.308   2.912   0.866 -0.6722  0.5706  1.6551
23777SOL     OW76177   6.648   4.299   0.383 -0.2037 -0.3553 -0.6233
23777SOL    HW176178   6.559   4.333   0.375 -0.2880 -0.6180 -0.8472
23777SOL    HW276179   6.637   4.204   0.377 -0.0242 -0.4595  0.4121
23778SOL     OW76180   0.029   1.976   0.853  0.7528 -0.0549 -0.0823
23778SOL    HW176181   0.018   1.882   0.844  0.4136  0.0081 -0.3423
23778SOL    HW276182   0.095   2.000   0.788  1.6090 -0.2629  0.6917
23779SOL     OW76183   7.083   2.182   1.674 -0.0836  0.0211  0.3669
23779SOL    HW176184   7.170   2.186   1.715  1.3237 -0.9099 -2.2829
23779SOL    HW276185   7.084   2.100   1.625 -1.3408  1.3283 -2.0093
23780SOL     OW76186   9.379   8.994   2.625 -0.7656 -0.4120 -0.2859
23780SOL    HW176187   9.455   9.029   2.578 -0.2918 -0.1096  0.6837
23780SOL    HW276188   9.404   8.905   2.647 -1.1604 -0.6972 -0.9700
23781SOL     OW76189   8.599   1.933   0.544  0.0601 -0.0796 -0.8000
23781SOL    HW176190   8.549   1.984   0.481 -0.5248  1.8210  1.0817
23781SOL    HW276191   8.533   1.898   0.604  0.7973  1.7133  1.1826
23782SOL     OW76192   9.544   2.907   0.399  0.1739  0.2605  0.0842
23782SOL    HW176193   9.555   3.000   0.380  1.8856 -0.2256 -1.6988
23782SOL    HW276194   9.618   2.886   0.456 -0.3501  0.0270  0.6890
23783SOL     OW76195   9.094   1.242   0.523  0.3925  0.2856  0.4532
23783SOL    HW176196   9.040   1.235   0.602 -1.6722  0.4635 -0.8668
23783SOL    HW276197   9.077   1.160   0.476  1.5696  0.2022  0.1537
23784SOL     OW76198   8.223   0.692   0.507  0.3050  0.2175 -0.1518
23784SOL    HW176199   8.279   0.695   0.585 -0.3871 -3.2439  0.6646
23784SOL    HW276200   8.139   0.728   0.537  0.1624 -0.7318  0.6689
23785SOL     OW76201   8.894   3.255   1.548  0.4907  0.3462  0.1063
23785SOL    HW176202   8.859   3.212   1.469  2.6589  1.4205 -1.5558
23785SOL    HW276203   8.922   3.183   1.604  0.6912 -0.4664 -0.9911
23786SOL     OW76204   9.285   5.402   3.030 -0.5282 -0.4197 -0.3143
23786SOL    HW176205   9.353   5.419   2.964  0.1392 -0.0418  0.4571
23786SOL    HW276206   9.208   5.378   2.979 -0.1688  0.3746 -1.2721
23787SOL     OW76207   8.029   2.413   9.502  0.6177 -0.1845  0.3775
23787SOL    HW176208   8.095   2.459   9.451  1.1401 -0.4672  0.7825
23787SOL    HW276209   8.066   2.409   9.591 -0.9092  1.6386  1.1663
23788SOL     OW76210   7.754   1.963   0.987 -0.1222  0.8953  0.6650
23788SOL    HW176211   7.682   1.942   1.047  0.3843  1.6516  1.5714
23788SOL    HW276212   7.713   2.014   0.917 -1.0180 -1.3848 -0.5517
23789SOL     OW76213   9.189   3.295   0.223 -0.1824 -0.4583 -0.1924
23789SOL    HW176214   9.151   3.262   0.142  1.0267 -0.1332 -0.9195
23789SOL    HW276215   9.142   3.250   0.293 -0.7042 -1.3242 -1.0933
23790SOL     OW76216   9.503   3.575   1.134 -0.2317 -0.3543  0.0048
23790SOL    HW176217   9.589   3.606   1.160 -0.4880 -0.3625  0.8910
23790SOL    HW276218   9.481   3.507   1.198 -1.3453  0.3928  0.4523
23791SOL     OW76219   7.139   1.564   0.272  0.4164 -0.2296 -0.7905
23791SOL    HW176220   7.059   1.612   0.293  0.1864 -0.1197 -1.8851
23791SOL    HW276221   7.143   1.495   0.339  1.1609  1.7149  1.2957
23792SOL     OW76222   0.255   3.321   1.402  0.3720  0.7034 -0.0973
23792SOL    HW176223   0.304   3.249   1.364  1.6680  1.4011  0.1725
23792SOL    HW276224   0.173   3.282   1.432  0.3894 -0.3383 -1.3161
23793SOL     OW76225   8.353   5.161   0.694  0.1883  0.1523  0.0812
23793SOL    HW176226   8.342   5.256   0.690 -0.6712  0.1606  1.6351
23793SOL    HW276227   8.275   5.126   0.651  1.0500  0.1170 -1.5100
23794SOL     OW76228   8.028   4.042   0.574 -0.1286  0.0270  0.0622
23794SOL    HW176229   8.059   4.043   0.483 -2.8931  0.5352 -0.9870
23794SOL    HW276230   8.060   4.124   0.611  0.7670 -0.0374 -0.5185
23795SOL     OW76231   7.740   1.172   0.539 -0.0993 -0.1086 -0.0656
23795SOL    HW176232   7.744   1.244   0.477  2.7270  1.1127  1.3314
23795SOL    HW276233   7.817   1.118   0.519 -0.9926 -1.5687  0.2633
23796SOL     OW76234   0.377   1.629   0.232 -0.0158  0.4499 -0.1699
23796SOL    HW176235   0.318   1.601   0.302  0.4988 -1.2693 -0.3759
23796SOL    HW276236   0.358   1.722   0.220 -1.4277  0.3375  0.9621
23797SOL     OW76237   9.117   4.402   1.829  0.7207  0.8761  0.4340
23797SOL    HW176238   9.119   4.473   1.765 -0.7986  0.7305  0.1883
23797SOL    HW276239   9.041   4.349   1.803  1.1016 -0.1399  1.3419
23798SOL     OW76240   9.182   2.731   2.177 -0.1390 -0.5816 -0.3411
23798SOL    HW176241   9.139   2.811   2.147  0.9813 -1.0484 -3.5984
23798SOL    HW276242   9.274   2.755   2.188 -0.1293 -0.9926  0.5474
23799SOL     OW76243   8.651   1.176   1.692  0.3813  0.3570 -0.5061
23799SOL    HW176244   8.715   1.121   1.737  0.6798  0.1795 -1.1352
23799SOL    HW276245   8.573   1.172   1.748  0.4793 -0.5034 -0.4127
23800SOL     OW76246   7.097   1.538   0.797 -0.4029 -0.2050 -0.3947
23800SOL    HW176247   7.016   1.524   0.846 -0.3277 -0.2710 -0.2866
23800SOL    HW276248   7.116   1.632   0.808 -0.4818 -0.1830 -0.4474
23801SOL     OW76249   7.792   2.343   1.390 -0.1203 -0.4677  0.0427
23801SOL    HW176250   7.710   2.313   1.351 -0.3791 -0.8425  0.8609
23801SOL    HW276251   7.854   2.344   1.317 -0.9826  0.3578 -0.7090
23802SOL     OW76252   6.521   3.844   1.443 -0.0838  0.1848 -0.3075
23802SOL    HW176253   6.562   3.928   1.423  0.1672  0.0845 -0.2117
23802SOL    HW276254   6.471   3.822   1.364  1.2750 -0.4339 -1.0267
23803SOL     OW76255   8.336   1.203   3.243  0.1812 -0.0808 -0.7530
23803SOL    HW176256   8.387   1.229   3.166  1.8124 -1.7758 -0.3059
23803SOL    HW276257   8.363   1.113   3.261 -0.8073 -0.0226  1.2914
23804SOL     OW76258   7.585   2.096   0.791 -0.5960 -0.3068 -0.2704
23804SOL    HW176259   7.547   2.184   0.785  1.5995  0.6673 -0.7957
23804SOL    HW276260   7.571   2.059   0.703  0.2346  0.3093 -0.6757
23805SOL     OW76261   7.327   4.377   0.222 -0.6343 -0.0407 -0.4079
23805SOL    HW176262   7.247   4.398   0.174 -0.3407  2.1977 -0.0385
23805SOL    HW276263   7.395   4.427   0.177  0.4013 -1.2169 -0.1806
23806SOL     OW76264   7.129   2.680   1.337 -0.0455  0.1621  0.0800
23806SOL    HW176265   7.127   2.686   1.242 -1.4511  0.8135  0.1214
23806SOL    HW276266   7.073   2.604   1.358  1.3044 -0.7982  0.3616
23807SOL     OW76267   8.685   3.071   1.723  0.1774  0.3127 -0.4957
23807SOL    HW176268   8.657   2.991   1.678 -0.4020 -0.0179  0.4192
23807SOL    HW276269   8.779   3.059   1.735  0.1770 -0.0120 -0.7899
23808SOL     OW76270   6.357   1.913   1.345  0.3578 -0.7834  0.4105
23808SOL    HW176271   6.274   1.893   1.388 -0.7949  0.4988 -1.1116
23808SOL    HW276272   6.394   1.828   1.323 -1.5054 -1.3934 -0.6014
23809SOL     OW76273   0.477   7.498   8.777  0.7034 -0.3742  0.3314
23809SOL    HW176274   0.552   7.535   8.730  0.3872  0.1230  0.2067
23809SOL    HW276275   0.424   7.575   8.801 -0.4410 -0.8060 -0.7242
23810SOL     OW76276   8.835   2.742   1.845  0.1955 -0.1352  0.3406
23810SOL    HW176277   8.855   2.659   1.888 -1.3028 -1.4916 -1.4038
23810SOL    HW276278   8.827   2.719   1.752 -0.7468  1.8704 -0.1128
23811SOL     OW76279   7.356   2.208   1.295 -0.1893  0.4384 -0.3094
23811SOL    HW176280   7.440   2.163   1.308  1.0241  2.1333 -1.7466
23811SOL    HW276281   7.359   2.283   1.355 -1.5869 -0.5372  1.0615
23812SOL     OW76282   9.052   4.776   1.851 -0.1086  0.2363  0.1366
23812SOL    HW176283   9.056   4.720   1.773 -1.6745  0.6317 -0.2620
23812SOL    HW276284   9.019   4.860   1.818 -0.1877  0.6071  1.1313
23813SOL     OW76285   8.774   1.403   1.627 -0.0794 -0.4270 -0.3440
23813SOL    HW176286   8.719   1.473   1.664  0.2651 -0.7401  0.8271
23813SOL    HW276287   8.716   1.326   1.627  0.2235 -0.6667  0.5300
23814SOL     OW76288   9.473   2.027   1.027 -0.2780  0.8833 -0.4275
23814SOL    HW176289   9.504   1.953   1.078  1.3620  0.8947 -1.3384
23814SOL    HW276290   9.499   2.104   1.077  1.0061  0.8875 -1.0780
23815SOL     OW76291   6.511   4.646   0.959  0.5971  0.7435  0.1347
23815SOL    HW176292   6.593   4.691   0.980  0.8467  0.3676 -0.0218
23815SOL    HW276293   6.507   4.646   0.863  0.0121  1.4673  0.1467
23816SOL     OW76294   5.276   1.454   0.293 -0.2976 -0.1073  0.4243
23816SOL    HW176295   5.202   1.465   0.353 -1.1718  0.1758 -0.6621
23816SOL    HW276296   5.240   1.404   0.220  0.4436  0.4803 -0.3640
23817SOL     OW76297   6.469   2.447   0.228 -0.0751  0.2739 -0.2016
23817SOL    HW176298   6.530   2.485   0.165  0.4670 -1.6898 -0.9429
23817SOL    HW276299   6.383   2.455   0.187 -0.1346  1.6241  0.1432
23818SOL     OW76300   8.638   1.612   3.419  0.0768  0.1598 -0.9721
23818SOL    HW176301   8.632   1.525   3.381  2.9679  0.0404 -1.3483
23818SOL    HW276302   8.653   1.597   3.513  1.2130  0.2209 -1.1383
23819SOL     OW76303   6.988   0.433   2.345  0.2432 -0.1294  0.1703
23819SOL    HW176304   6.979   0.340   2.327  1.2231 -0.4491  1.2148
23819SOL    HW276305   6.899   0.468   2.336  0.1636 -0.7524 -2.2377
23820SOL     OW76306   7.009   4.832   8.228  0.0352  0.1912 -0.3454
23820SOL    HW176307   7.087   4.788   8.196  0.4988  0.9877 -0.3176
23820SOL    HW276308   6.937   4.791   8.180  0.4477 -0.6321 -0.2792
23821SOL     OW76309   7.793   3.192   0.457  0.0343 -0.2989  0.5391
23821SOL    HW176310   7.828   3.143   0.531  0.8896 -0.7002 -0.1082
23821SOL    HW276311   7.717   3.141   0.429  1.0492 -1.4452 -0.2750
23822SOL     OW76312   5.865   4.290   2.933 -0.0227  0.1734  0.0885
23822SOL    HW176313   5.824   4.218   2.884  0.2798  0.0421  0.0295
23822SOL    HW276314   5.859   4.365   2.875 -1.2336  0.4472  0.5321
23823SOL     OW76315   7.425   2.413   1.471  0.0168  0.3303 -0.4694
23823SOL    HW176316   7.432   2.502   1.437  0.3021  0.0598 -1.1553
23823SOL    HW276317   7.487   2.410   1.543  0.6012  0.4637 -0.9563
23824SOL     OW76318   6.007   5.650   1.031  0.3898  0.4970 -0.2919
23824SOL    HW176319   6.043   5.611   0.951 -1.8408 -2.0185 -0.2143
23824SOL    HW276320   6.079   5.701   1.068  4.3228 -4.6562  0.2899
23825SOL     OW76321   9.215   3.278   9.066 -0.4956  0.3997 -0.0316
23825SOL    HW176322   9.190   3.363   9.104  0.9875  0.4636  0.8644
23825SOL    HW276323   9.190   3.214   9.133 -1.1795  0.1559 -0.5077
23826SOL     OW76324   9.178   2.598   0.822  0.6343  0.3351  0.0087
23826SOL    HW176325   9.236   2.522   0.827  0.3298  0.0740 -0.4075
23826SOL    HW276326   9.105   2.575   0.880  0.7165  0.4657  0.1653
23827SOL     OW76327   8.319   2.681   0.635 -0.4550 -0.2032 -0.0275
23827SOL    HW176328   8.249   2.666   0.697 -0.0576 -1.3023  0.1761
23827SOL    HW276329   8.276   2.719   0.558 -0.9682  1.0254  0.8345
23828SOL     OW76330   5.750   3.647   0.939 -0.2675  0.6697  0.1173
23828SOL    HW176331   5.756   3.729   0.890  0.2067  0.7735  0.3430
23828SOL    HW276332   5.707   3.587   0.879  0.1981  0.8319 -0.3946
23829SOL     OW76333   8.996   9.795   0.278 -0.0977  0.0615  0.5549
23829SOL    HW176334   8.943   9.803   0.199 -1.0523  0.7706  1.2466
23829SOL    HW276335   9.086   9.807   0.248 -0.1767 -2.1988 -0.8088
23830SOL     OW76336   6.093   2.047   9.670 -0.0764  0.7248 -0.7390
23830SOL    HW176337   6.058   1.959   9.682 -0.5990  0.9961 -0.2528
23830SOL    HW276338   6.098   2.058   9.575  0.7791 -0.1321 -0.8153
23831SOL     OW76339   7.325   3.799   1.673 -0.3227  0.3557 -0.4854
23831SOL    HW176340   7.378   3.783   1.596 -1.5420  1.1775 -1.5487
23831SOL    HW276341   7.235   3.786   1.643 -0.7505 -1.3029  1.3273
23832SOL     OW76342   8.197   3.293   9.385 -0.4807  0.1699  0.1807
23832SOL    HW176343   8.236   3.241   9.315 -2.1810 -2.5974  1.0924
23832SOL    HW276344   8.250   3.273   9.462 -0.3874  0.8240  0.2883
23833SOL     OW76345   7.666   1.436   1.570  0.0767  0.1346 -0.2345
23833SOL    HW176346   7.642   1.387   1.648 -1.2257  0.6051 -0.3101
23833SOL    HW276347   7.734   1.496   1.599  0.2826 -0.3568  0.3091
23834SOL     OW76348   8.825   2.831   0.994  0.2632  0.0363 -0.3703
23834SOL    HW176349   8.894   2.896   0.986  0.3141 -0.1055 -1.1374
23834SOL    HW276350   8.828   2.803   1.085  1.9985 -0.8390 -0.6667
23835SOL     OW76351   0.512   4.214   3.039 -0.2487  0.4810  0.2319
23835SOL    HW176352   0.531   4.289   2.982 -2.9020 -0.0247 -1.4977
23835SOL    HW276353   0.427   4.233   3.077  0.5283 -0.1890  2.4542
23836SOL     OW76354   9.095   2.779   9.143  0.3533  0.1670 -0.1392
23836SOL    HW176355   9.045   2.778   9.225  0.8690 -0.5712  0.1666
23836SOL    HW276356   9.063   2.703   9.095  0.9681 -0.1292 -0.0756
23837SOL     OW76357   7.554   2.915   1.372  0.2409  0.1107 -0.2278
23837SOL    HW176358   7.488   2.917   1.441  2.1640 -0.0831  1.7026
23837SOL    HW276359   7.536   2.993   1.319  0.2412  1.7197  2.0050
23838SOL     OW76360   8.267   5.124   0.961  0.8137  0.3011 -0.0117
23838SOL    HW176361   8.349   5.139   1.009  1.0363  0.9445 -0.5787
23838SOL    HW276362   8.295   5.081   0.880  0.4137 -1.0394  0.5214
23839SOL     OW76363   9.341   2.775   0.686 -0.0548 -0.3655 -0.2810
23839SOL    HW176364   9.277   2.717   0.728 -0.5504 -0.1567 -0.7481
23839SOL    HW276365   9.306   2.863   0.698  0.3028 -0.2201 -0.2661
23840SOL     OW76366   9.146   1.577   0.187  0.5100 -1.0393 -0.0324
23840SOL    HW176367   9.172   1.511   0.123  0.8867 -3.5176  2.5137
23840SOL    HW276368   9.080   1.534   0.241 -1.0680  1.5449  0.2705
23841SOL     OW76369   8.169   2.953   9.798 -0.4103 -0.0463  0.0599
23841SOL    HW176370   8.216   2.911   9.727 -0.3419  0.5992 -0.2872
23841SOL    HW276371   8.113   3.018   9.756  0.5220  1.1953  0.6326
23842SOL     OW76372   9.076   3.210   1.893  0.5078 -0.4926 -0.1605
23842SOL    HW176373   9.123   3.288   1.923 -1.5764  1.7671 -2.3566
23842SOL    HW276374   9.003   3.201   1.954  1.1206 -1.1895  0.4915
23843SOL     OW76375   7.639   3.686   1.132  0.2548  0.3546  0.3996
23843SOL    HW176376   7.719   3.678   1.185  1.8372 -0.0883 -1.9001
23843SOL    HW276377   7.638   3.778   1.105 -0.3271  0.4859  0.8552
23844SOL     OW76378   7.470   3.149   1.723  0.2863  0.3279 -0.2410
23844SOL    HW176379   7.519   3.232   1.723 -1.8080  1.6585 -0.9393
23844SOL    HW276380   7.533   3.084   1.753  1.9720  2.2086  0.5640
23845SOL     OW76381   8.882   2.664   1.590  0.4197 -0.1228 -0.2415
23845SOL    HW176382   8.897   2.721   1.516 -1.0406  0.0402 -0.4454
23845SOL    HW276383   8.966   2.620   1.605  1.7536  2.4455  0.2830
23846SOL     OW76384   6.234   3.032   9.825  0.2486 -0.6338 -0.2708
23846SOL    HW176385   6.296   3.051   9.755  0.2552  0.5754  0.0473
23846SOL    HW276386   6.260   3.090   9.897 -2.0920  0.9718 -0.6167
23847SOL     OW76387   8.390   1.756   2.061 -0.5265 -0.4982 -0.0665
23847SOL    HW176388   8.427   1.796   2.140  0.5917  0.0104 -0.8209
23847SOL    HW276389   8.354   1.830   2.011 -2.2888 -0.9417  0.4771
23848SOL     OW76390   8.441   2.174   0.292  0.1179 -0.0379 -0.0257
23848SOL    HW176391   8.439   2.084   0.260  0.8638 -0.0481 -0.0781
23848SOL    HW276392   8.494   2.222   0.228  0.0904  0.3376  0.2252
23849SOL     OW76393   9.653   2.683   1.982  0.0045 -0.2181 -0.2727
23849SOL    HW176394   9.643   2.616   1.915  0.2637  0.2991 -0.8379
23849SOL    HW276395   9.607   2.648   2.059  1.6058 -1.7952  0.0093
23850SOL     OW76396   8.507   3.926   2.087  0.2429 -0.4883  0.7645
23850SOL    HW176397   8.540   3.989   2.152 -0.6228  2.2925 -1.3156
23850SOL    HW276398   8.413   3.921   2.105  0.3111 -1.2385  0.9315
23851SOL     OW76399   8.599   1.164   1.404  0.5526 -0.0746 -0.3272
23851SOL    HW176400   8.600   1.102   1.477 -1.3826 -0.8092 -0.8625
23851SOL    HW276401   8.675   1.141   1.351  1.6290  0.0655  1.0985
23852SOL     OW76402   0.402   2.998   2.985 -0.1980  0.4059 -0.0630
23852SOL    HW176403   0.457   2.952   2.921 -0.5027 -0.6363  0.4103
23852SOL    HW276404   0.355   2.929   3.030 -0.3260  1.1619  0.9927
23853SOL     OW76405   8.648   2.967   0.487  0.2379  0.5818  0.0578
23853SOL    HW176406   8.693   2.896   0.442  2.9181  2.5082 -0.5778
23853SOL    HW276407   8.618   2.929   0.569  1.2966 -1.3372 -0.4054
23854SOL     OW76408   8.886   0.492   0.967 -0.0996  0.4613  0.1912
23854SOL    HW176409   8.864   0.555   0.898  0.2939 -0.5329 -0.8689
23854SOL    HW276410   8.839   0.413   0.943  0.3833 -0.0298  0.8366
23855SOL     OW76411   8.173   1.960   3.090 -0.0466 -0.1926  0.3041
23855SOL    HW176412   8.211   1.926   3.171 -0.5168  0.8546  1.0002
23855SOL    HW276413   8.141   2.047   3.114  0.3567  0.3965 -1.1737
23856SOL     OW76414   7.407   2.839   0.489 -0.2584  0.4710  0.5083
23856SOL    HW176415   7.443   2.912   0.439 -0.5634 -0.3249 -0.9323
23856SOL    HW276416   7.483   2.785   0.511 -0.3278 -0.1791 -0.8010
23857SOL     OW76417   7.606   2.818   9.023  0.3905  0.2439 -0.3651
23857SOL    HW176418   7.625   2.844   8.933  0.9152  2.7062  0.3781
23857SOL    HW276419   7.635   2.893   9.076 -0.6406 -0.7970  1.7835
23858SOL     OW76420   8.742   3.398   1.728  0.3889 -0.2251 -0.4609
23858SOL    HW176421   8.659   3.380   1.683 -0.1119 -2.9971  1.3261
23858SOL    HW276422   8.808   3.356   1.674  0.5424  1.2347 -1.4353
23859SOL     OW76423   8.331   2.278   0.744 -0.3419 -0.0880 -0.1159
23859SOL    HW176424   8.307   2.330   0.667 -0.9842 -1.3536 -0.8253
23859SOL    HW276425   8.267   2.206   0.744 -0.1987 -0.2475  1.4770
23860SOL     OW76426   9.759   2.417   1.055 -0.5646 -0.3742  0.5549
23860SOL    HW176427   9.756   2.348   1.122  0.0628 -0.9152  0.0414
23860SOL    HW276428   9.669   2.447   1.046 -0.9460 -1.5622  0.3405
23861SOL     OW76429   7.718   3.742   2.154  0.2293  0.5726  0.4236
23861SOL    HW176430   7.794   3.773   2.105 -1.1119  1.2502 -1.3048
23861SOL    HW276431   7.715   3.648   2.138 -0.7448  0.9169 -1.6827
23862SOL     OW76432   8.623   0.962   2.840 -0.2248  0.1577  0.2981
23862SOL    HW176433   8.626   1.031   2.774 -0.8362 -0.7165 -0.6784
23862SOL    HW276434   8.533   0.964   2.874 -0.4470 -0.5607 -0.2097
23863SOL     OW76435   7.443   2.657   1.366 -0.0321  0.7376  0.3652
23863SOL    HW176436   7.526   2.705   1.373  0.5002  0.3630 -2.4186
23863SOL    HW276437   7.378   2.720   1.395  0.9767  2.0484 -0.0893
23864SOL     OW76438   0.114   3.134   3.660 -1.0685  0.7050  0.6539
23864SOL    HW176439   0.035   3.081   3.673 -0.0802 -0.6523  1.4146
23864SOL    HW276440   0.163   3.088   3.592  0.7514 -0.5917  2.7089
23865SOL     OW76441   6.567   2.842   0.054  0.2550 -0.6669  0.2672
23865SOL    HW176442   6.539   2.764   0.006  1.5292 -1.0253  0.0582
23865SOL    HW276443   6.595   2.903  -0.015  0.7687 -0.6489  0.4882
23866SOL     OW76444   6.828   1.351   2.187 -0.1445  0.1044 -0.0818
23866SOL    HW176445   6.833   1.402   2.107 -2.5637 -0.6863 -0.8387
23866SOL    HW276446   6.841   1.260   2.158 -0.7067 -0.1564  0.4540
23867SOL     OW76447   6.402   0.368   0.271 -0.4117 -0.4836  0.0130
23867SOL    HW176448   6.462   0.295   0.284 -1.3864 -1.0904  1.3988
23867SOL    HW276449   6.420   0.428   0.343 -1.9053 -1.0336  0.9096
23868SOL     OW76450   0.733   3.755   2.143  0.3780  0.1803 -0.1631
23868SOL    HW176451   0.788   3.678   2.155  0.7483  0.8350  3.1088
23868SOL    HW276452   0.664   3.746   2.209  0.2047  2.4283  0.0371
23869SOL     OW76453   9.640   3.853   9.688  0.2810  0.6259 -0.5277
23869SOL    HW176454   9.632   3.893   9.775  0.8895 -0.6363  0.1325
23869SOL    HW276455   9.588   3.772   9.695  1.4024 -0.1456 -0.9001
23870SOL     OW76456   8.715   3.496   1.165 -0.5898 -0.1025  0.1138
23870SOL    HW176457   8.795   3.525   1.121  0.5908 -2.5298  0.4848
23870SOL    HW276458   8.653   3.566   1.149  0.8632  0.7847 -2.3386
23871SOL     OW76459   8.381   3.777   0.955  0.2013 -0.1827 -0.1085
23871SOL    HW176460   8.383   3.683   0.974  0.7928  0.4157  3.4924
23871SOL    HW276461   8.472   3.801   0.941  0.0472 -0.1364 -1.0680
23872SOL     OW76462   6.947   3.749   8.950 -0.9199  0.2990  0.7868
23872SOL    HW176463   6.884   3.820   8.964 -0.7407  0.1185  2.8360
23872SOL    HW276464   6.972   3.722   9.038  1.4382 -0.1712  0.0476
23873SOL     OW76465   7.292   3.435   3.144  0.5833  0.6587  0.0055
23873SOL    HW176466   7.263   3.521   3.113  0.4564  0.1752 -1.2701
23873SOL    HW276467   7.323   3.451   3.234  0.9550  2.1108 -0.3575
23874SOL     OW76468   7.523   3.161   0.681  0.7499 -0.1010  0.0027
23874SOL    HW176469   7.566   3.092   0.731  1.2984 -0.2171 -0.6116
23874SOL    HW276470   7.544   3.141   0.589  0.9321  0.8916 -0.1831
23875SOL     OW76471   6.111   3.814   2.716  0.1785 -0.0574  0.5765
23875SOL    HW176472   6.083   3.764   2.639 -0.3321  0.5642  0.3464
23875SOL    HW276473   6.156   3.750   2.772 -0.8710 -0.8849  0.5046
23876SOL     OW76474   9.048   1.906   9.798  0.6762  0.2450 -0.1241
23876SOL    HW176475   9.102   1.972   9.753  0.3546  2.3559  2.3601
23876SOL    HW276476   8.995   1.868   9.728  2.0721  1.4326 -1.9311
23877SOL     OW76477   7.698   2.208   9.677  0.1702 -0.1300 -0.3255
23877SOL    HW176478   7.626   2.244   9.626 -0.0350 -1.4586 -1.0130
23877SOL    HW276479   7.774   2.262   9.653 -0.2808  0.3366 -0.7285
23878SOL     OW76480   0.625   3.317   1.634  0.1181  0.6666 -0.3307
23878SOL    HW176481   0.578   3.285   1.557 -0.6324  1.3841 -0.1758
23878SOL    HW276482   0.584   3.400   1.655  0.7146  0.7663  0.4946
23879SOL     OW76483   8.167   2.952   2.473 -0.0779  0.1343  0.2889
23879SOL    HW176484   8.127   2.880   2.523  0.6737 -0.4099  0.1288
23879SOL    HW276485   8.178   3.022   2.537 -2.1178  0.6502  0.1349
23880SOL     OW76486   7.098   2.402   1.133 -0.4608  0.0854  0.7119
23880SOL    HW176487   7.108   2.380   1.226  1.5627  0.6100  0.6661
23880SOL    HW276488   7.136   2.490   1.125  1.6999 -0.9131 -1.0005
23881SOL     OW76489   8.309   1.132   9.378 -0.6035  0.0299 -0.6176
23881SOL    HW176490   8.367   1.139   9.302  1.2306  0.4747  0.7363
23881SOL    HW276491   8.225   1.165   9.347  0.5676  1.9631 -1.9983
23882SOL     OW76492   8.153   2.169   2.100  0.3391 -0.0140 -0.3899
23882SOL    HW176493   8.147   2.119   2.181  1.4236 -1.8584 -1.3601
23882SOL    HW276494   8.159   2.260   2.127 -0.2485 -0.5110  1.5401
23883SOL     OW76495   9.139   1.765   8.961  0.5815  0.0007  0.0696
23883SOL    HW176496   9.075   1.695   8.960  0.1992  0.3482 -0.2239
23883SOL    HW276497   9.087   1.845   8.965  1.0472  0.2421  1.6023
23884SOL     OW76498   7.456   2.320   2.452  0.6510 -0.0028 -0.2233
23884SOL    HW176499   7.392   2.250   2.464  1.5565 -0.7748  0.1504
23884SOL    HW276500   7.405   2.401   2.463  0.0491 -0.5947  1.7495
23885SOL     OW76501   7.743   4.334   7.545  0.1597  0.8619  0.1691
23885SOL    HW176502   7.836   4.311   7.535  0.5761  1.9970  1.1437
23885SOL    HW276503   7.696   4.255   7.520  1.3702  0.4235 -0.8348
23886SOL     OW76504   9.058   2.584   8.977  0.2139 -0.4644 -0.2018
23886SOL    HW176505   9.101   2.501   8.956 -0.0350 -0.3247 -1.3219
23886SOL    HW276506   9.028   2.618   8.893 -0.8660  0.1208  0.3965
23887SOL     OW76507   8.896   3.349   0.280 -0.0202  0.2670  0.4883
23887SOL    HW176508   8.968   3.331   0.219  0.7464 -0.0353  1.4470
23887SOL    HW276509   8.869   3.438   0.261 -0.3325 -0.0854 -0.8184
23888SOL     OW76510   6.301   4.133   0.650  1.1503 -0.3185  0.1969
23888SOL    HW176511   6.222   4.182   0.670  1.5719  0.6790 -0.5101
23888SOL    HW276512   6.292   4.108   0.558  2.0076  0.5131 -0.1275
23889SOL     OW76513   9.135   4.691   0.010  0.1987 -0.8162 -0.0363
23889SOL    HW176514   9.148   4.786   0.013 -0.6093 -0.6141 -1.7178
23889SOL    HW276515   9.224   4.655   0.014  0.6977  0.1275 -1.4196
23890SOL     OW76516   8.900   1.080   1.835 -0.1770  0.1221 -0.4278
23890SOL    HW176517   8.895   0.984   1.844  0.4765  0.1195 -0.0619
23890SOL    HW276518   8.993   1.098   1.823 -0.2903  0.7264 -0.4068
23891SOL     OW76519   9.379   0.932   2.682 -1.1415  0.5059 -0.1720
23891SOL    HW176520   9.451   0.879   2.648 -2.0450 -0.2630 -0.9254
23891SOL    HW276521   9.422   1.006   2.725  0.0931  0.4541 -1.2578
23892SOL     OW76522   6.344   3.092   4.694  0.1916  0.2441  0.4097
23892SOL    HW176523   6.339   3.095   4.789 -1.1975 -0.5265  0.3865
23892SOL    HW276524   6.438   3.087   4.675  0.4545 -0.3414  1.7455
23893SOL     OW76525   0.088   3.903   1.984 -0.8282 -0.3498 -0.3051
23893SOL    HW176526   0.017   3.934   1.927  0.0910  0.6550 -0.9370
23893SOL    HW276527   0.059   3.925   2.073 -0.3046  2.2144 -0.7116
23894SOL     OW76528   8.788   3.548   2.757 -0.6280 -0.3235 -0.0835
23894SOL    HW176529   8.726   3.595   2.813  0.7754  2.7338 -0.9414
23894SOL    HW276530   8.733   3.507   2.690 -1.8442  1.7680 -0.4451
23895SOL     OW76531   0.031   3.132   4.131  0.1642  0.3122 -0.1668
23895SOL    HW176532   0.052   3.084   4.051 -1.6791 -0.2056 -0.3724
23895SOL    HW276533   0.110   3.183   4.149  1.2976 -0.9665 -1.2710
23896SOL     OW76534   6.112   1.179   3.171  0.5705  0.2934  0.0237
23896SOL    HW176535   6.152   1.126   3.241 -1.6412  1.4543  2.3331
23896SOL    HW276536   6.023   1.146   3.165  0.2870  1.2346 -1.2319
23897SOL     OW76537   7.933   2.610   5.058  0.1363  0.5307 -0.2058
23897SOL    HW176538   8.005   2.586   5.117 -0.3772 -0.6841 -0.0383
23897SOL    HW276539   7.897   2.690   5.096  0.1578  0.0655  0.8521
23898SOL     OW76540   7.859   3.208   3.775 -0.1769  0.1827 -0.7666
23898SOL    HW176541   7.893   3.119   3.772 -0.1636  0.1334  0.3572
23898SOL    HW276542   7.769   3.200   3.745 -0.4718 -0.3804  0.2134
23899SOL     OW76543   0.342   5.184   5.027  0.6877 -0.8051 -0.1947
23899SOL    HW176544   0.262   5.132   5.033 -0.3819  0.9427  1.3728
23899SOL    HW276545   0.368   5.199   5.118  1.0201  1.2747 -0.5945
23900SOL     OW76546   7.736   4.191   4.516  0.2139  0.2720 -0.0472
23900SOL    HW176547   7.714   4.208   4.424  2.4948 -1.4637 -1.0203
23900SOL    HW276548   7.742   4.096   4.522  1.4536  0.4081  1.5370
23901SOL     OW76549   8.875   4.155   4.058 -0.5952  0.4103 -0.3794
23901SOL    HW176550   8.963   4.127   4.032 -0.8574 -0.5882 -0.2580
23901SOL    HW276551   8.848   4.089   4.122 -1.9813 -0.1392 -1.4763
23902SOL     OW76552   7.683   2.246   3.419 -0.8082 -0.6132 -0.0834
23902SOL    HW176553   7.678   2.189   3.342 -0.4852 -0.5054 -0.1877
23902SOL    HW276554   7.775   2.244   3.445 -0.7394  0.0620 -0.2434
23903SOL     OW76555   8.729   2.784   2.990  1.0212 -0.0458  0.2298
23903SOL    HW176556   8.711   2.801   2.897  0.1483 -0.8762  0.2258
23903SOL    HW276557   8.668   2.714   3.013  2.4349 -1.0740  0.9766
23904SOL     OW76558   8.692   3.445   4.278 -0.0526 -0.8289  0.7572
23904SOL    HW176559   8.630   3.388   4.231  0.8288 -0.3153 -1.1161
23904SOL    HW276560   8.639   3.485   4.347 -1.7834 -0.5436 -0.6589
23905SOL     OW76561   5.602   4.488   4.398 -0.1287 -0.0654  0.6298
23905SOL    HW176562   5.607   4.472   4.492  1.1101 -0.2421  0.5534
23905SOL    HW276563   5.653   4.568   4.385  1.0533 -0.8928 -0.0589
23906SOL     OW76564   8.470   4.552   2.674 -0.0939  0.2031  0.2677
23906SOL    HW176565   8.469   4.548   2.770  0.2700 -2.5645  0.2476
23906SOL    HW276566   8.396   4.497   2.647  0.2548  0.3386 -1.0351
23907SOL     OW76567   6.110   5.402   2.012  0.1517 -0.2841 -0.5338
23907SOL    HW176568   6.046   5.345   1.970  0.9226 -0.2762 -1.7476
23907SOL    HW276569   6.080   5.409   2.103 -0.8486 -1.2977 -0.7721
23908SOL     OW76570   8.506   0.341   3.065  0.3223 -0.0180  0.8440
23908SOL    HW176571   8.478   0.345   3.157  1.5799  1.7886  1.2026
23908SOL    HW276572   8.602   0.346   3.070  0.3662  1.3566 -0.5971
23909SOL     OW76573   5.938   2.334   2.496  0.4795  1.2414  0.9311
23909SOL    HW176574   6.002   2.333   2.425 -1.0368 -0.1333 -0.4926
23909SOL    HW276575   5.964   2.262   2.553 -0.2889  0.0449 -0.1683
23910SOL     OW76576   0.486   4.440   1.410  0.2419  0.0073 -0.3033
23910SOL    HW176577   0.441   4.454   1.326 -0.5806 -0.3267  0.0707
23910SOL    HW276578   0.453   4.510   1.466 -1.4213 -1.4125  0.5955
23911SOL     OW76579   4.836   5.476   2.878  0.5663  0.2286 -0.2480
23911SOL    HW176580   4.932   5.472   2.886  0.6929  2.3490 -0.1658
23911SOL    HW276581   4.805   5.401   2.929  2.1543  0.0495  0.5243
23912SOL     OW76582   8.750   2.115   1.173 -0.0371 -0.1102  0.3937
23912SOL    HW176583   8.828   2.063   1.193 -1.6121 -1.8078  2.6818
23912SOL    HW276584   8.692   2.054   1.127 -0.9696  0.3455  0.9447
23913SOL     OW76585   6.895   5.256   3.112 -0.1375  0.4680  0.2652
23913SOL    HW176586   6.943   5.329   3.152 -0.3156  0.8793 -0.2576
23913SOL    HW276587   6.941   5.241   3.029  0.4956 -0.6568  0.7883
23914SOL     OW76588   9.552   2.515   2.528 -0.3551  0.3904 -0.1414
23914SOL    HW176589   9.525   2.579   2.593  0.9542  0.7228  0.0951
23914SOL    HW276590   9.602   2.450   2.577 -2.6356 -1.5335 -0.1485
23915SOL     OW76591   0.340   1.235   3.049 -0.1605 -0.2522  0.3830
23915SOL    HW176592   0.372   1.145   3.042 -0.4379 -0.3521  0.3697
23915SOL    HW276593   0.350   1.257   3.141 -0.0964 -0.2991  0.3873
23916SOL     OW76594   9.742   9.707   0.707  0.1859 -0.0620  0.3062
23916SOL    HW176595   9.770   9.616   0.721 -1.0237 -0.8036 -1.6265
23916SOL    HW276596   9.820   9.750   0.672  0.0398 -1.1267 -1.4598
23917SOL     OW76597   5.618   2.976   4.682  0.3696  0.6137  0.2327
23917SOL    HW176598   5.598   2.937   4.597  2.3132 -0.1855  0.1017
23917SOL    HW276599   5.665   3.056   4.662 -0.7591  1.3740  0.5545
23918SOL     OW76600   8.001   4.574   2.476 -0.2317  0.2009  0.1086
23918SOL    HW176601   8.089   4.560   2.441 -0.0026  1.7458 -0.0327
23918SOL    HW276602   7.989   4.669   2.470 -2.5066 -0.1025 -1.3637
23919SOL     OW76603   9.491   1.568   2.623  0.1962 -0.0616  0.4536
23919SOL    HW176604   9.526   1.492   2.577 -0.1048  0.8300 -1.3464
23919SOL    HW276605   9.489   1.542   2.715  0.5701 -2.0303 -0.0502
23920SOL     OW76606   8.932   3.133   1.058  0.2055 -0.4634  0.0598
23920SOL    HW176607   8.986   3.067   1.015 -0.2171 -0.5443 -0.3583
23920SOL    HW276608   8.967   3.217   1.027  2.2039 -0.3678  2.3166
23921SOL     OW76609   6.707   3.043   1.286  0.0582 -0.4609  0.2070
23921SOL    HW176610   6.639   3.061   1.221 -0.9447 -1.8141  0.8377
23921SOL    HW276611   6.683   2.958   1.323  1.2348 -0.2411  1.5544
23922SOL     OW76612   8.723   2.705   3.417  0.4190 -0.3704 -0.2899
23922SOL    HW176613   8.745   2.612   3.405  1.1585 -0.4340  1.2492
23922SOL    HW276614   8.775   2.750   3.351  0.8327 -0.9745 -0.3893
23923SOL     OW76615   7.866   2.985   2.131  0.4122  0.8845 -0.3410
23923SOL    HW176616   7.893   2.901   2.168 -0.7346  0.5923 -0.1435
23923SOL    HW276617   7.938   3.045   2.151  0.5041  0.3535  0.9782
23924SOL     OW76618   7.430   4.109   1.820 -0.1745 -0.2356 -0.1871
23924SOL    HW176619   7.420   4.104   1.915  1.2851 -0.9044 -0.0456
23924SOL    HW276620   7.512   4.063   1.802  0.9099  2.0373 -1.4911
23925SOL     OW76621   9.175   4.838   3.655 -0.0478  0.5412 -0.2069
23925SOL    HW176622   9.188   4.882   3.571 -0.4279 -1.1888 -1.2144
23925SOL    HW276623   9.090   4.869   3.686  0.8472  2.5285  0.4523
23926SOL     OW76624   8.761   5.110   4.050 -0.6325 -0.7422  0.4878
23926SOL    HW176625   8.856   5.118   4.045 -0.5412  0.2425  2.7820
23926SOL    HW276626   8.731   5.121   3.959  1.3383  0.0483 -0.1177
23927SOL     OW76627   7.845   1.374   2.141  0.7385 -0.1807  0.1875
23927SOL    HW176628   7.873   1.290   2.177  1.0382 -0.1401  0.0570
23927SOL    HW276629   7.927   1.419   2.121  0.6450  0.9691  2.1410
23928SOL     OW76630   7.871   0.711   1.799  0.1911  0.1607 -0.1862
23928SOL    HW176631   7.904   0.777   1.860  1.5265 -0.4983 -0.1491
23928SOL    HW276632   7.868   0.755   1.714  0.8199  0.3587 -0.1117
23929SOL     OW76633   6.862   3.735   2.623 -0.1095 -0.0587 -0.3062
23929SOL    HW176634   6.802   3.681   2.572 -1.4226  1.9037 -0.9321
23929SOL    HW276635   6.935   3.677   2.643 -1.0642 -1.8126 -1.6385
23930SOL     OW76636   5.557   1.236   2.779 -0.1254  0.1670 -0.4949
23930SOL    HW176637   5.498   1.160   2.781 -2.8510  2.1586  0.3374
23930SOL    HW276638   5.570   1.259   2.871  0.0030  1.1602 -0.7526
23931SOL     OW76639   9.536   1.413   2.198 -0.3366 -0.0965 -0.3663
23931SOL    HW176640   9.523   1.328   2.155 -0.0371  0.2540 -1.1606
23931SOL    HW276641   9.482   1.407   2.277  0.7510 -1.5403  0.3247
23932SOL     OW76642   9.151   4.360   4.035  0.1487  0.3631 -0.8383
23932SOL    HW176643   9.168   4.348   3.942  0.1407 -0.7612 -0.7059
23932SOL    HW276644   9.231   4.331   4.078  0.1436  0.8517 -0.4808
23933SOL     OW76645   9.542   2.836   2.668 -0.1176 -0.0503  0.1326
23933SOL    HW176646   9.482   2.904   2.701 -0.8391  0.1649 -1.5382
23933SOL    HW276647   9.502   2.754   2.695  0.7317  0.1228  2.1270
23934SOL     OW76648   6.172   4.264   5.564  0.3811 -0.0426 -0.3850
23934SOL    HW176649   6.135   4.178   5.544 -0.9109  0.2069  0.8293
23934SOL    HW276650   6.110   4.327   5.527 -0.9551  0.3896  2.3731
23935SOL     OW76651   7.241   1.677   2.382 -0.1042 -0.1605 -0.0812
23935SOL    HW176652   7.223   1.584   2.368  0.7694 -0.1838 -1.1599
23935SOL    HW276653   7.275   1.708   2.298 -0.4370  1.1574  0.2374
23936SOL     OW76654   4.933   2.649   2.515 -0.0866  1.0614 -0.3468
23936SOL    HW176655   4.957   2.631   2.424 -0.5745 -0.9692 -0.1188
23936SOL    HW276656   4.981   2.583   2.566 -0.9808  1.2172  0.7229
23937SOL     OW76657   8.157   4.759   2.226 -0.3318  0.0476 -0.0650
23937SOL    HW176658   8.216   4.825   2.189 -0.8120 -0.2880 -1.4920
23937SOL    HW276659   8.136   4.701   2.152 -2.4332  0.1532  0.3755
23938SOL     OW76660   8.924   1.829   3.106 -0.4664  0.1422  0.3228
23938SOL    HW176661   8.937   1.799   3.196  1.1989 -1.8856 -0.4993
23938SOL    HW276662   8.829   1.836   3.097 -1.0680 -4.0571  1.0480
23939SOL     OW76663   7.972   3.712   0.571 -0.1640 -0.8749 -0.6473
23939SOL    HW176664   7.941   3.658   0.499  0.4274 -1.3544 -0.5557
23939SOL    HW276665   7.963   3.656   0.648 -0.5320 -0.4664 -0.3903
23940SOL     OW76666   8.551   0.794   5.234  0.1441 -0.1858  0.2244
23940SOL    HW176667   8.589   0.881   5.244  1.9793 -0.8898 -0.3444
23940SOL    HW276668   8.580   0.745   5.311  0.8260 -0.8614 -0.4361
23941SOL     OW76669   7.398   2.667   3.192  0.2408 -0.1256  0.0693
23941SOL    HW176670   7.304   2.648   3.196  0.2094  0.1854  1.2891
23941SOL    HW276671   7.440   2.581   3.191 -0.0702 -0.2765 -1.4845
23942SOL     OW76672   7.776   5.230   2.262  0.2442  0.3062 -0.1032
23942SOL    HW176673   7.757   5.317   2.227  0.5674  1.0266  1.4392
23942SOL    HW276674   7.841   5.193   2.202 -0.3842  0.8561 -1.1371
23943SOL     OW76675   7.804   3.722   3.727 -0.1926 -0.2635 -0.1612
23943SOL    HW176676   7.873   3.780   3.694 -0.9141  0.3491 -0.6074
23943SOL    HW276677   7.849   3.666   3.790  1.2622 -1.5904 -2.2612
23944SOL     OW76678   9.850   3.156   1.480  0.2769 -0.0064 -0.4938
23944SOL    HW176679   9.810   3.176   1.565  0.7025  0.1119 -0.3151
23944SOL    HW276680   9.796   3.202   1.416  1.0778  1.5233 -0.1176
23945SOL     OW76681   7.637   3.641   3.388  0.9865 -0.3298  0.6545
23945SOL    HW176682   7.722   3.617   3.426  0.1248 -0.2338  2.7862
23945SOL    HW276683   7.636   3.737   3.392  0.8338 -0.3227  0.4590
23946SOL     OW76684   8.178   0.849   1.442  0.7522 -0.1053  0.0503
23946SOL    HW176685   8.199   0.942   1.436  1.8084 -0.2394  1.1822
23946SOL    HW276686   8.084   0.846   1.456  0.7757  0.8290  0.4520
23947SOL     OW76687   5.822   3.850   4.641  0.1054 -0.4916  0.2215
23947SOL    HW176688   5.799   3.786   4.573 -1.6805  0.5241 -0.1803
23947SOL    HW276689   5.758   3.920   4.632  2.0615  1.4560  0.5932
23948SOL     OW76690   8.581   3.701   2.579  0.1376  0.5285 -0.1061
23948SOL    HW176691   8.569   3.651   2.498 -0.1010  1.6274 -0.7649
23948SOL    HW276692   8.552   3.641   2.648  0.0752 -0.3277 -0.8444
23949SOL     OW76693   9.524   2.457   4.291 -0.5758  0.1529  0.3806
23949SOL    HW176694   9.561   2.542   4.316  0.0147  0.1716 -0.5294
23949SOL    HW276695   9.572   2.394   4.345 -2.2858  0.5007  2.4321
23950SOL     OW76696   1.521   3.097   3.383 -0.0008 -0.5892  0.2422
23950SOL    HW176697   1.508   3.005   3.402 -0.1015 -0.8021 -0.7824
23950SOL    HW276698   1.576   3.098   3.305  2.0827  0.2595  1.6243
23951SOL     OW76699   9.651   3.250   2.023  0.6002  0.4145 -0.2654
23951SOL    HW176700   9.667   3.156   2.031 -0.2208  0.0411 -2.2751
23951SOL    HW276701   9.738   3.288   2.014  0.9248 -0.1966  0.1812
23952SOL     OW76702   9.572   3.776   4.880  0.0540  0.4049 -0.0809
23952SOL    HW176703   9.600   3.867   4.873 -0.2705  0.4293 -1.3014
23952SOL    HW276704   9.614   3.732   4.806  1.4251 -0.7838  1.3389
23953SOL     OW76705   7.076   1.957   2.682 -0.1749 -0.0229 -0.0393
23953SOL    HW176706   7.035   1.956   2.768 -0.2307 -1.1269 -0.0704
23953SOL    HW276707   7.009   1.923   2.623  0.3518 -0.6387 -0.2902
23954SOL     OW76708   8.158   5.205   1.209 -0.0358 -0.2305  0.1479
23954SOL    HW176709   8.232   5.214   1.269 -1.2749  2.4209  1.4112
23954SOL    HW276710   8.193   5.151   1.138  2.2657 -1.3516  1.9606
23955SOL     OW76711   9.121   2.220   3.238  0.1238 -0.6320 -0.6704
23955SOL    HW176712   9.110   2.139   3.188 -4.3289 -0.5152 -0.3060
23955SOL    HW276713   9.114   2.193   3.330 -2.8521  0.1292 -0.5709
23956SOL     OW76714   7.772   2.682   1.364 -0.4165 -0.3124  0.4284
23956SOL    HW176715   7.809   2.663   1.278 -0.3559 -0.2148  0.4325
23956SOL    HW276716   7.737   2.770   1.356  0.2285 -0.0220  0.7155
23957SOL     OW76717   8.687   3.931   2.666  0.7228 -0.9181  0.3913
23957SOL    HW176718   8.640   3.866   2.613  1.1292  0.2380 -1.4956
23957SOL    HW276719   8.620   3.968   2.723 -1.4458  2.1097 -3.5682
23958SOL     OW76720   9.252   1.189   2.821  0.2982  0.3277 -0.3171
23958SOL    HW176721   9.202   1.156   2.746 -1.6661  0.4126  0.8794
23958SOL    HW276722   9.344   1.173   2.798 -0.3549 -3.6332 -0.9582
23959SOL     OW76723   6.403   2.130   1.892 -0.6098 -0.6140  0.0324
23959SOL    HW176724   6.365   2.140   1.979  0.1151 -0.9109  0.4001
23959SOL    HW276725   6.485   2.179   1.896 -0.4052 -0.9156 -0.3683
23960SOL     OW76726   9.421   1.772   0.887 -0.0733  0.3694 -0.1208
23960SOL    HW176727   9.401   1.700   0.947 -3.3931  0.8766 -0.4300
23960SOL    HW276728   9.501   1.812   0.923 -0.1660 -1.2607  2.1075
23961SOL     OW76729   0.125   3.247   2.386  0.1249  0.6237 -0.2606
23961SOL    HW176730   0.074   3.197   2.322  0.8480 -1.5550  0.7751
23961SOL    HW276731   0.144   3.330   2.342 -1.8637  0.3833 -1.7281
23962SOL     OW76732   9.517   1.755   3.262 -0.5635  0.0279 -0.3106
23962SOL    HW176733   9.595   1.755   3.317 -0.8926 -0.3497  0.1711
23962SOL    HW276734   9.537   1.815   3.190 -0.2128  0.6992  0.3442
23963SOL     OW76735   9.684   3.741   3.678 -0.0794  0.0908  0.4793
23963SOL    HW176736   9.603   3.772   3.637  0.2267 -0.1342 -0.3249
23963SOL    HW276737   9.727   3.821   3.708 -0.9456  0.1537  1.5978
23964SOL     OW76738   9.352   2.997   0.238 -0.2786 -0.5643 -0.2602
23964SOL    HW176739   9.376   2.955   0.321  1.4499 -1.0960 -0.9876
23964SOL    HW276740   9.387   2.938   0.171 -2.1499 -0.4391 -1.4000
23965SOL     OW76741   6.254   2.094   3.702  0.5158  0.0454 -0.2413
23965SOL    HW176742   6.224   2.142   3.779 -1.3156 -1.3792  0.0163
23965SOL    HW276743   6.197   2.124   3.631  0.2109 -0.7690 -0.3562
23966SOL     OW76744   8.283   1.269   4.067 -0.5750 -0.0256 -0.3430
23966SOL    HW176745   8.369   1.250   4.030  0.0283 -0.9076  1.3860
23966SOL    HW276746   8.287   1.361   4.093  0.7713 -0.6332  1.8801
23967SOL     OW76747   9.753   2.900   2.490 -0.6646 -0.3340  0.4891
23967SOL    HW176748   9.838   2.930   2.522 -0.9533  1.0726 -0.0086
23967SOL    HW276749   9.700   2.891   2.569 -0.4656  0.1700  0.6863
23968SOL     OW76750   7.035   2.752   4.188  0.6700  0.2970 -0.3417
23968SOL    HW176751   7.075   2.791   4.110  0.6510  0.5175 -0.2411
23968SOL    HW276752   7.110   2.728   4.243  0.6781  0.2641 -0.3665
23969SOL     OW76753   7.396   4.710   2.478 -0.5545 -0.3104  0.3452
23969SOL    HW176754   7.491   4.695   2.473 -0.4825  0.3768 -2.6981
23969SOL    HW276755   7.386   4.802   2.451 -2.2186 -1.4645 -3.7006
23970SOL     OW76756   7.958   9.156   1.171  0.0273 -0.1995  0.0734
23970SOL    HW176757   7.977   9.134   1.262 -1.2883 -0.5211  0.2837
23970SOL    HW276758   7.901   9.233   1.177  2.0529  1.4423 -0.5712
23971SOL     OW76759   8.881   3.153   2.074  0.0627 -0.0238 -0.0889
23971SOL    HW176760   8.838   3.153   2.159  0.9888 -0.3901  0.3988
23971SOL    HW276761   8.916   3.064   2.066 -0.4592 -0.1473 -1.0864
23972SOL     OW76762   8.859   2.653   2.173 -0.1976 -0.1742  0.1333
23972SOL    HW176763   8.843   2.620   2.261  0.5186 -2.2274 -0.4573
23972SOL    HW276764   8.822   2.586   2.115  0.2783  0.6306 -1.1472
23973SOL     OW76765   9.625   3.180   4.117 -0.3058 -0.2241  0.3912
23973SOL    HW176766   9.595   3.223   4.037 -1.6248 -0.8349  0.5399
23973SOL    HW276767   9.718   3.161   4.100  0.1012  1.8434 -0.0140
23974SOL     OW76768   1.129   3.781   1.409 -0.4638  0.0274  0.2087
23974SOL    HW176769   1.176   3.730   1.342  1.1111  1.7523 -0.1068
23974SOL    HW276770   1.090   3.853   1.360  0.8829  1.4307  1.1121
23975SOL     OW76771   9.263   3.615   4.269  0.4478  0.2893  0.3560
23975SOL    HW176772   9.271   3.563   4.349 -1.2561 -0.1503  0.2779
23975SOL    HW276773   9.249   3.551   4.200 -0.3677  0.7695  0.0583
23976SOL     OW76774   6.758   4.304   3.603 -0.1069 -0.0641  0.0027
23976SOL    HW176775   6.804   4.363   3.663 -2.1284  0.9440  0.6452
23976SOL    HW276776   6.733   4.229   3.656  1.9047 -1.3072 -0.6720
23977SOL     OW76777   0.432   3.991   3.382 -0.3264  0.2397  0.2880
23977SOL    HW176778   0.408   3.940   3.459  1.5774  1.1383  1.5432
23977SOL    HW276779   0.389   3.945   3.309 -0.3025 -1.9867  1.5783
23978SOL     OW76780   8.667   1.532   4.072  0.0955  0.2173 -0.4976
23978SOL    HW176781   8.643   1.560   3.984  1.8815 -1.2732 -1.5286
23978SOL    HW276782   8.727   1.599   4.103  0.2756  0.2132 -0.8341
23979SOL     OW76783   8.626   6.815   1.874 -0.2489 -0.1343 -0.5564
23979SOL    HW176784   8.613   6.873   1.799  0.9744 -1.7097 -2.0740
23979SOL    HW276785   8.540   6.779   1.892 -0.5088  0.0190 -1.4453
23980SOL     OW76786   7.493   2.379   2.958 -0.0150  0.2025 -0.1162
23980SOL    HW176787   7.497   2.310   2.891 -0.5264  0.4239 -0.3837
23980SOL    HW276788   7.509   2.460   2.909 -0.4135  0.3665  0.0213
23981SOL     OW76789   5.515   1.459   2.224 -0.1906 -0.0676  0.5439
23981SOL    HW176790   5.490   1.380   2.176 -1.7974  1.4670 -1.3196
23981SOL    HW276791   5.450   1.467   2.293 -0.6644  0.1492  0.0824
23982SOL     OW76792   7.832   1.271   4.177  0.2048 -0.0352 -0.0191
23982SOL    HW176793   7.868   1.312   4.099 -0.4268  0.1995 -0.1930
23982SOL    HW276794   7.780   1.198   4.144  1.9800 -1.5403  0.3235
23983SOL     OW76795   5.876   2.687   3.744  0.1778 -0.1545 -0.0312
23983SOL    HW176796   5.958   2.667   3.789 -0.4892 -2.0846  0.4405
23983SOL    HW276797   5.901   2.705   3.653  1.0484 -2.0194 -0.2055
23984SOL     OW76798   8.880   1.600   1.914  0.1640 -0.3617  0.4274
23984SOL    HW176799   8.965   1.594   1.870 -0.4194  2.1870 -1.2558
23984SOL    HW276800   8.902   1.609   2.007  1.6676 -1.0318  0.1699
23985SOL     OW76801   9.170   1.218   3.266  0.6551  0.3190  0.0826
23985SOL    HW176802   9.178   1.166   3.186  0.5335 -0.6711  0.6956
23985SOL    HW276803   9.261   1.239   3.290  0.6610  1.3950 -0.7830
23986SOL     OW76804   9.409   1.775   2.472  0.4658  0.3122 -0.3145
23986SOL    HW176805   9.319   1.796   2.497  0.2118 -0.6465 -0.3722
23986SOL    HW276806   9.435   1.704   2.531  1.1075  0.4359 -0.4373
23987SOL     OW76807   6.866   4.482   8.826 -0.2049  0.1729  0.2051
23987SOL    HW176808   6.865   4.576   8.843 -0.9759  0.0545  0.8593
23987SOL    HW276809   6.959   4.460   8.823 -0.0202  0.8652  0.5639
23988SOL     OW76810   8.084   2.642   2.971  0.2561 -0.0600 -0.2956
23988SOL    HW176811   8.104   2.665   3.061 -1.8235 -0.1461  0.2369
23988SOL    HW276812   8.069   2.547   2.972 -0.6166  0.0617 -0.5301
23989SOL     OW76813   0.127   0.995   2.888 -0.3235 -0.2395  0.8486
23989SOL    HW176814   0.051   1.002   2.830 -0.0656  0.7806  0.6299
23989SOL    HW276815   0.193   0.950   2.835  0.5947  2.4067 -0.3842
23990SOL     OW76816   8.346   9.408   2.531  0.1057 -0.0382  0.0472
23990SOL    HW176817   8.367   9.340   2.594 -2.3859 -0.6220  0.3154
23990SOL    HW276818   8.290   9.469   2.578 -0.6248  0.2812 -1.1841
23991SOL     OW76819   6.424   3.922   4.631 -0.8016 -0.1446 -0.4413
23991SOL    HW176820   6.439   3.883   4.717 -2.3723 -0.0197 -0.0835
23991SOL    HW276821   6.512   3.942   4.598 -0.2142  2.0973  2.1558
23992SOL     OW76822   0.101   4.081   4.042 -0.5470  0.3186  0.2206
23992SOL    HW176823   0.129   4.166   4.074  1.6417 -0.6413  1.0959
23992SOL    HW276824   0.090   4.028   4.121  1.9530 -1.2466 -0.3707
23993SOL     OW76825   8.696   2.540   1.238 -0.0567  0.5739 -0.3756
23993SOL    HW176826   8.697   2.455   1.193 -1.3922 -0.0996  0.7917
23993SOL    HW276827   8.611   2.578   1.215 -0.1889  0.8139  0.4893
23994SOL     OW76828   7.832   1.741   1.257  0.1020  0.1111 -0.3476
23994SOL    HW176829   7.852   1.695   1.338  0.9148  2.9743  1.1736
23994SOL    HW276830   7.738   1.761   1.264 -0.2296 -1.0898 -0.9666
23995SOL     OW76831   5.188   4.415   3.891 -0.0296 -0.0413 -0.1233
23995SOL    HW176832   5.201   4.486   3.954  0.6786 -0.1078 -0.1795
23995SOL    HW276833   5.214   4.336   3.939 -2.4170 -0.5048  0.4976
23996SOL     OW76834   4.854   3.002   3.288  0.0405 -0.3892 -0.0687
23996SOL    HW176835   4.923   2.983   3.224 -2.0406 -0.4048 -2.5014
23996SOL    HW276836   4.894   3.062   3.350  1.7979  0.9720 -2.3530
23997SOL     OW76837   8.412   3.141   3.501 -0.6998 -0.2890  0.1362
23997SOL    HW176838   8.378   3.200   3.433  0.0298  1.3194  1.0886
23997SOL    HW276839   8.334   3.112   3.548 -1.0195  1.0032  0.4657
23998SOL     OW76840   0.676   3.490   5.305 -0.2228 -0.3476 -0.3051
23998SOL    HW176841   0.744   3.483   5.238  1.9939 -0.8231  1.8439
23998SOL    HW276842   0.710   3.439   5.379 -1.1968  2.3566  2.2001
23999SOL     OW76843   7.899   1.765   3.285  0.3017  0.3928 -0.1625
23999SOL    HW176844   7.920   1.734   3.197  0.0701  0.7431 -0.3458
23999SOL    HW276845   7.983   1.792   3.322  0.3741  0.4230 -0.3488
24000SOL     OW76846   9.573   3.316   2.743 -0.0133  0.2852  0.1378
24000SOL    HW176847   9.639   3.308   2.674 -0.5506 -0.9395 -0.2672
24000SOL    HW276848   9.552   3.409   2.746  0.7785  0.5045 -0.6200
24001SOL     OW76849   5.311   2.377   2.631  0.0609 -0.7875 -0.8982
24001SOL    HW176850   5.404   2.355   2.621  0.1971 -0.8402  0.3189
24001SOL    HW276851   5.304   2.413   2.720 -1.0021 -0.3476 -1.1457
24002SOL     OW76852   9.521   1.612   0.674  0.3505  0.2498 -0.3433
24002SOL    HW176853   9.611   1.620   0.643  0.3185  0.4806 -0.3742
24002SOL    HW276854   9.516   1.669   0.751 -0.0864  1.1489 -1.0284
24003SOL     OW76855   8.835   2.145   1.667  0.1524  0.4795 -0.3147
24003SOL    HW176856   8.819   2.130   1.761  0.6261  0.5567 -0.2170
24003SOL    HW276857   8.754   2.118   1.624  0.3011 -0.5747  0.0241
24004SOL     OW76858   6.151   1.932   1.804 -0.5775  0.1012  0.5491
24004SOL    HW176859   6.203   1.874   1.748 -0.8469  0.6086 -0.2342
24004SOL    HW276860   6.109   1.873   1.867 -1.2397 -0.6246 -0.5421
24005SOL     OW76861   8.846   0.635   5.689  0.8745 -0.3510 -0.1329
24005SOL    HW176862   8.754   0.609   5.694  0.3412  0.9766 -1.8875
24005SOL    HW276863   8.860   0.690   5.767  0.1841 -0.5523  0.1401
24006SOL     OW76864   8.630   4.680   4.325 -1.0627 -0.1273 -0.2710
24006SOL    HW176865   8.701   4.727   4.281 -0.3058 -0.7716  0.2216
24006SOL    HW276866   8.673   4.639   4.401 -1.3403 -2.8321 -1.4425
24007SOL     OW76867   9.113   0.019   3.047 -0.1150  0.3390 -0.2576
24007SOL    HW176868   9.106   0.063   2.962 -3.0654 -1.1938 -0.9586
24007SOL    HW276869   9.082  -0.070   3.029 -1.8202  0.2629  2.6330
24008SOL     OW76870   8.561   0.787   1.354  0.2077  0.5148  0.0552
24008SOL    HW176871   8.630   0.843   1.390  1.7536 -0.0678 -1.8728
24008SOL    HW276872   8.593   0.759   1.269 -2.3558  0.0447 -0.8594
24009SOL     OW76873   7.611   2.614   5.104  0.2949  0.5480  0.9326
24009SOL    HW176874   7.565   2.537   5.138 -1.0363  1.0921  0.4601
24009SOL    HW276875   7.630   2.666   5.182 -1.4155  1.0839  1.0528
24010SOL     OW76876   9.022   3.994   2.240 -0.6080  0.0489 -0.2288
24010SOL    HW176877   8.997   4.023   2.328  2.5287 -0.1021  0.8296
24010SOL    HW276878   9.079   3.918   2.256  0.1047  0.0745 -2.4004
24011SOL     OW76879   5.704   2.441   4.622 -0.3147  0.6437 -0.1161
24011SOL    HW176880   5.700   2.360   4.673  1.0831 -0.1168 -1.1304
24011SOL    HW276881   5.770   2.494   4.668 -0.8276  0.9881  0.2324
24012SOL     OW76882   7.487   6.335   1.820 -0.8969  0.5319 -0.6717
24012SOL    HW176883   7.418   6.270   1.836 -0.2273  0.3598  1.8721
24012SOL    HW276884   7.566   6.282   1.806 -0.7019  0.7833 -0.5166
24013SOL     OW76885   9.644   1.725   4.639 -0.1271 -0.0831  0.0015
24013SOL    HW176886   9.711   1.778   4.595  0.2025 -0.8788 -0.4847
24013SOL    HW276887   9.646   1.754   4.730  1.1966 -0.3748  0.0971
24014SOL     OW76888   9.333   3.273   4.577  0.6631  0.1413 -0.3301
24014SOL    HW176889   9.331   3.198   4.637  0.4456  1.8575  1.9554
24014SOL    HW276890   9.369   3.237   4.496  0.7635 -2.3821  0.7182
24015SOL     OW76891   5.670   0.872   2.173 -0.1962 -0.0997  0.5441
24015SOL    HW176892   5.752   0.823   2.169 -0.1627 -0.1528  1.6691
24015SOL    HW276893   5.630   0.846   2.255 -0.2777  1.5910  1.0799
24016SOL     OW76894   0.673   3.905   6.385 -0.1962 -0.3877  0.3633
24016SOL    HW176895   0.636   3.822   6.417 -0.4475 -0.6760 -0.6498
24016SOL    HW276896   0.634   3.917   6.299  1.1238 -0.0628 -0.2093
24017SOL     OW76897   7.399   6.376   9.653 -0.0343  0.1779 -0.2046
24017SOL    HW176898   7.453   6.374   9.732 -0.0309  0.2432 -0.2050
24017SOL    HW276899   7.357   6.290   9.650  0.1475  0.0922 -0.2578
24018SOL     OW76900   8.958   2.361   4.390  0.8617 -0.3963  0.3358
24018SOL    HW176901   8.974   2.343   4.483 -0.1351 -0.8407  0.4354
24018SOL    HW276902   9.004   2.292   4.343  0.4701 -0.8055  0.5491
24019SOL     OW76903   8.863   2.107   2.940 -0.2147  0.1681  0.2010
24019SOL    HW176904   8.882   2.200   2.944  2.7309 -0.3512  3.0293
24019SOL    HW276905   8.793   2.094   3.004  1.5400  0.1715  2.2383
24020SOL     OW76906   8.080   9.809   5.833  0.0012 -0.0480 -0.1555
24020SOL    HW176907   8.114   9.898   5.837 -1.4119  0.6432 -2.0326
24020SOL    HW276908   8.141   9.763   5.774 -0.0758  0.0811 -0.3364
24021SOL     OW76909   7.563   2.496   4.857  0.2680  0.0180 -0.2588
24021SOL    HW176910   7.536   2.581   4.823  1.5735 -0.1499 -1.8539
24021SOL    HW276911   7.608   2.515   4.939 -1.6564  0.5929  0.7106
24022SOL     OW76912   8.691   2.047   1.883 -0.2100 -0.5828  0.1592
24022SOL    HW176913   8.707   1.954   1.865 -1.3193 -0.9673  0.9978
24022SOL    HW276914   8.719   2.059   1.974  1.1118  0.2237 -0.3366
24023SOL     OW76915   9.585   3.232   3.255  0.6244  0.2849 -0.1559
24023SOL    HW176916   9.599   3.231   3.350 -0.3959  0.0084  0.0052
24023SOL    HW276917   9.588   3.140   3.228  1.9827  0.4284 -0.5823
24024SOL     OW76918   3.698   2.648   3.068  0.6994  0.2273 -0.1283
24024SOL    HW176919   3.697   2.732   3.022 -0.7416  0.0307 -0.4949
24024SOL    HW276920   3.614   2.607   3.047  1.0660 -0.9904  0.6389
24025SOL     OW76921   6.350   2.992   3.529  0.0585 -0.3787 -0.0398
24025SOL    HW176922   6.356   2.958   3.440  0.6951  1.3790 -0.7209
24025SOL    HW276923   6.256   3.005   3.544 -0.1178 -1.5374 -0.0868
24026SOL     OW76924   8.336   2.410   1.882  0.4048 -0.3206 -0.4821
24026SOL    HW176925   8.421   2.420   1.924 -0.2210 -0.5035  0.8793
24026SOL    HW276926   8.294   2.495   1.890 -0.0924 -0.6151  0.1313
24027SOL     OW76927   9.128   2.559   1.704 -0.3219 -0.2203  0.0050
24027SOL    HW176928   9.152   2.633   1.761 -2.0037 -1.5325  2.5963
24027SOL    HW276929   9.186   2.488   1.732  0.3026 -0.3253 -1.4741
24028SOL     OW76930   7.212   2.314   3.049 -0.0794  0.0204 -0.5233
24028SOL    HW176931   7.176   2.400   3.029 -1.4057 -0.6756 -1.3042
24028SOL    HW276932   7.303   2.319   3.020 -0.4045  0.8580 -1.4678
24029SOL     OW76933   9.140   4.180   2.098  0.5970 -0.4463 -0.0827
24029SOL    HW176934   9.112   4.107   2.154  0.8840 -0.1664  0.4356
24029SOL    HW276935   9.059   4.224   2.074  0.5301  0.0713  1.0068
24030SOL     OW76936   7.477   0.878   2.590 -0.1171  0.4530 -0.1180
24030SOL    HW176937   7.505   0.968   2.607  2.2515 -0.1533 -0.4646
24030SOL    HW276938   7.542   0.843   2.529 -1.6477 -1.1549 -0.9535
24031SOL     OW76939   8.095   2.664   0.779  0.0185  0.0049 -0.0268
24031SOL    HW176940   8.041   2.704   0.711 -0.7523 -1.5355 -0.3531
24031SOL    HW276941   8.065   2.706   0.860  2.5625  3.6361 -0.7156
24032SOL     OW76942   8.880   3.692   3.532 -0.0188 -0.1373  0.1199
24032SOL    HW176943   8.940   3.620   3.513  0.7225  0.5337 -0.1070
24032SOL    HW276944   8.813   3.653   3.589  1.0365 -0.7185  0.9947
24033SOL     OW76945   6.325   1.762   4.082  0.5436  0.0884 -0.0758
24033SOL    HW176946   6.380   1.773   4.004  0.3515 -1.9048 -0.5579
24033SOL    HW276947   6.245   1.810   4.062  1.1781  1.0552 -0.3574
24034SOL     OW76948   6.589   2.305   4.406 -0.3922 -0.0364  0.3729
24034SOL    HW176949   6.584   2.214   4.378  0.1165 -0.6772  2.2608
24034SOL    HW276950   6.608   2.301   4.499  1.4363  1.9939  0.1858
24035SOL     OW76951   9.850   2.754   2.143  0.1466  0.6380  0.5044
24035SOL    HW176952   9.774   2.735   2.089  0.9124 -0.8583 -0.1159
24035SOL    HW276953   9.827   2.720   2.230  0.5322 -0.9353  0.0199
24036SOL     OW76954   9.306   3.589   2.491 -0.2453  0.2815 -0.3441
24036SOL    HW176955   9.380   3.649   2.494 -0.0576  0.0402 -0.0960
24036SOL    HW276956   9.248   3.620   2.561  0.1736 -0.2364  0.2444
24037SOL     OW76957   6.214   4.505   1.849 -0.4786 -0.1398 -0.3258
24037SOL    HW176958   6.248   4.562   1.780 -1.3334 -1.0892 -1.5764
24037SOL    HW276959   6.269   4.525   1.925 -0.5254  2.0655 -0.8049
24038SOL     OW76960   8.003   1.189   3.679 -0.3462 -0.2397  0.0738
24038SOL    HW176961   8.072   1.216   3.619 -0.5350  0.0404 -0.0153
24038SOL    HW276962   8.036   1.107   3.716  0.0892 -0.0477  0.1242
24039SOL     OW76963   9.728   0.844   1.710  0.2174  0.4269 -0.2985
24039SOL    HW176964   9.654   0.793   1.743  0.1273  1.1253  0.6003
24039SOL    HW276965   9.798   0.780   1.697  0.4614  0.1935  1.8506
24040SOL     OW76966   8.447   2.924   2.444  0.3025  0.6911  0.0852
24040SOL    HW176967   8.451   2.829   2.437  1.1727  0.7612 -0.5026
24040SOL    HW276968   8.354   2.943   2.456  0.3133 -0.3579  2.3249
24041SOL     OW76969   7.844   4.056   2.643  0.4729  0.0205 -0.1665
24041SOL    HW176970   7.787   4.037   2.569  0.5846 -0.7543 -0.0576
24041SOL    HW276971   7.914   4.110   2.606 -0.2978  0.9368 -0.3050
24042SOL     OW76972   7.049   3.597   1.037  0.3190  0.0765 -0.0811
24042SOL    HW176973   7.143   3.576   1.037  0.3905  0.3313 -1.1646
24042SOL    HW276974   7.035   3.644   0.954 -0.2712  2.2973  1.2059
24043SOL     OW76975   1.512   3.257   3.625 -0.3235  0.1587  0.1838
24043SOL    HW176976   1.540   3.222   3.540 -1.4499 -0.2198 -0.0478
24043SOL    HW276977   1.463   3.186   3.665 -0.1052  0.4652  1.0051
24044SOL     OW76978   5.884   4.891   0.795  0.0069 -0.0838  0.2270
24044SOL    HW176979   5.926   4.961   0.745 -0.2827  0.8452  1.2614
24044SOL    HW276980   5.917   4.901   0.884 -0.6561 -0.7596  0.5647
24045SOL     OW76981   7.580   1.821   5.027  0.1867  0.4195 -0.8331
24045SOL    HW176982   7.548   1.751   5.084  0.6577  0.3535 -0.6385
24045SOL    HW276983   7.540   1.804   4.942  1.2999 -0.8660 -1.1500
24046SOL     OW76984   8.251   9.629   2.706 -0.0892  0.3281 -0.6471
24046SOL    HW176985   8.269   9.642   2.799 -0.2240  0.0334 -0.5777
24046SOL    HW276986   8.240   9.717   2.671 -1.1841  0.4028 -0.1608
24047SOL     OW76987   7.048   3.719   1.698 -0.3734  0.4413  0.0250
24047SOL    HW176988   7.073   3.628   1.711  1.1752  0.6660 -1.0751
24047SOL    HW276989   7.028   3.752   1.785  0.4027 -0.5778  0.6021
24048SOL     OW76990   8.931   2.683   3.706 -0.4869  0.2254 -0.2990
24048SOL    HW176991   8.977   2.686   3.622  0.0745  1.0929  0.0263
24048SOL    HW276992   8.987   2.732   3.766 -1.2720  0.3088  0.3885
24049SOL     OW76993   8.863   9.844   1.500 -0.2451 -0.0815  0.1789
24049SOL    HW176994   8.822   9.921   1.459  0.1450 -0.1184 -0.2966
24049SOL    HW276995   8.955   9.868   1.508  0.1174 -0.9440 -1.0838
24050SOL     OW76996   5.006   2.276   3.689  1.3286  0.2626 -0.4247
24050SOL    HW176997   4.996   2.334   3.764  0.4127  0.9082 -1.0326
24050SOL    HW276998   4.917   2.260   3.659  1.6310 -0.7381 -0.8179
24051SOL     OW76999   0.841   2.978   3.014 -0.0927 -0.4604  0.3878
24051SOL    HW177000   0.926   3.018   3.001 -0.1775 -0.2084  0.6048
24051SOL    HW277001   0.809   2.960   2.926  0.8916 -2.0628  0.3290
24052SOL     OW77002   6.870   0.771   2.747  0.8365  0.5118  0.0361
24052SOL    HW177003   6.936   0.800   2.684  1.0919 -1.7828 -0.8789
24052SOL    HW277004   6.826   0.698   2.704 -0.7246  0.4753  1.5640
24053SOL     OW77005   8.098   3.531   5.742 -0.0521  0.4367  0.3403
24053SOL    HW177006   8.113   3.492   5.828  3.1096  0.2988 -0.1471
24053SOL    HW277007   8.141   3.617   5.748  0.1890  0.4268 -1.0859
24054SOL     OW77008   5.123   2.826   3.433 -0.2316  0.3668  0.1743
24054SOL    HW177009   5.109   2.886   3.360  0.5032 -0.2200 -0.4673
24054SOL    HW277010   5.188   2.870   3.487  0.0695  0.2985 -0.1282
24055SOL     OW77011   0.094   2.464   4.280  0.1107  0.3319  0.1618
24055SOL    HW177012   0.134   2.424   4.358  1.1488  0.9324 -0.0553
24055SOL    HW277013   0.117   2.405   4.208  0.4908  0.6103  0.0566
24056SOL     OW77014   0.130   2.649   3.526 -0.8475  0.1293  0.3313
24056SOL    HW177015   0.207   2.658   3.581  1.1132 -3.7136 -1.4486
24056SOL    HW277016   0.056   2.667   3.585  1.1683  4.5713  1.9539
24057SOL     OW77017   8.714   3.959   5.878 -0.8360 -0.0849  0.4500
24057SOL    HW177018   8.671   3.907   5.810 -1.2092  2.1734 -1.1345
24057SOL    HW277019   8.806   3.933   5.873 -1.2361 -1.6693  0.7629
24058SOL     OW77020   0.032   1.615   5.651 -0.2411 -0.0606  0.2930
24058SOL    HW177021   0.121   1.592   5.627 -0.0742  0.3988  0.4720
24058SOL    HW277022  -0.023   1.553   5.602  0.2518 -2.4398  2.5044
24059SOL     OW77023   8.366   3.646   1.571  0.6080 -0.1234 -0.0196
24059SOL    HW177024   8.455   3.617   1.554  0.9807  0.6856  0.5124
24059SOL    HW277025   8.373   3.703   1.647  0.1483  2.5214 -1.8100
24060SOL     OW77026   5.787   2.376   3.508  0.5117 -0.0322  0.0226
24060SOL    HW177027   5.695   2.405   3.502  0.5525 -0.0911 -1.1297
24060SOL    HW277028   5.798   2.317   3.433  1.3117 -0.5678  0.5465
24061SOL     OW77029   9.193   3.466   1.899  0.3577 -0.2479  0.5186
24061SOL    HW177030   9.277   3.438   1.864  0.6971 -0.3403  1.3855
24061SOL    HW277031   9.214   3.515   1.979 -0.3663  0.3667  0.3513
24062SOL     OW77032   7.672   3.981   1.777 -0.2272 -0.1175  0.3430
24062SOL    HW177033   7.703   3.890   1.775 -3.3055 -1.3817  2.5307
24062SOL    HW277034   7.657   4.003   1.685  0.9610 -1.6740 -0.2622
24063SOL     OW77035   6.818   4.811   3.544  0.5559 -0.7636 -0.1326
24063SOL    HW177036   6.899   4.765   3.522  0.5317  0.0880 -2.2825
24063SOL    HW277037   6.763   4.745   3.586  2.8586 -0.9837  2.8598
24064SOL     OW77038   7.106   2.785   2.852 -0.7528  0.5347 -0.4797
24064SOL    HW177039   7.017   2.783   2.816 -0.5341 -1.7081 -0.9916
24064SOL    HW277040   7.160   2.819   2.781 -0.6660 -1.7710 -1.6050
24065SOL     OW77041   0.613   2.776   2.237  0.3221  0.2425  0.2220
24065SOL    HW177042   0.658   2.693   2.251  0.0757  0.0647 -0.0480
24065SOL    HW277043   0.544   2.757   2.174  0.4197  0.7064 -0.0350
24066SOL     OW77044   1.365   2.689   3.791  0.5549 -0.2488  0.1516
24066SOL    HW177045   1.298   2.725   3.733  1.3904  1.2349  0.0607
24066SOL    HW277046   1.318   2.665   3.870 -0.1853  0.1927 -0.1388
24067SOL     OW77047   8.126   1.597   1.560 -0.3632 -0.3052 -0.0322
24067SOL    HW177048   8.164   1.568   1.643 -2.0678 -1.0521  0.5336
24067SOL    HW277049   8.087   1.518   1.523  0.2131  0.0642 -1.4570
24068SOL     OW77050   7.433   3.036   3.050 -0.3219  0.3718 -0.2183
24068SOL    HW177051   7.525   3.010   3.060 -0.1054  1.4829  0.8911
24068SOL    HW277052   7.410   3.008   2.961  1.0066 -0.1681 -0.4165
24069SOL     OW77053   8.021   1.745   1.050 -0.0068 -0.6987  0.5475
24069SOL    HW177054   8.025   1.664   1.101 -0.7267  0.1302  1.9666
24069SOL    HW277055   7.945   1.792   1.084  0.7460  0.8597  0.1764
24070SOL     OW77056   8.240   3.671   1.867  0.2753  0.0275  0.2754
24070SOL    HW177057   8.232   3.756   1.822 -0.3186  0.9256  1.9766
24070SOL    HW277058   8.334   3.660   1.881  0.2525  1.5763  2.0526
24071SOL     OW77059   7.390   1.608   2.921 -0.5181 -0.2441 -0.6136
24071SOL    HW177060   7.458   1.625   2.855 -0.6915  0.1041 -0.7050
24071SOL    HW277061   7.372   1.514   2.913  0.2238 -0.4129 -0.3245
24072SOL     OW77062   7.576   4.046   3.878  0.5499 -0.0038 -0.0314
24072SOL    HW177063   7.651   4.084   3.923  0.5485  0.2455 -0.2362
24072SOL    HW277064   7.588   4.071   3.786 -0.1484  0.6505  0.0439
24073SOL     OW77065   5.509   2.488   3.462 -0.4615 -0.2545 -0.3932
24073SOL    HW177066   5.462   2.532   3.391 -3.1847 -0.7661  0.9621
24073SOL    HW277067   5.443   2.476   3.531  1.5077 -1.7338  1.3683
24074SOL     OW77068   8.375   2.102   3.218 -0.5320  0.5075 -0.4734
24074SOL    HW177069   8.371   2.162   3.293 -0.4989 -0.1870  0.0932
24074SOL    HW277070   8.328   2.148   3.148  0.0668  1.4889 -0.2622
24075SOL     OW77071   0.199   2.751   1.391 -0.1905 -0.1080 -0.2273
24075SOL    HW177072   0.223   2.727   1.301 -0.0410 -0.5750 -0.0667
24075SOL    HW277073   0.191   2.846   1.389  1.5684  0.0669 -0.3172
24076SOL     OW77074   6.063   5.446   2.664 -0.1278  0.8601 -1.1044
24076SOL    HW177075   6.049   5.482   2.576  0.0773 -2.0739 -2.4249
24076SOL    HW277076   6.146   5.400   2.658 -0.5913 -0.2103  0.3491
24077SOL     OW77077   6.350   1.102   1.953  0.5710  0.1753 -0.3042
24077SOL    HW177078   6.332   1.153   1.874  1.8222 -0.5894 -1.1276
24077SOL    HW277079   6.323   1.013   1.930 -2.7006  0.5422  1.5116
24078SOL     OW77080   4.481   2.876   4.635  0.0875 -0.1266 -0.5756
24078SOL    HW177081   4.474   2.785   4.604 -0.7567 -0.0664 -0.5770
24078SOL    HW277082   4.391   2.903   4.652  0.4636  0.0066  1.4925
24079SOL     OW77083   5.927   3.115   2.381  0.0822  0.2210  0.0279
24079SOL    HW177084   5.926   3.109   2.477 -1.0250  0.3175  0.0350
24079SOL    HW277085   5.985   3.044   2.353  0.9144  0.5768  0.7823
24080SOL     OW77086   6.471   2.986   3.039 -0.6591  0.3702 -0.2449
24080SOL    HW177087   6.433   2.923   2.978  0.4829  0.1630 -0.7717
24080SOL    HW277088   6.564   2.963   3.042 -0.7357  0.1539  1.8608
24081SOL     OW77089   7.548   3.830   4.560 -0.2731  0.2422 -0.1089
24081SOL    HW177090   7.568   3.875   4.642  0.9295 -0.3833 -0.0274
24081SOL    HW277091   7.595   3.881   4.493  1.1167 -0.8339 -0.0128
24082SOL     OW77092   7.113   0.098   4.289 -0.8009 -0.6002 -0.1185
24082SOL    HW177093   7.159   0.015   4.278 -0.4458 -0.7506  2.0753
24082SOL    HW277094   7.117   0.115   4.383  2.2053  3.5846 -0.6994
24083SOL     OW77095   6.646   0.874   6.675  0.5459  0.1769  0.0114
24083SOL    HW177096   6.557   0.852   6.704  1.0889 -0.6271  1.0914
24083SOL    HW277097   6.703   0.815   6.724  1.7623  1.4424  0.1754
24084SOL     OW77098   9.603   4.231   5.168  0.3378  0.1468  0.3463
24084SOL    HW177099   9.680   4.220   5.224  0.6853  1.4729  0.1564
24084SOL    HW277100   9.538   4.273   5.224 -0.1348 -0.6569  0.4077
24085SOL     OW77101   8.757   3.184   4.043 -0.3918 -0.2805 -0.4372
24085SOL    HW177102   8.736   3.261   4.097  0.4404  1.2759 -2.2121
24085SOL    HW277103   8.696   3.117   4.073  0.2997  0.3215  2.6966
24086SOL     OW77104   8.140   1.766   4.333  1.0360  0.4537 -0.4038
24086SOL    HW177105   8.099   1.753   4.248 -1.7637 -1.2165  1.0490
24086SOL    HW277106   8.108   1.852   4.362 -0.3119 -0.1565  0.0387
24087SOL     OW77107   7.864   3.795   4.691  0.2922 -0.1753 -0.1124
24087SOL    HW177108   7.851   3.701   4.704  0.7905 -0.1987  0.2155
24087SOL    HW277109   7.796   3.819   4.627 -1.0019 -0.4018  1.1117
24088SOL     OW77110   8.816   2.443   2.789 -0.4515  0.1882 -0.7181
24088SOL    HW177111   8.768   2.417   2.867 -0.1221  0.0451 -0.5650
24088SOL    HW277112   8.757   2.504   2.744 -0.7014  0.1532 -0.4374
24089SOL     OW77113   6.628   3.109   4.586 -0.5137  0.1939  0.6942
24089SOL    HW177114   6.651   3.021   4.558 -0.7164  1.0466 -2.5618
24089SOL    HW277115   6.669   3.119   4.672  1.0806 -2.4024  0.3139
24090SOL     OW77116   6.846   6.893   5.415  0.3227  0.0302 -0.2254
24090SOL    HW177117   6.836   6.811   5.463  0.1379  1.3302  2.1563
24090SOL    HW277118   6.764   6.940   5.431  0.7866  1.0500 -0.7628
24091SOL     OW77119   0.933   3.047   5.728  0.1494  0.7024 -0.6660
24091SOL    HW177120   0.962   2.960   5.754 -0.3990 -0.1110 -2.5708
24091SOL    HW277121   1.012   3.101   5.729  0.3520  0.4480  1.3583
24092SOL     OW77122   6.814   1.506   5.100 -0.4505 -0.1803 -0.0761
24092SOL    HW177123   6.815   1.475   5.191 -0.8693  1.1060  0.3891
24092SOL    HW277124   6.881   1.454   5.056 -0.3938 -0.9743  0.9152
24093SOL     OW77125   8.438   3.210   2.519  0.6645  0.3586  0.3037
24093SOL    HW177126   8.524   3.237   2.550  0.6175 -0.3718  1.1128
24093SOL    HW277127   8.442   3.114   2.517 -0.3779  0.2802  1.1098
24094SOL     OW77128   8.495   3.279   5.483 -0.5771 -0.4377  0.1450
24094SOL    HW177129   8.454   3.328   5.554 -3.1431 -1.1977 -0.7338
24094SOL    HW277130   8.576   3.244   5.522 -1.4547 -0.0901  2.4030
24095SOL     OW77131   7.729   3.334   4.979 -0.1901  0.4421 -0.3986
24095SOL    HW177132   7.718   3.240   4.993 -1.4538  0.8068  1.5404
24095SOL    HW277133   7.806   3.358   5.031 -0.4988  0.6329 -0.0212
24096SOL     OW77134   5.219   2.386   3.544 -0.2174  0.5253  0.0255
24096SOL    HW177135   5.150   2.362   3.606 -0.3033  0.2446 -0.1749
24096SOL    HW277136   5.176   2.446   3.483  0.1353  1.6484  0.8409
24097SOL     OW77137   7.539   4.565   3.694  0.1357  1.0331 -0.0503
24097SOL    HW177138   7.519   4.630   3.761  0.8284  0.6468  0.5459
24097SOL    HW277139   7.558   4.485   3.743 -0.3355  0.4746 -0.7567
24098SOL     OW77140   8.541   3.456   1.960 -0.1437 -0.0670 -0.6839
24098SOL    HW177141   8.516   3.407   2.039  1.0001 -0.6655 -0.6715
24098SOL    HW277142   8.608   3.401   1.918 -0.6754  0.2797 -2.0330
24099SOL     OW77143   7.526   2.644   6.424  0.3538 -0.5894 -0.1871
24099SOL    HW177144   7.594   2.660   6.489  0.5527 -4.1893  0.6908
24099SOL    HW277145   7.569   2.660   6.340  0.7834  1.8339  0.4157
24100SOL     OW77146   5.589   4.150   3.496 -0.4904  0.1244 -0.7939
24100SOL    HW177147   5.657   4.210   3.525  0.1506  0.1560 -2.2884
24100SOL    HW277148   5.583   4.085   3.567 -0.9470  1.6826  0.6748
24101SOL     OW77149   0.167   3.571   4.405  0.2410 -0.0901 -0.1100
24101SOL    HW177150   0.078   3.595   4.378  0.6130  1.3875 -0.0785
24101SOL    HW277151   0.165   3.577   4.500 -0.2077 -2.2683  0.0829
24102SOL     OW77152   5.814   2.641   3.229 -0.3749  0.3965  0.2183
24102SOL    HW177153   5.902   2.608   3.211 -0.2594  0.9451 -0.2494
24102SOL    HW277154   5.828   2.728   3.268 -0.7239  1.0831 -1.1156
24103SOL     OW77155   9.487   2.058   6.728 -0.6810 -0.2093  0.1837
24103SOL    HW177156   9.567   2.057   6.677 -1.9787 -0.2422 -1.9722
24103SOL    HW277157   9.441   2.137   6.699 -2.9668 -1.9469 -1.2830
24104SOL     OW77158   7.506   1.693   4.758  0.3240  0.0817 -0.8291
24104SOL    HW177159   7.596   1.680   4.727  1.0995  1.7137  0.5615
24104SOL    HW277160   7.456   1.712   4.679  1.7843  1.9291 -1.3723
24105SOL     OW77161   3.610   3.415   4.545 -0.3421  0.0922 -0.2947
24105SOL    HW177162   3.537   3.444   4.490 -0.5635  0.6245  0.2612
24105SOL    HW277163   3.612   3.320   4.535  0.4822  0.2523 -2.2748
24106SOL     OW77164   6.362   0.929   4.155 -0.1701  0.1535  0.0420
24106SOL    HW177165   6.342   0.855   4.098 -0.0589 -0.3122  0.6006
24106SOL    HW277166   6.277   0.952   4.194  0.0455 -0.6910  1.0598
24107SOL     OW77167   9.337   5.083   4.896  1.1300  0.0785  0.0754
24107SOL    HW177168   9.372   5.039   4.819  1.7585  1.0376 -0.2100
24107SOL    HW277169   9.413   5.101   4.951  1.0792  1.8118 -0.3582
24108SOL     OW77170   8.062   1.314   3.221 -0.2261 -0.0733 -0.1204
24108SOL    HW177171   8.057   1.365   3.302 -1.8401 -1.8676  0.9876
24108SOL    HW277172   8.153   1.284   3.217 -0.0390  0.3546  0.8040
24109SOL     OW77173   8.854   2.666   4.625 -0.5440  0.1039 -0.2241
24109SOL    HW177174   8.923   2.652   4.689  0.1961  1.2902 -0.7285
24109SOL    HW277175   8.832   2.578   4.594  0.1662 -0.3519  0.5321
24110SOL     OW77176   7.643   3.089   3.684  0.3332  0.1539 -0.3771
24110SOL    HW177177   7.653   3.069   3.777 -0.0778  0.0033 -0.3644
24110SOL    HW277178   7.631   3.003   3.643 -1.6713  0.3445 -0.2932
24111SOL     OW77179   8.512   3.950   5.589  0.2331  0.0523  0.0183
24111SOL    HW177180   8.463   3.893   5.649 -0.5285  1.5820  0.9206
24111SOL    HW277181   8.444   4.000   5.543  0.8809  1.1885  0.2564
24112SOL     OW77182   7.938   2.067   2.568 -0.6249  0.4737 -0.4915
24112SOL    HW177183   7.845   2.075   2.544 -0.6013  0.3335 -0.6246
24112SOL    HW277184   7.982   2.130   2.511 -0.2843 -1.4253 -2.4092
24113SOL     OW77185   7.891   4.471   7.242  0.1134  0.1126  0.2313
24113SOL    HW177186   7.923   4.384   7.264 -2.0693 -1.4942 -2.3533
24113SOL    HW277187   7.961   4.510   7.190  0.5814 -0.6041  0.3048
24114SOL     OW77188   8.890   3.406   2.432 -0.3131  0.0151 -0.4196
24114SOL    HW177189   8.840   3.325   2.440  1.5971 -1.1243  0.7034
24114SOL    HW277190   8.970   3.381   2.385  0.8722  0.9449  1.0078
24115SOL     OW77191   8.193   2.679   4.100 -0.3910  0.3683  0.2919
24115SOL    HW177192   8.205   2.597   4.052 -0.6483 -0.2054  1.1805
24115SOL    HW277193   8.120   2.661   4.159 -2.0713  2.0056 -1.1751
24116SOL     OW77194   0.813   3.195   3.959  0.5419 -0.0194  0.1087
24116SOL    HW177195   0.779   3.108   3.937  0.3085  0.1457 -0.1985
24116SOL    HW277196   0.779   3.212   4.046 -0.0689  0.0883 -0.1433
24117SOL     OW77197   7.633   3.065   7.643 -0.1737  0.4004  0.0093
24117SOL    HW177198   7.670   3.153   7.650  0.9736 -0.1357  0.8483
24117SOL    HW277199   7.552   3.078   7.592  0.9664  1.6364 -1.6042
24118SOL     OW77200   0.100   0.994   5.290  0.4352 -0.4510 -0.2931
24118SOL    HW177201   0.140   1.026   5.209 -2.3265 -1.0496 -2.0172
24118SOL    HW277202   0.155   0.921   5.317  1.0585 -0.6450 -2.0057
24119SOL     OW77203   6.265   1.926   5.981  0.0079  0.4121  0.2391
24119SOL    HW177204   6.221   1.952   5.900 -0.2845 -0.5696  0.0778
24119SOL    HW277205   6.282   1.833   5.971  0.5944  0.4197  1.0232
24120SOL     OW77206   9.736   3.322   4.964  0.0585 -0.8305 -0.4041
24120SOL    HW177207   9.752   3.230   4.940 -0.3074 -0.2182 -3.3129
24120SOL    HW277208   9.661   3.348   4.910  0.5182  1.3462 -0.0573
24121SOL     OW77209   7.360   2.331   4.805 -0.2039 -0.0535 -0.3882
24121SOL    HW177210   7.347   2.324   4.711  0.9119 -0.5213 -0.5159
24121SOL    HW277211   7.437   2.385   4.816  0.3665 -0.9508  0.2101
24122SOL     OW77212   7.954   3.244   5.121  0.0504  0.0418  0.3696
24122SOL    HW177213   7.983   3.333   5.141  0.2803  1.0882 -3.6928
24122SOL    HW277214   8.032   3.191   5.131  0.2938  0.5527  1.3309
24123SOL     OW77215   6.171   2.609   2.770  0.1591 -0.2204  0.5855
24123SOL    HW177216   6.215   2.528   2.743  0.1737  0.4264 -1.5600
24123SOL    HW277217   6.078   2.591   2.757  0.0908 -0.1870  1.0117
24124SOL     OW77218   7.354   3.301   3.883 -0.5027 -0.2118  0.5304
24124SOL    HW177219   7.329   3.393   3.884  1.4820  0.3869  0.5367
24124SOL    HW277220   7.346   3.272   3.974 -0.7548  0.0738  0.5976
24125SOL     OW77221   8.318   2.582   4.396 -0.7895  0.8364  0.1311
24125SOL    HW177222   8.392   2.557   4.340  0.6296  1.2609  1.7468
24125SOL    HW277223   8.311   2.677   4.386  0.1499  1.0637  1.4278
24126SOL     OW77224   8.679   3.272   2.613  0.1471 -0.0608 -0.0481
24126SOL    HW177225   8.635   3.289   2.697  0.1614 -1.2367  0.2060
24126SOL    HW277226   8.767   3.241   2.638 -0.0557 -0.9974 -0.4798
24127SOL     OW77227   6.458   4.967   4.882  0.4706  0.4305  0.1126
24127SOL    HW177228   6.518   4.901   4.848  1.5367  1.1521  0.5455
24127SOL    HW277229   6.377   4.953   4.833  1.3011  0.0997 -1.2174
24128SOL     OW77230   7.977   4.045   4.713 -0.1214  0.2450 -0.0116
24128SOL    HW177231   7.913   3.975   4.700 -0.4016  0.7861 -1.8598
24128SOL    HW277232   8.005   4.035   4.804 -0.2794 -2.1508 -0.1498
24129SOL     OW77233   6.593   2.598   6.202  0.4176 -0.1589  0.0422
24129SOL    HW177234   6.644   2.659   6.148 -0.8524  1.0379  0.1227
24129SOL    HW277235   6.654   2.569   6.270  0.9398  1.4216  0.2916
24130SOL     OW77236   8.883   1.396   2.997  0.0369 -0.4498  0.4358
24130SOL    HW177237   8.870   1.340   2.920  1.3194  0.5222 -0.5133
24130SOL    HW277238   8.964   1.444   2.979 -1.2774  2.1440  0.9393
24131SOL     OW77239   8.604   2.348   5.927  0.0670  0.0261 -0.3498
24131SOL    HW177240   8.589   2.424   5.871 -0.6485  0.6842  0.6989
24131SOL    HW277241   8.545   2.281   5.892 -0.2872  0.3906 -0.4591
24132SOL     OW77242   9.641   2.354   6.023  0.2337  0.1584  0.0832
24132SOL    HW177243   9.596   2.350   6.107  0.1343  1.7043  0.1355
24132SOL    HW277244   9.675   2.266   6.010  0.7913  0.0182  2.0487
24133SOL     OW77245   0.485   4.081   5.153 -0.3981  0.1186  0.1171
24133SOL    HW177246   0.531   4.004   5.119 -0.4390  0.5697 -1.0072
24133SOL    HW277247   0.452   4.054   5.238  1.9588 -0.2163  0.9733
24134SOL     OW77248   8.808   2.494   6.730  0.3837  0.2691 -0.2612
24134SOL    HW177249   8.787   2.466   6.641 -0.3225 -2.7004  0.6962
24134SOL    HW277250   8.903   2.484   6.736  0.5463  1.2809 -0.8781
24135SOL     OW77251   8.804   4.598   3.619  0.8759 -0.2284 -0.1868
24135SOL    HW177252   8.835   4.547   3.693  0.8771  0.9099  0.6325
24135SOL    HW277253   8.871   4.666   3.608  1.3291 -0.8972 -1.8099
24136SOL     OW77254   6.599   4.351   4.838  0.3672  0.2175  0.1006
24136SOL    HW177255   6.535   4.354   4.908 -0.3537 -0.2111 -0.5239
24136SOL    HW277256   6.680   4.324   4.880  0.0067  0.2226  0.8062
24137SOL     OW77257   9.079   1.381   5.218 -0.1429  0.3415 -0.2410
24137SOL    HW177258   9.172   1.364   5.236 -0.4506 -1.8635 -0.3806
24137SOL    HW277259   9.046   1.421   5.299  0.6772  0.0273  0.2625
24138SOL     OW77260   9.356   5.770   5.383  0.5986  0.1338  0.3169
24138SOL    HW177261   9.400   5.743   5.463 -2.7301  0.0924  2.3423
24138SOL    HW277262   9.330   5.688   5.342  0.1852  0.1582  0.5230
24139SOL     OW77263   9.521   0.684   5.300 -0.0487  0.4530 -0.2514
24139SOL    HW177264   9.577   0.701   5.376  0.1558  0.9657 -0.5184
24139SOL    HW277265   9.466   0.610   5.328 -0.2726  0.9114  0.5533
24140SOL     OW77266   0.034   2.788   6.005 -0.3548  0.3789 -0.2410
24140SOL    HW177267   0.110   2.731   5.993 -0.1906  0.7334 -0.9226
24140SOL    HW277268  -0.036   2.730   6.034  0.1827  0.0524  0.4146
24141SOL     OW77269   8.831   3.502   6.155 -0.2745  0.4579  0.2263
24141SOL    HW177270   8.850   3.547   6.072  1.6222  0.1665  0.4411
24141SOL    HW277271   8.882   3.421   6.150  0.9727  1.0570  2.1941
24142SOL     OW77272   0.245   0.578   6.768 -0.0976  1.1920 -0.3737
24142SOL    HW177273   0.260   0.531   6.851 -0.4631  0.3239 -0.7836
24142SOL    HW277274   0.288   0.663   6.781 -1.0835  1.5017  1.1045
24143SOL     OW77275   7.042   1.989   3.275  0.0457  0.3226  0.0620
24143SOL    HW177276   7.103   1.924   3.311  0.5064  1.6360  1.7739
24143SOL    HW277277   7.074   2.073   3.309 -2.1643  1.1466  0.2440
24144SOL     OW77278   8.620   3.935   4.794  0.2226 -0.2704 -0.0251
24144SOL    HW177279   8.596   3.879   4.867 -1.9923 -1.6417 -1.6848
24144SOL    HW277280   8.708   3.966   4.816  0.8778 -3.0186  1.8025
24145SOL     OW77281   7.742   1.809   4.604 -0.1342  0.6144 -0.3675
24145SOL    HW177282   7.826   1.856   4.607 -0.5520  1.3341  0.7298
24145SOL    HW277283   7.693   1.842   4.679 -0.6903 -1.1550  0.1075
24146SOL     OW77284   8.697   2.930   2.745 -0.2753  0.2470  0.6697
24146SOL    HW177285   8.773   2.963   2.697 -0.0396 -1.2624 -0.0757
24146SOL    HW277286   8.690   2.986   2.821  0.2671  1.7893 -0.3667
24147SOL     OW77287   6.018   3.111   4.148 -0.3467 -0.2369 -0.3649
24147SOL    HW177288   5.984   3.138   4.234 -1.5324 -3.2229  0.2390
24147SOL    HW277289   6.096   3.060   4.169  0.0926  0.0953 -1.1752
24148SOL     OW77290   0.101   4.226   5.101  0.5612 -0.0401  0.4675
24148SOL    HW177291   0.150   4.265   5.174  2.0729  0.1229 -0.5827
24148SOL    HW277292   0.067   4.301   5.052  0.9055 -0.0920  0.1381
24149SOL     OW77293   6.989   5.462   8.181 -0.4531 -0.5725  0.6711
24149SOL    HW177294   7.079   5.446   8.154 -1.2238 -0.6623 -2.2263
24149SOL    HW277295   6.996   5.508   8.265  2.2824  0.1105  0.1618
24150SOL     OW77296   8.912   2.498   3.357 -0.1021 -0.1417 -0.1858
24150SOL    HW177297   8.953   2.558   3.419 -0.3090 -0.0747 -0.1133
24150SOL    HW277298   8.978   2.485   3.289 -0.8065  1.8626 -1.3322
24151SOL     OW77299   7.613   1.796   4.272 -0.8542 -0.0533 -0.5760
24151SOL    HW177300   7.560   1.851   4.328 -0.2240 -0.1482  0.1257
24151SOL    HW277301   7.667   1.745   4.332 -0.8796 -0.8812 -1.2349
24152SOL     OW77302   8.649   3.296   4.599  0.1459 -0.4646  0.1885
24152SOL    HW177303   8.674   3.236   4.528 -2.2747  0.6918 -1.8033
24152SOL    HW277304   8.720   3.359   4.603  0.5521 -0.8171 -0.9386
24153SOL     OW77305   1.075   4.675   3.616 -0.1098  0.4111 -0.3604
24153SOL    HW177306   1.117   4.679   3.530  1.0728  0.4779  0.2010
24153SOL    HW277307   1.089   4.586   3.646 -1.1509  0.1749 -0.5181
24154SOL     OW77308   8.839   3.141   5.296  0.6229  0.2638  0.3851
24154SOL    HW177309   8.932   3.132   5.275  0.4081 -1.5789  0.0772
24154SOL    HW277310   8.814   3.056   5.332 -0.9637  0.7221  0.4525
24155SOL     OW77311   0.465   4.122   2.311 -0.3510 -0.2436  0.2553
24155SOL    HW177312   0.463   4.037   2.267 -2.2070 -0.0938 -0.0317
24155SOL    HW277313   0.496   4.102   2.399  0.2714 -1.0425 -0.1226
24156SOL     OW77314   8.797   2.974   5.786  0.2656  0.0421 -0.6159
24156SOL    HW177315   8.708   2.963   5.820  0.8083  1.9391  1.6572
24156SOL    HW277316   8.816   3.067   5.798  3.1517 -0.6050  0.5952
24157SOL     OW77317   8.113   4.614   4.622 -0.3213 -0.0194 -0.5327
24157SOL    HW177318   8.160   4.635   4.542  1.3947  1.9561  0.9011
24157SOL    HW277319   8.179   4.619   4.691 -1.7562 -1.5399  1.0566
24158SOL     OW77320   1.186   4.652   6.108 -0.6600 -0.0068 -0.0977
24158SOL    HW177321   1.250   4.711   6.148 -0.2190 -0.3804 -0.2437
24158SOL    HW277322   1.172   4.584   6.175 -1.2522  0.3220  0.1158
24159SOL     OW77323   6.806   1.676   5.645 -0.0390  0.0948  0.8183
24159SOL    HW177324   6.901   1.678   5.629 -0.1901 -1.1706 -0.3330
24159SOL    HW277325   6.799   1.675   5.741  1.1900 -1.5826  0.9343
24160SOL     OW77326   6.356   5.020   5.412  0.0259 -0.2753 -0.2496
24160SOL    HW177327   6.269   5.042   5.380  0.1465 -0.8598 -1.0278
24160SOL    HW277328   6.400   4.982   5.336  1.2983  0.9171 -0.1534
24161SOL     OW77329   9.133   3.586   3.246 -0.0639  0.2484 -0.1202
24161SOL    HW177330   9.097   3.563   3.332 -1.6903 -0.3540 -0.9268
24161SOL    HW277331   9.059   3.622   3.198  1.0537  1.4997 -0.9711
24162SOL     OW77332   9.341   2.414   5.330 -0.3455 -0.0621 -0.6016
24162SOL    HW177333   9.385   2.329   5.333  1.3267  0.6848 -2.0595
24162SOL    HW277334   9.362   2.449   5.243 -1.3470  1.6658 -0.2026
24163SOL     OW77335   0.169   0.777   4.488  0.1788 -0.2541  0.2018
24163SOL    HW177336   0.126   0.846   4.537 -0.3829 -1.5917  1.6955
24163SOL    HW277337   0.129   0.781   4.401 -0.9436  0.3200  0.7224
24164SOL     OW77338   8.550   2.611   2.868  0.7393  0.4619 -0.2301
24164SOL    HW177339   8.556   2.520   2.900 -2.1174 -0.9433 -3.1493
24164SOL    HW277340   8.479   2.650   2.920 -0.7237 -0.3323 -1.5454
24165SOL     OW77341   8.832   4.406   4.118  0.2700  0.4500  1.0446
24165SOL    HW177342   8.739   4.425   4.120  0.3452  0.8024  2.3273
24165SOL    HW277343   8.837   4.314   4.094 -0.3306  0.7494 -0.3153
24166SOL     OW77344   8.157   2.186   9.034  0.7537 -0.0734 -0.0979
24166SOL    HW177345   8.134   2.180   8.942 -1.9294  1.1420  0.4006
24166SOL    HW277346   8.253   2.194   9.035  0.7173  2.8833 -2.9991
24167SOL     OW77347   8.964   0.755   4.141  0.2129  0.0797  0.1513
24167SOL    HW177348   9.034   0.820   4.138  0.3571 -0.0947 -0.2315
24167SOL    HW277349   9.009   0.671   4.149  0.0860 -0.0986 -0.8465
24168SOL     OW77350   7.721   2.347   5.460 -0.7506  0.4856  0.6760
24168SOL    HW177351   7.698   2.281   5.525 -0.2368  0.2872  0.6542
24168SOL    HW277352   7.750   2.422   5.512 -1.3419  0.7082  0.7009
24169SOL     OW77353   5.637   4.984   2.732 -0.0752 -0.3094  0.2619
24169SOL    HW177354   5.657   5.056   2.791  0.6699 -0.4083  0.1409
24169SOL    HW277355   5.622   4.909   2.789  2.1864 -0.7902  0.3285
24170SOL     OW77356   7.402   1.326   3.661  0.0088 -0.1975  0.0884
24170SOL    HW177357   7.480   1.351   3.711  0.0286  0.8341 -0.4308
24170SOL    HW277358   7.329   1.361   3.712  0.0328  0.9047 -0.6210
24171SOL     OW77359   9.706   3.219   5.827 -0.3661  0.2413 -0.0623
24171SOL    HW177360   9.796   3.220   5.860 -0.4010  0.6513  0.0280
24171SOL    HW277361   9.681   3.312   5.822 -1.5636  0.1301  2.1154
24172SOL     OW77362   8.990   5.387   4.251  0.2123  0.5776 -0.3981
24172SOL    HW177363   8.895   5.395   4.243 -0.0346 -0.8629  0.7190
24172SOL    HW277364   9.014   5.321   4.185  0.7983  2.5547 -2.2790
24173SOL     OW77365   9.489   4.233   6.942  0.2079 -0.3511  0.2510
24173SOL    HW177366   9.487   4.268   7.031 -0.6283  1.7628 -0.5395
24173SOL    HW277367   9.467   4.140   6.953 -0.9179  0.0752  2.1593
24174SOL     OW77368   6.528   3.534   5.110 -0.0515 -0.3807 -0.4328
24174SOL    HW177369   6.461   3.487   5.061 -2.1383  1.5980  0.3732
24174SOL    HW277370   6.587   3.569   5.043 -2.0774  1.1292 -1.5298
24175SOL     OW77371   9.309   2.263   6.626  0.3059  0.5487  0.2485
24175SOL    HW177372   9.231   2.225   6.586  0.4285 -0.3104  0.8006
24175SOL    HW277373   9.371   2.275   6.554  0.6355 -1.2503  0.2030
24176SOL     OW77374   0.185   0.558   7.213 -0.2928 -0.3614 -0.0992
24176SOL    HW177375   0.187   0.636   7.270  0.5182 -1.3801  1.3449
24176SOL    HW277376   0.109   0.572   7.156 -1.1924  0.7105  1.2736
24177SOL     OW77377   9.792   0.640   5.030 -0.1234 -0.5300 -0.1923
24177SOL    HW177378   9.782   0.554   4.988 -2.0017 -0.3127 -0.2792
24177SOL    HW277379   9.851   0.688   4.972 -0.7349 -1.0640 -1.2919
24178SOL     OW77380   6.664   3.595   3.282  0.4388 -0.3857  0.1397
24178SOL    HW177381   6.629   3.518   3.327  1.8678 -0.9435  0.3727
24178SOL    HW277382   6.603   3.665   3.302 -0.3830 -1.2442  0.7243
24179SOL     OW77383   0.296   2.737   3.722  0.4942  0.0487 -0.1742
24179SOL    HW177384   0.270   2.713   3.811  1.0185 -0.5433 -0.1728
24179SOL    HW277385   0.358   2.669   3.696  1.7035  1.1698 -0.3310
24180SOL     OW77386   8.621   2.934   4.808 -0.2057 -0.4758  0.0148
24180SOL    HW177387   8.681   2.975   4.871  2.3721 -2.0432 -1.2536
24180SOL    HW277388   8.629   2.841   4.825 -1.0451 -0.8091 -1.3231
24181SOL     OW77389   6.057   1.182   2.208  0.2755  0.1827  0.0377
24181SOL    HW177390   5.968   1.148   2.219  0.5617 -0.5932  0.0410
24181SOL    HW277391   6.114   1.107   2.228  0.9174  0.4750 -0.6309
24182SOL     OW77392   7.376   1.002   3.354 -0.0620 -0.2719 -0.2611
24182SOL    HW177393   7.377   1.001   3.450 -1.0099 -2.2248 -0.2077
24182SOL    HW277394   7.288   1.029   3.331  0.6565  1.9190 -0.6783
24183SOL     OW77395   8.284   4.437   6.837  0.0032  0.6286 -0.1278
24183SOL    HW177396   8.332   4.398   6.910 -0.0352  0.6954 -0.0669
24183SOL    HW277397   8.242   4.363   6.793  0.7427  0.4929 -0.6117
24184SOL     OW77398   5.778   4.043   4.944 -1.0169 -0.3570  0.5443
24184SOL    HW177399   5.702   3.986   4.935 -0.5614 -0.6327 -2.7679
24184SOL    HW277400   5.838   3.995   5.002 -1.9168 -1.7813  0.3326
24185SOL     OW77401   0.349   1.928   6.950 -0.4083  0.4926  0.5134
24185SOL    HW177402   0.391   1.866   6.890  0.3652 -1.2297  2.6944
24185SOL    HW277403   0.268   1.954   6.905 -0.0615 -1.0131 -1.0814
24186SOL     OW77404   7.307   3.219   4.940 -0.0981 -0.3095  0.0122
24186SOL    HW177405   7.376   3.173   4.892 -0.0895 -0.5815  0.2872
24186SOL    HW277406   7.352   3.261   5.013  0.1395  1.3073 -0.9943
24187SOL     OW77407   7.561   3.993   5.021 -0.7908  0.5897  0.4099
24187SOL    HW177408   7.498   3.924   5.002  0.1180  0.0066 -0.5836
24187SOL    HW277409   7.627   3.950   5.076  1.1306 -0.1092 -2.2522
24188SOL     OW77410   0.016   3.678   5.979  0.1477  0.0297  0.1339
24188SOL    HW177411   0.070   3.753   5.956 -1.0040  1.0142  0.5556
24188SOL    HW277412  -0.063   3.715   6.019 -1.5137 -1.2593 -1.7149
24189SOL     OW77413   8.245   3.705   5.494  0.2818  0.1946 -0.0736
24189SOL    HW177414   8.222   3.745   5.578 -1.8704 -0.7509 -0.1378
24189SOL    HW277415   8.340   3.714   5.488  0.3175  1.6444  1.7424
24190SOL     OW77416   9.040   1.194   4.795 -0.4537  0.5116  0.6957
24190SOL    HW177417   9.081   1.118   4.837 -0.0279  0.7877  0.7844
24190SOL    HW277418   9.013   1.250   4.868 -0.5689  0.5470  0.6262
24191SOL     OW77419   5.345   1.226   6.554 -0.0231 -0.1327 -0.7687
24191SOL    HW177420   5.315   1.211   6.464 -0.8830 -0.3622 -0.4531
24191SOL    HW277421   5.281   1.287   6.591 -0.5677 -1.2379  0.1634
24192SOL     OW77422   6.196   2.256   5.667  0.1392 -0.1932  0.1721
24192SOL    HW177423   6.222   2.307   5.590  1.4905 -0.8762  0.1478
24192SOL    HW277424   6.103   2.237   5.652  0.0968  0.6128 -0.7434
24193SOL     OW77425   8.013   8.600   5.809  0.4392  0.2126  0.1688
24193SOL    HW177426   8.036   8.632   5.896 -0.7936  0.5102  0.4031
24193SOL    HW277427   7.927   8.638   5.791  1.0706  0.9380 -1.5853
24194SOL     OW77428   6.602   4.302   3.943 -0.2852  0.3503  0.5172
24194SOL    HW177429   6.678   4.351   3.914 -0.5315 -0.0626 -0.8867
24194SOL    HW277430   6.615   4.214   3.908 -0.7666 -0.0779  1.3944
24195SOL     OW77431   3.172   2.265   4.891 -0.2529 -0.1420  0.0338
24195SOL    HW177432   3.116   2.238   4.964 -1.4590  0.0328 -0.8044
24195SOL    HW277433   3.119   2.250   4.813  1.0171 -0.3186 -0.8206
24196SOL     OW77434   8.686   3.596   2.297 -0.1598  0.5491 -0.0731
24196SOL    HW177435   8.730   3.551   2.369  1.3910  1.7427 -0.2162
24196SOL    HW277436   8.754   3.610   2.232 -1.1347  1.0636 -1.0275
24197SOL     OW77437   8.437   4.990   3.949 -0.0808  0.0426 -0.6419
24197SOL    HW177438   8.384   4.927   3.900  0.3949  0.9443 -2.3703
24197SOL    HW277439   8.470   5.051   3.883  0.2145  1.5840  0.8625
24198SOL     OW77440   6.814   9.640   4.355  0.4812 -0.5690  0.1715
24198SOL    HW177441   6.861   9.671   4.433  0.4182 -0.2415  0.0811
24198SOL    HW277442   6.761   9.715   4.328  0.5699 -0.6518 -0.2392
24199SOL     OW77443   6.667   1.155   7.097  0.0063  0.0059  0.1770
24199SOL    HW177444   6.716   1.180   7.175 -0.0106  0.9172 -0.0799
24199SOL    HW277445   6.577   1.181   7.117 -0.4977 -2.1256  0.8474
24200SOL     OW77446   9.794   1.376   5.575 -0.2405  0.1450 -0.4468
24200SOL    HW177447   9.777   1.357   5.667 -1.7837 -0.5945 -0.8413
24200SOL    HW277448   9.797   1.289   5.533 -1.9358  0.5203 -1.4399
24201SOL     OW77449   8.914   2.457   5.760 -0.0934 -0.0703  0.6464
24201SOL    HW177450   8.959   2.509   5.694 -0.2631  0.2375  0.7692
24201SOL    HW277451   8.918   2.367   5.728  0.3174  0.0022  0.4955
24202SOL     OW77452   8.082   2.283   6.642 -0.3798 -0.4649 -0.0647
24202SOL    HW177453   8.012   2.278   6.707 -0.9514  0.4591 -0.5886
24202SOL    HW277454   8.163   2.280   6.693 -0.7980 -1.0346  0.5854
24203SOL     OW77455   8.801   2.753   7.171 -0.6287 -0.0922  0.1319
24203SOL    HW177456   8.864   2.689   7.138 -1.1940 -0.6797  0.1667
24203SOL    HW277457   8.811   2.750   7.266 -0.0092  0.5572  0.1005
24204SOL     OW77458   9.570   1.483   4.160  0.0104  0.3751  0.5160
24204SOL    HW177459   9.559   1.441   4.245 -0.4146 -0.5953 -0.0068
24204SOL    HW277460   9.535   1.572   4.174  2.4533  1.1863  2.0756
24205SOL     OW77461   6.892   2.966   4.373  0.1065  0.2069 -1.1777
24205SOL    HW177462   6.899   2.939   4.281 -1.3947  2.4246 -2.0449
24205SOL    HW277463   6.806   2.933   4.400  0.6206 -0.5910 -0.4958
24206SOL     OW77464   8.753   3.834   5.550  0.5862  0.0596  0.1252
24206SOL    HW177465   8.678   3.888   5.576 -0.3766 -2.0883  2.2078
24206SOL    HW277466   8.829   3.891   5.559 -0.4713  1.3305  1.3699
24207SOL     OW77467   0.417   2.826   3.359  0.1795  0.0177  0.4131
24207SOL    HW177468   0.503   2.868   3.364  0.5950 -0.9498  1.9343
24207SOL    HW277469   0.435   2.732   3.362 -0.8546 -0.2611 -0.9641
24208SOL     OW77470   8.456   3.589   4.672  0.1063 -0.3174  0.4403
24208SOL    HW177471   8.541   3.632   4.668 -0.7573  1.6840  1.5288
24208SOL    HW277472   8.398   3.646   4.621 -0.9264 -0.6209  1.2362
24209SOL     OW77473   0.426   6.102   5.273 -0.6014 -0.3155  0.4852
24209SOL    HW177474   0.354   6.151   5.233  0.6961  0.4128 -1.1554
24209SOL    HW277475   0.413   6.012   5.245 -2.2527 -0.7212  2.3737
24210SOL     OW77476   5.893   3.390   4.579 -0.1852  0.4713 -0.4073
24210SOL    HW177477   5.805   3.397   4.617 -0.3201 -0.1863 -0.5881
24210SOL    HW277478   5.952   3.389   4.654 -0.5697 -3.1909  0.0340
24211SOL     OW77479   9.744   3.297   5.519  0.3532  0.3107 -0.0033
24211SOL    HW177480   9.664   3.307   5.570 -0.1293  0.0088 -0.6986
24211SOL    HW277481   9.733   3.355   5.444  1.2630  1.1053  0.4615
24212SOL     OW77482   0.648   2.464   2.921 -0.6604  0.3296 -0.1689
24212SOL    HW177483   0.673   2.380   2.881  1.3225  0.6092  0.3588
24212SOL    HW277484   0.607   2.439   3.004 -0.7813 -0.1263 -0.3608
24213SOL     OW77485   9.536   3.392   5.641 -0.3571 -0.0844 -0.1074
24213SOL    HW177486   9.442   3.379   5.656 -0.8765  2.3738 -0.7205
24213SOL    HW277487   9.562   3.458   5.707  0.5695  0.3671 -0.8962
24214SOL     OW77488   6.646   3.181   6.513 -0.2611  0.1806 -0.1624
24214SOL    HW177489   6.682   3.257   6.467 -1.0801  0.6791  0.0064
24214SOL    HW277490   6.556   3.206   6.535 -0.5334 -0.8269 -0.0738
24215SOL     OW77491   8.365   4.376   3.168 -0.0947 -0.3900  0.0739
24215SOL    HW177492   8.278   4.351   3.135 -0.0739 -1.6460  0.9050
24215SOL    HW277493   8.412   4.293   3.175  0.1632 -0.1076  2.5000
24216SOL     OW77494   7.422   2.182   6.283  0.6198  0.3480 -0.1356
24216SOL    HW177495   7.436   2.275   6.300 -0.8330  0.2899  1.7702
24216SOL    HW277496   7.444   2.170   6.191 -0.4221  2.8391 -0.7734
24217SOL     OW77497   8.294   3.854   4.820 -0.2357  0.5789 -0.0244
24217SOL    HW177498   8.329   3.846   4.732  0.7252 -0.6684  0.4363
24217SOL    HW277499   8.210   3.808   4.817 -1.4677  2.7292 -0.8841
24218SOL     OW77500   0.468   3.881   3.627  0.2416 -0.5560 -0.0870
24218SOL    HW177501   0.504   3.793   3.639  0.2854 -0.4587  0.5223
24218SOL    HW277502   0.495   3.929   3.705 -2.2733 -0.8270  1.0550
24219SOL     OW77503   8.687   9.225   2.699 -0.9423 -0.5555  0.0364
24219SOL    HW177504   8.607   9.230   2.647 -1.0271  1.3080  0.2809
24219SOL    HW277505   8.752   9.187   2.638 -1.7887 -1.3662 -0.3959
24220SOL     OW77506   9.548   2.862   2.999 -0.3785  0.3761 -0.1195
24220SOL    HW177507   9.553   2.837   3.091  1.3462  0.2770 -0.2108
24220SOL    HW277508   9.474   2.923   2.995 -1.2113 -0.5101  1.0936
24221SOL     OW77509   0.647   2.701   5.810  0.3170  0.1905 -0.4799
24221SOL    HW177510   0.593   2.631   5.773 -0.5648  0.3530  0.4545
24221SOL    HW277511   0.702   2.731   5.737  1.6535 -2.3298 -0.6137
24222SOL     OW77512   6.758   2.559   5.023  0.6179 -0.3851  0.1758
24222SOL    HW177513   6.685   2.499   5.039 -1.5476  1.9240 -0.3825
24222SOL    HW277514   6.820   2.540   5.093 -1.4505 -1.1146  1.9287
24223SOL     OW77515   8.304   3.747   2.592 -0.6436  0.1683  0.2498
24223SOL    HW177516   8.394   3.775   2.608 -1.0165  0.5544  1.9154
24223SOL    HW277517   8.260   3.759   2.676 -1.9497 -1.2003 -0.1913
24224SOL     OW77518   7.253   4.702   6.479  0.0215  0.4525  0.1267
24224SOL    HW177519   7.310   4.778   6.491 -0.1140  0.6658 -0.5183
24224SOL    HW277520   7.248   4.691   6.384  1.0371 -1.1163  0.2074
24225SOL     OW77521   8.298   4.213   2.702 -0.2836 -0.5759 -0.1877
24225SOL    HW177522   8.310   4.150   2.631  0.5146  2.4612 -2.9816
24225SOL    HW277523   8.367   4.191   2.765  1.8869 -0.7636 -2.4724
24226SOL     OW77524   7.381   3.412   5.752  0.5756  0.3602 -0.1171
24226SOL    HW177525   7.372   3.434   5.845  0.1584  0.7536 -0.2505
24226SOL    HW277526   7.361   3.493   5.706 -2.3124 -0.5601 -0.6659
24227SOL     OW77527   8.824   2.877   3.980  0.3299 -0.0322 -0.2856
24227SOL    HW177528   8.908   2.922   3.980  0.0565  0.4968 -0.2827
24227SOL    HW277529   8.838   2.798   4.033  1.1004 -0.5018 -1.1642
24228SOL     OW77530   7.806   2.794   4.862  0.3920  0.3221  0.1269
24228SOL    HW177531   7.807   2.703   4.893  1.0542  0.2902  0.0272
24228SOL    HW277532   7.720   2.827   4.888  0.3592 -0.1621  0.6590
24229SOL     OW77533   5.978   4.682   4.758  0.0814 -0.3640  0.0409
24229SOL    HW177534   5.980   4.617   4.687  1.4592  0.4425 -0.6856
24229SOL    HW277535   5.954   4.631   4.836 -0.2255 -1.4930 -0.7640
24230SOL     OW77536   6.896   1.074   7.732  0.3288 -0.7104 -0.2048
24230SOL    HW177537   6.884   1.169   7.740 -0.8674 -0.8527 -0.0895
24230SOL    HW277538   6.819   1.037   7.776  1.0324 -1.7434  0.1889
24231SOL     OW77539   1.181   1.623   2.640  1.0548 -0.5257  0.0146
24231SOL    HW177540   1.176   1.590   2.550  1.6356 -0.8097  0.0820
24231SOL    HW277541   1.165   1.546   2.695 -2.1285  0.1233  0.1783
24232SOL     OW77542   8.990   0.616   3.651 -0.2635  0.4388  0.3423
24232SOL    HW177543   9.063   0.557   3.631 -0.3766 -0.0622  1.3446
24232SOL    HW277544   8.913   0.571   3.617 -0.2947  0.2184  0.7032
24233SOL     OW77545   8.620   2.637   5.899  0.4501 -0.4587  0.2330
24233SOL    HW177546   8.609   2.729   5.924  1.2334 -0.8408  2.1249
24233SOL    HW277547   8.621   2.589   5.982 -1.8983 -2.4410 -0.7760
24234SOL     OW77548   8.494   0.726   3.905 -0.0372  0.4501  0.4235
24234SOL    HW177549   8.467   0.636   3.920  0.9544  0.0574 -0.0925
24234SOL    HW277550   8.588   0.721   3.887  0.1219  1.6274  0.7991
24235SOL     OW77551   7.037   4.080   4.727 -0.4882  0.1991 -0.3616
24235SOL    HW177552   6.971   4.147   4.710  0.5390  1.1389 -0.7074
24235SOL    HW277553   7.100   4.122   4.785  1.9393  0.7217 -3.1440
24236SOL     OW77554   7.862   3.234   1.867  0.0102  0.2547  0.0339
24236SOL    HW177555   7.874   3.294   1.793  0.0800 -0.7037 -0.7456
24236SOL    HW277556   7.934   3.256   1.927 -0.4230  1.4741  0.1389
24237SOL     OW77557   0.642   2.722   4.539  0.2493  0.0447  0.2501
24237SOL    HW177558   0.626   2.651   4.601  0.2804 -0.4164 -0.2557
24237SOL    HW277559   0.578   2.706   4.469 -0.2473  0.9469  0.4789
24238SOL     OW77560   8.984   2.641   6.466 -0.2176  0.6929  0.1770
24238SOL    HW177561   9.040   2.691   6.406 -1.1383  1.1468 -0.3211
24238SOL    HW277562   9.038   2.627   6.543  0.6823  0.8786 -0.4067
24239SOL     OW77563   8.890   2.223   5.971  0.4110  0.3618 -0.0445
24239SOL    HW177564   8.823   2.279   5.933  0.8158  0.4927 -0.5764
24239SOL    HW277565   8.962   2.282   5.991  0.4213  0.2020  0.4057
24240SOL     OW77566   6.752   4.358   4.497  0.0914 -0.1299 -0.4357
24240SOL    HW177567   6.824   4.361   4.559  0.3248  0.3519 -0.7206
24240SOL    HW277568   6.738   4.449   4.472 -2.2651  0.1284  1.4892
24241SOL     OW77569   6.933   1.291   6.049  0.2138  0.7812  0.1566
24241SOL    HW177570   6.921   1.348   5.974  2.9712  0.2425 -0.7995
24241SOL    HW277571   7.027   1.271   6.050 -0.2117 -1.6158  1.9880
24242SOL     OW77572   8.551   1.704   4.643  1.0514 -0.0375  0.2191
24242SOL    HW177573   8.522   1.626   4.597  0.4432  0.4163 -0.1736
24242SOL    HW277574   8.586   1.761   4.575  0.3537  0.5453  0.3413
24243SOL     OW77575   7.462   1.916   3.021 -0.4514  0.7388 -0.3579
24243SOL    HW177576   7.546   1.887   2.985 -0.9059 -0.6619 -0.3440
24243SOL    HW277577   7.426   1.975   2.954  0.3263  0.9994 -0.5593
24244SOL     OW77578   4.986   2.271   5.495 -0.4357  0.0595 -0.0454
24244SOL    HW177579   5.065   2.311   5.532 -0.1217  0.3352 -0.9777
24244SOL    HW277580   4.924   2.269   5.568  0.4842 -0.3235  0.7464
24245SOL     OW77581   9.005   3.347   5.795  0.2361 -0.2021  0.0076
24245SOL    HW177582   8.977   3.416   5.735 -0.1530 -0.2837  0.0887
24245SOL    HW277583   9.063   3.292   5.742  0.5805  0.2043 -0.0458
24246SOL     OW77584   6.490   2.689   2.463 -0.8039  0.1474  0.4966
24246SOL    HW177585   6.495   2.671   2.557 -1.4662  2.3144  0.9956
24246SOL    HW277586   6.542   2.769   2.451 -2.1981  0.9205 -0.6581
24247SOL     OW77587   9.179   4.579   6.405 -0.0344 -0.4926 -0.5649
24247SOL    HW177588   9.258   4.630   6.386 -1.0779  1.1313 -0.7077
24247SOL    HW277589   9.197   4.537   6.490  1.3249 -0.9332 -1.0372
24248SOL     OW77590   8.160   3.284   5.334  0.5742  0.2215  0.2062
24248SOL    HW177591   8.202   3.207   5.373 -0.2199 -1.0011 -1.2637
24248SOL    HW277592   8.078   3.295   5.382 -0.4589 -1.3511 -1.1158
24249SOL     OW77593   7.784   2.115   3.079  0.1596 -0.1690 -0.2399
24249SOL    HW177594   7.827   2.117   2.993 -0.3046 -0.2420 -0.4740
24249SOL    HW277595   7.853   2.141   3.140  0.2293  0.8921 -0.7442
24250SOL     OW77596   6.708   3.594   4.527 -0.5093 -0.2992  0.2610
24250SOL    HW177597   6.680   3.502   4.536  1.9869 -0.9886  2.1282
24250SOL    HW277598   6.629   3.640   4.498 -1.8621 -3.0107 -0.7599
24251SOL     OW77599   8.144   3.474   3.883 -0.0397  0.3575 -0.6721
24251SOL    HW177600   8.201   3.397   3.888 -1.8378 -1.1927 -2.6203
24251SOL    HW277601   8.087   3.467   3.959  0.9181  0.7307  0.0945
24252SOL     OW77602   6.750   9.507   3.143  0.0096 -0.4732  0.1589
24252SOL    HW177603   6.743   9.535   3.234 -0.9511 -1.9482  0.5824
24252SOL    HW277604   6.749   9.588   3.092 -0.0540  0.3457  1.4283
24253SOL     OW77605   8.208   1.649   5.736 -0.2459  0.0840 -0.2541
24253SOL    HW177606   8.148   1.701   5.682 -2.6830 -0.5772  1.5886
24253SOL    HW277607   8.246   1.712   5.797 -0.6203  0.2283 -0.1654
24254SOL     OW77608   9.061   2.703   3.487  0.1040  0.3360 -0.1960
24254SOL    HW177609   9.148   2.727   3.517  2.0202 -3.9294 -1.5480
24254SOL    HW277610   9.051   2.746   3.402  0.0469  2.2269  0.7221
24255SOL     OW77611   8.684   3.557   3.704 -0.7003 -0.0628  0.0200
24255SOL    HW177612   8.650   3.519   3.785  2.2986 -2.6676  0.2637
24255SOL    HW277613   8.687   3.484   3.642  1.9488  0.5546 -0.7069
24256SOL     OW77614   8.782   0.256   3.072  0.1165 -0.3530  0.0790
24256SOL    HW177615   8.849   0.264   3.139 -0.0847 -0.1543  0.2569
24256SOL    HW277616   8.741   0.171   3.088 -1.9595  0.9133  2.1110
24257SOL     OW77617   8.565   1.610   3.833 -0.2827 -0.4101 -0.0177
24257SOL    HW177618   8.536   1.689   3.788 -1.3556 -0.1776  1.0109
24257SOL    HW277619   8.527   1.538   3.784  0.2752 -0.2774 -0.6610
24258SOL     OW77620   9.354   2.006   4.293  0.1008 -0.3069 -0.1973
24258SOL    HW177621   9.441   1.966   4.299  0.1985 -0.0415  0.1750
24258SOL    HW277622   9.296   1.944   4.338  0.1829 -0.2354  0.0092
24259SOL     OW77623   6.089   0.588   2.894 -0.1493  0.1122 -0.0166
24259SOL    HW177624   6.047   0.550   2.972  0.2287  0.0294  0.1479
24259SOL    HW277625   6.042   0.548   2.821 -1.0005  0.7380  0.1643
24260SOL     OW77626   0.028   4.362   3.495  0.2773 -0.5803 -0.0879
24260SOL    HW177627  -0.022   4.347   3.575  0.6908 -1.3693  0.0349
24260SOL    HW277628   0.075   4.280   3.480  0.1749 -0.4651 -1.1664
24261SOL     OW77629   6.120   2.456   7.870 -0.0125 -0.7285  0.2897
24261SOL    HW177630   6.139   2.364   7.890  1.3668 -0.4945  0.1846
24261SOL    HW277631   6.199   2.488   7.826 -1.2230  0.0077 -1.4558
24262SOL     OW77632   8.577   3.542   6.413  0.0163  0.0410  0.4062
24262SOL    HW177633   8.617   3.613   6.463 -1.3478  0.0574  1.5295
24262SOL    HW277634   8.650   3.485   6.389  1.0284  1.4039  0.1310
24263SOL     OW77635   5.221   3.562   6.951 -0.5960 -0.5996 -0.4277
24263SOL    HW177636   5.194   3.643   6.908  0.5837 -0.3576 -0.7508
24263SOL    HW277637   5.310   3.580   6.981 -1.3182 -0.8178  1.9971
24264SOL     OW77638   7.163   2.566   6.691  0.1518  0.0028 -0.3793
24264SOL    HW177639   7.210   2.507   6.633 -1.2376 -0.2388 -1.3000
24264SOL    HW277640   7.085   2.517   6.719  0.7178  0.1448  1.6394
24265SOL     OW77641   9.654   0.675   6.542  0.8023  0.1699  0.4032
24265SOL    HW177642   9.663   0.753   6.596  1.2408  0.3926  0.0158
24265SOL    HW277643   9.707   0.693   6.464  0.7772 -0.4441  0.2358
24266SOL     OW77644   7.219   2.913   7.081  0.4085  0.6079 -0.2568
24266SOL    HW177645   7.260   2.991   7.118  1.2552 -1.2158  2.9826
24266SOL    HW277646   7.286   2.875   7.024  1.6238  0.0452  1.4945
24267SOL     OW77647   7.646   3.964   1.128 -0.0979  0.1940 -0.1030
24267SOL    HW177648   7.654   4.052   1.091  1.0213  1.1266  2.1786
24267SOL    HW277649   7.556   3.959   1.159 -0.7301 -0.2117 -1.8942
24268SOL     OW77650   0.019   0.602   5.431 -0.6720  0.6569 -0.8288
24268SOL    HW177651   0.080   0.675   5.437 -0.0614  0.0548  1.3340
24268SOL    HW277652  -0.067   0.641   5.444 -0.3675  1.0418  0.0915
24269SOL     OW77653   5.992   4.008   7.523  0.4003 -0.3305 -0.2844
24269SOL    HW177654   5.958   4.038   7.439  1.6984 -1.0388 -1.0835
24269SOL    HW277655   5.935   3.935   7.548 -0.0477 -0.0526 -0.4837
24270SOL     OW77656   8.152   2.744   6.262  0.3649  0.1893 -0.3090
24270SOL    HW177657   8.158   2.649   6.255 -0.5739 -0.1304  2.1238
24270SOL    HW277658   8.060   2.765   6.245  0.0223  0.3277  1.4957
24271SOL     OW77659   2.100   3.175   6.363  0.0639 -0.0829  0.0925
24271SOL    HW177660   2.006   3.166   6.349 -0.0906  1.5740 -0.0885
24271SOL    HW277661   2.119   3.116   6.436 -0.4831 -3.0176 -1.9204
24272SOL     OW77662   7.047   2.568   5.870 -0.0546  0.1576  0.1506
24272SOL    HW177663   6.957   2.561   5.840 -0.1521  2.1646 -0.1565
24272SOL    HW277664   7.052   2.509   5.945 -2.0831  1.1195  1.1205
24273SOL     OW77665   9.392   2.759   4.244 -0.3990  0.1432  0.0719
24273SOL    HW177666   9.482   2.794   4.243 -0.8978  1.5056 -1.2696
24273SOL    HW277667   9.337   2.836   4.234 -1.5622 -0.9558 -3.4308
24274SOL     OW77668   8.584   2.274   5.628  0.0689 -0.2518  0.5590
24274SOL    HW177669   8.520   2.247   5.694 -0.1152 -2.3548 -0.4098
24274SOL    HW277670   8.534   2.325   5.565 -0.1904 -0.0667  0.9101
24275SOL     OW77671   1.230   1.926   6.609 -0.5255  0.3677 -0.0986
24275SOL    HW177672   1.300   1.867   6.637 -0.6433 -0.4847 -1.4780
24275SOL    HW277673   1.274   2.007   6.584 -0.3475  0.8526  1.6864
24276SOL     OW77674   8.888   3.868   4.455 -0.2263 -0.6582  0.2360
24276SOL    HW177675   8.967   3.837   4.500 -0.1601 -0.7633  0.0519
24276SOL    HW277676   8.874   3.803   4.386  0.5754  0.3402 -0.8957
24277SOL     OW77677   7.243   2.081   6.473 -0.3271  0.0069 -0.2753
24277SOL    HW177678   7.284   2.131   6.403 -3.1452  0.9235 -1.4228
24277SOL    HW277679   7.212   2.001   6.431 -0.6330 -0.1746  0.2802
24278SOL     OW77680   8.378   4.236   8.315  0.2467 -0.8412  0.4477
24278SOL    HW177681   8.427   4.198   8.388  0.5796  2.0029  1.8606
24278SOL    HW277682   8.439   4.296   8.273 -1.3882  1.5505  1.2209
24279SOL     OW77683   8.177   2.777   5.534  0.4876  0.5335 -0.0361
24279SOL    HW177684   8.217   2.692   5.555  0.8303  1.1234  1.9465
24279SOL    HW277685   8.138   2.765   5.447  2.0349 -1.0962 -0.5503
24280SOL     OW77686   7.273   1.578   7.608 -0.1178  0.0349  0.1740
24280SOL    HW177687   7.289   1.538   7.523  1.5887 -0.0718  0.5155
24280SOL    HW277688   7.339   1.541   7.666 -1.4010 -0.0924  1.6451
24281SOL     OW77689   6.252   3.001   4.383 -0.2686 -0.1221  0.1457
24281SOL    HW177690   6.243   2.932   4.317 -0.0367 -1.4428  1.4360
24281SOL    HW277691   6.215   2.964   4.463  2.1439  0.2216  1.5564
24282SOL     OW77692   6.607   6.682   4.623  0.1987  0.2150 -0.0976
24282SOL    HW177693   6.694   6.688   4.583 -0.4445 -1.5213 -1.9526
24282SOL    HW277694   6.562   6.762   4.596 -0.2922 -0.9964 -3.2989
24283SOL     OW77695   5.893   2.107   6.457 -0.6179  0.2087 -0.0745
24283SOL    HW177696   5.849   2.026   6.483 -2.6940  0.6390 -1.9789
24283SOL    HW277697   5.894   2.105   6.362  2.2821  0.9549 -0.1459
24284SOL     OW77698   9.295   3.818   4.868  0.5550  0.3528 -0.1431
24284SOL    HW177699   9.388   3.796   4.865  0.4000 -0.3664  0.2330
24284SOL    HW277700   9.253   3.749   4.816 -0.0258 -0.7435  1.7157
24285SOL     OW77701   8.674   3.918   6.226  0.5266  0.4217 -0.2845
24285SOL    HW177702   8.746   3.921   6.164 -0.1230  1.8627 -1.0098
24285SOL    HW277703   8.716   3.925   6.312  1.3033  0.2592 -0.6453
24286SOL     OW77704   7.720   4.901   6.499 -0.3573 -0.2494  0.0025
24286SOL    HW177705   7.749   4.857   6.419  0.1413  0.8368 -0.4393
24286SOL    HW277706   7.775   4.864   6.568 -0.6383 -1.0325 -0.1821
24287SOL     OW77707   6.983   4.122   7.840 -0.4340 -0.3776 -0.2924
24287SOL    HW177708   7.009   4.050   7.783  1.0251  0.3889 -0.6643
24287SOL    HW277709   6.948   4.080   7.919  0.1466 -1.4909 -0.6100
24288SOL     OW77710   9.163   4.316   3.756  0.1379  0.2208 -0.2901
24288SOL    HW177711   9.135   4.327   3.665 -1.1899 -0.4566  0.0187
24288SOL    HW277712   9.199   4.228   3.759  1.1074  0.5991 -0.3656
24289SOL     OW77713   6.489   3.323   7.640  0.2619 -0.2209  0.3232
24289SOL    HW177714   6.570   3.326   7.691  0.4885 -1.5645  0.0923
24289SOL    HW277715   6.519   3.318   7.549 -0.0411 -1.3139  0.2652
24290SOL     OW77716   7.726   3.703   8.371  1.0843 -0.0090  0.1707
24290SOL    HW177717   7.732   3.795   8.398 -0.0217 -0.8930  3.9119
24290SOL    HW277718   7.640   3.697   8.329  1.9235  0.9579 -1.8169
24291SOL     OW77719   9.466   2.851   5.901  0.6348  0.0165 -0.4465
24291SOL    HW177720   9.455   2.816   5.813 -0.2712 -1.6439  0.2815
24291SOL    HW277721   9.521   2.788   5.946 -0.6140 -0.2802  0.7625
24292SOL     OW77722   8.265   5.415   6.831 -0.4437  0.6545  0.0223
24292SOL    HW177723   8.209   5.462   6.770  0.3731  0.2414 -1.0855
24292SOL    HW277724   8.207   5.389   6.902 -1.2861  1.7024 -0.2478
24293SOL     OW77725   8.287   3.045   8.408  0.1612  0.5588  0.1491
24293SOL    HW177726   8.372   3.089   8.413  1.4654 -1.8629  0.8231
24293SOL    HW277727   8.259   3.056   8.317  1.8961  0.2019 -0.4531
24294SOL     OW77728   8.561   4.435   6.646 -0.3968 -0.2320 -0.1411
24294SOL    HW177729   8.542   4.516   6.694  0.6230  0.3710 -0.7120
24294SOL    HW277730   8.604   4.378   6.710  3.3552  1.5272 -0.8433
24295SOL     OW77731   8.095   3.029   6.427  0.2204  0.2093 -0.3902
24295SOL    HW177732   8.099   3.065   6.515  0.2088  0.0122 -0.3092
24295SOL    HW277733   8.059   2.941   6.438 -0.2198  0.3555 -0.6394
24296SOL     OW77734   5.854   4.969   3.103 -0.3419  0.1125 -0.6942
24296SOL    HW177735   5.798   4.919   3.043 -0.1315 -1.6436  0.4984
24296SOL    HW277736   5.942   4.963   3.065  0.0152 -2.0174  0.2931
24297SOL     OW77737   8.342   2.500   7.217 -0.3354 -0.2590 -0.0598
24297SOL    HW177738   8.429   2.494   7.256  0.8704 -1.3896 -2.6818
24297SOL    HW277739   8.344   2.580   7.166  0.0099 -1.3626 -1.8582
24298SOL     OW77740   6.240   5.904   7.594 -0.0996  0.2498 -0.6661
24298SOL    HW177741   6.290   5.834   7.553 -0.7404 -0.7890  0.2936
24298SOL    HW277742   6.151   5.893   7.562 -0.4917 -0.2328  0.5169
24299SOL     OW77743   9.246   4.019   6.994 -0.1803  0.1715  0.4222
24299SOL    HW177744   9.333   3.983   6.977 -0.2654 -0.0964  0.5527
24299SOL    HW277745   9.191   3.982   6.925 -0.7504 -1.7328  1.8021
24300SOL     OW77746   9.230   2.456   5.627  0.2095  0.0137  0.3432
24300SOL    HW177747   9.299   2.464   5.561  0.8239 -2.6065  0.5586
24300SOL    HW277748   9.185   2.375   5.606 -0.4770 -0.1937  2.3416
24301SOL     OW77749   7.640   1.700   7.114 -0.6539  0.1797 -0.1113
24301SOL    HW177750   7.628   1.787   7.151 -1.4361  0.7739 -1.6686
24301SOL    HW277751   7.613   1.640   7.183 -0.1680  1.1616  0.9599
24302SOL     OW77752   6.619   2.387   7.416  0.3511  0.3928  0.2408
24302SOL    HW177753   6.556   2.349   7.478  1.9907 -1.4915  0.8760
24302SOL    HW277754   6.673   2.445   7.469 -0.4722  1.5985 -0.1992
24303SOL     OW77755   8.973   2.420   5.464  0.1629 -0.4273  0.0411
24303SOL    HW177756   9.010   2.412   5.376 -0.5320  0.3816 -0.3393
24303SOL    HW277757   9.010   2.346   5.512  1.4375 -0.2332 -0.6039
24304SOL     OW77758   8.385   3.766   7.633  0.4190  0.0269  0.0074
24304SOL    HW177759   8.423   3.690   7.590  0.2357 -1.1097  1.7375
24304SOL    HW277760   8.321   3.800   7.571  0.9438 -0.8535 -1.0397
24305SOL     OW77761   7.209   4.319   7.882 -0.1275 -0.1337 -0.2299
24305SOL    HW177762   7.232   4.379   7.952  1.4196 -0.3168 -0.5486
24305SOL    HW277763   7.126   4.280   7.910 -0.9637  1.8178  0.1660
24306SOL     OW77764   9.012   3.696   9.472  0.1189 -0.1358  0.0418
24306SOL    HW177765   8.940   3.759   9.475 -0.0491 -0.1593 -2.2632
24306SOL    HW277766   9.090   3.748   9.492 -0.3628  0.0932  1.4916
24307SOL     OW77767   7.680   3.840   5.898 -0.1793 -0.4165 -0.4170
24307SOL    HW177768   7.724   3.901   5.957  0.2725 -0.1884 -0.9811
24307SOL    HW277769   7.593   3.877   5.884  0.2567  0.3649 -1.1370
24308SOL     OW77770   8.413   2.786   6.287 -0.3845  0.0198 -0.0997
24308SOL    HW177771   8.318   2.780   6.286 -0.3885 -0.0419 -1.4985
24308SOL    HW277772   8.441   2.720   6.351 -1.2679  0.1735  0.4662
24309SOL     OW77773   9.384   2.192   5.813 -0.4006  0.1232 -0.3933
24309SOL    HW177774   9.429   2.245   5.747  2.8489 -1.5252  0.2914
24309SOL    HW277775   9.369   2.108   5.771 -2.2739  0.3730 -0.3237
24310SOL     OW77776   8.813   6.324   4.730  0.0201 -0.3014  0.4788
24310SOL    HW177777   8.739   6.305   4.788 -0.6641  1.9847  0.4482
24310SOL    HW277778   8.774   6.366   4.654  1.2566 -0.0299 -0.0300
24311SOL     OW77779   0.255   4.818   7.384 -0.1712 -0.6393 -0.4219
24311SOL    HW177780   0.164   4.810   7.356 -0.0532 -0.0994 -0.9722
24311SOL    HW277781   0.306   4.782   7.312  0.0563 -1.0277 -0.0762
24312SOL     OW77782   7.949   4.922   6.156 -0.7024 -0.5346 -0.2165
24312SOL    HW177783   7.902   4.948   6.077  3.6828  0.6154 -2.8122
24312SOL    HW277784   7.970   4.829   6.143  0.8287 -0.1173 -1.0082
24313SOL     OW77785   9.179   3.825   3.586 -0.7934 -0.0091  0.2808
24313SOL    HW177786   9.146   3.909   3.620 -1.1007  0.1855 -0.4791
24313SOL    HW277787   9.141   3.759   3.644 -0.4092  0.3860  0.9914
24314SOL     OW77788   9.824   1.357   6.692 -0.2729  0.2466 -0.4822
24314SOL    HW177789   9.804   1.362   6.786 -1.9380 -0.8021 -0.7527
24314SOL    HW277790   9.913   1.322   6.689 -0.6025 -0.7664  0.7086
24315SOL     OW77791   9.538   1.450   8.426 -0.4556  0.3099  0.2336
24315SOL    HW177792   9.459   1.485   8.386 -0.6771 -0.6326 -0.1692
24315SOL    HW277793   9.576   1.525   8.473 -1.8964  0.6206  0.9444
24316SOL     OW77794   8.368   2.156   7.553  0.0740  0.1648  0.4144
24316SOL    HW177795   8.291   2.099   7.564 -1.3531  1.6800 -1.1618
24316SOL    HW277796   8.433   2.100   7.510 -1.6409 -0.1101 -2.0181
24317SOL     OW77797   8.563   0.927   6.536 -0.1995  0.7304  0.3444
24317SOL    HW177798   8.573   0.843   6.581  0.4762 -0.1692 -1.3957
24317SOL    HW277799   8.490   0.913   6.476 -1.8115  2.2537  1.8108
24318SOL     OW77800   0.254   4.250   6.917  0.0445  0.7837  0.1497
24318SOL    HW177801   0.293   4.322   6.967  0.0505 -1.3480  3.6029
24318SOL    HW277802   0.185   4.216   6.975  0.8459 -2.6870 -0.7305
24319SOL     OW77803   8.490   5.269   4.257 -0.1255  0.9003  0.0983
24319SOL    HW177804   8.444   5.249   4.338  0.7324 -1.0474  0.1639
24319SOL    HW277805   8.509   5.184   4.219  1.5232  1.7068 -0.9960
24320SOL     OW77806   7.438   3.578   7.295 -0.3289  0.4306 -0.0642
24320SOL    HW177807   7.384   3.657   7.287 -2.3076 -0.9312 -1.1054
24320SOL    HW277808   7.422   3.546   7.384 -0.5271  0.5189 -0.0690
24321SOL     OW77809   0.099   1.013   6.576 -0.3242  0.4547  0.3020
24321SOL    HW177810   0.166   1.070   6.539 -0.1441 -0.3621 -0.6385
24321SOL    HW277811   0.100   0.935   6.522 -0.1871 -0.7142  1.9035
24322SOL     OW77812   0.436   5.655   4.839 -0.0556  0.3240  0.4113
24322SOL    HW177813   0.385   5.696   4.769  0.4029  0.3220  0.0723
24322SOL    HW277814   0.371   5.604   4.888 -0.7024  1.7477  1.0813
24323SOL     OW77815   6.951   2.705   0.405  0.5820  0.1672  0.5720
24323SOL    HW177816   6.923   2.700   0.313 -0.9146 -0.3889  1.0271
24323SOL    HW277817   7.045   2.688   0.402  0.5998  0.3544 -0.8785
24324SOL     OW77818   8.018   1.759   5.539 -0.4497 -0.3665  0.2602
24324SOL    HW177819   7.951   1.794   5.599  0.7412  0.2291  1.3073
24324SOL    HW277820   7.992   1.668   5.524 -2.3620  0.2789 -0.6716
24325SOL     OW77821   5.677   1.976   7.000  0.0017  0.5763  0.1808
24325SOL    HW177822   5.735   1.980   6.924 -0.4981 -0.2857 -0.2627
24325SOL    HW277823   5.600   2.026   6.975  0.4039  1.4611  0.6557
24326SOL     OW77824   8.648   4.892   6.698 -0.6370 -0.7697  0.5736
24326SOL    HW177825   8.731   4.920   6.658 -1.4371  3.4689  1.4949
24326SOL    HW277826   8.582   4.908   6.630 -1.0475 -1.9083  0.6712
24327SOL     OW77827   0.059   1.999   8.579  0.0723 -0.1112  0.1764
24327SOL    HW177828   0.041   2.058   8.506  1.3926  0.4343  0.2597
24327SOL    HW277829  -0.001   2.027   8.648  1.6066  2.0988  0.7015
24328SOL     OW77830   8.231   1.885   5.891 -0.2276 -0.0673 -0.4057
24328SOL    HW177831   8.267   1.914   5.975  0.0162 -1.3771 -0.0266
24328SOL    HW277832   8.285   1.927   5.825  0.6227 -0.2868  0.1279
24329SOL     OW77833   6.690   9.753   5.414  0.2592 -0.0110 -0.3962
24329SOL    HW177834   6.715   9.846   5.412  0.6760 -0.1190 -0.3663
24329SOL    HW277835   6.742   9.716   5.485 -0.6325 -0.0692  0.2453
24330SOL     OW77836   6.967   2.063   4.312  0.3478 -0.1026  0.0649
24330SOL    HW177837   7.057   2.052   4.282  0.1523 -0.8322 -0.2634
24330SOL    HW277838   6.969   2.040   4.405 -0.1056 -3.4491 -0.6455
24331SOL     OW77839   8.827   1.600   3.661  0.1234  0.2482  0.0734
24331SOL    HW177840   8.799   1.606   3.753  0.5952 -3.0271  0.5483
24331SOL    HW277841   8.911   1.645   3.659 -0.2929  1.1238  1.0255
24332SOL     OW77842   8.491   2.580   6.481  0.1905  0.2079  0.0069
24332SOL    HW177843   8.479   2.493   6.444  1.3302  0.2062 -0.3935
24332SOL    HW277844   8.478   2.568   6.575 -2.6185  0.1947 -0.3168
24333SOL     OW77845   9.253   4.631   4.210 -0.1156  0.4858 -0.2383
24333SOL    HW177846   9.343   4.632   4.242 -0.1815 -0.5873  0.0119
24333SOL    HW277847   9.216   4.713   4.242  0.6462  0.7339  0.0300
24334SOL     OW77848   6.416   2.030   6.799 -0.7189 -0.1774  0.6488
24334SOL    HW177849   6.391   2.042   6.707  0.4622  0.0827  0.3458
24334SOL    HW277850   6.494   2.084   6.809 -1.6721  0.9810  2.2086
24335SOL     OW77851   8.259   3.533   5.266 -0.2794 -0.5543  0.1385
24335SOL    HW177852   8.228   3.448   5.298 -1.2722 -0.5552 -0.7759
24335SOL    HW277853   8.250   3.591   5.341  0.2384 -1.2003  0.7219
24336SOL     OW77854   6.567   2.377   6.880  0.4570  0.4369  0.4686
24336SOL    HW177855   6.595   2.295   6.920  0.1270 -0.5343 -1.1661
24336SOL    HW277856   6.648   2.423   6.860  0.6950 -0.0276  0.3532
24337SOL     OW77857   7.354   2.289   8.185 -0.0732  0.3117 -0.2058
24337SOL    HW177858   7.420   2.274   8.117 -1.3521 -0.8681 -1.2314
24337SOL    HW277859   7.405   2.291   8.266  1.3597  0.6388 -1.0664
24338SOL     OW77860   7.032   3.796   6.554 -0.9693 -0.3290  0.0222
24338SOL    HW177861   6.947   3.764   6.584 -1.9784  0.3567 -1.9554
24338SOL    HW277862   7.019   3.820   6.463  2.1358 -3.1826 -1.3909
24339SOL     OW77863   7.782   1.577   8.404  0.1458 -0.1065 -0.1953
24339SOL    HW177864   7.707   1.518   8.400  0.4784 -0.6997  1.4665
24339SOL    HW277865   7.760   1.639   8.474  1.6560 -1.0240  1.1650
24340SOL     OW77866   6.002   2.855   5.254 -0.0641 -0.3339 -0.0198
24340SOL    HW177867   6.096   2.875   5.258  0.0131 -0.4499 -0.9030
24340SOL    HW277868   5.995   2.792   5.182 -0.7302 -0.8883  0.5248
24341SOL     OW77869   6.433   3.062   4.942  0.0910 -0.1638  0.1257
24341SOL    HW177870   6.517   3.015   4.943  0.2963  0.2065  0.5427
24341SOL    HW277871   6.376   3.008   4.996  0.1790 -0.1981  0.1860
24342SOL     OW77872   8.748   1.181   6.299  0.3261 -0.4146 -0.0863
24342SOL    HW177873   8.697   1.254   6.265 -2.4795 -2.8064 -1.4524
24342SOL    HW277874   8.829   1.181   6.248 -1.6178 -0.9040 -3.4415
24343SOL     OW77875   8.675   5.369   7.564  0.1861  0.5503  0.1027
24343SOL    HW177876   8.750   5.415   7.526  0.4712  0.0664  0.0774
24343SOL    HW277877   8.602   5.391   7.506  0.1866  1.4529  0.4195
24344SOL     OW77878   8.784   1.723   4.247  0.3132 -0.6831  0.2954
24344SOL    HW177879   8.879   1.709   4.252  0.2141 -1.0572  1.4910
24344SOL    HW277880   8.764   1.774   4.326 -0.5409 -1.0339  0.3135
24345SOL     OW77881   6.169   2.398   7.129  0.2629  0.2400 -0.6335
24345SOL    HW177882   6.101   2.369   7.069  0.6641 -1.3314 -0.3685
24345SOL    HW277883   6.251   2.382   7.083  0.7072 -2.9943  1.0070
24346SOL     OW77884   0.005   1.343   6.993 -0.0580 -0.2429 -0.3698
24346SOL    HW177885  -0.065   1.355   7.057 -0.4867  1.0384 -1.0307
24346SOL    HW277886   0.008   1.249   6.978  0.4763 -0.6609  1.9656
24347SOL     OW77887   8.035   2.715   7.152  0.3457  0.2497  0.1352
24347SOL    HW177888   7.982   2.644   7.117  0.5981 -0.0502  0.3657
24347SOL    HW277889   8.116   2.711   7.101  1.0146 -0.6534  1.2441
24348SOL     OW77890   8.991   2.128   7.224 -0.4745 -0.3395 -0.4401
24348SOL    HW177891   9.004   2.054   7.284  0.7789  1.0245  1.0484
24348SOL    HW277892   9.054   2.194   7.253 -1.9908  1.5826 -1.3060
24349SOL     OW77893   8.265   2.858   5.987 -0.0787 -0.5317 -0.6466
24349SOL    HW177894   8.308   2.857   6.073 -2.0770 -0.8376  0.4186
24349SOL    HW277895   8.196   2.792   5.995 -1.2482  0.4925 -1.9735
24350SOL     OW77896   2.682   2.949   6.526  0.6485  0.0488 -0.3062
24350SOL    HW177897   2.749   2.939   6.594 -0.4899  0.3125  0.8811
24350SOL    HW277898   2.687   2.868   6.475  1.9551  0.1271 -0.3356
24351SOL     OW77899   7.248   9.731   8.132  0.1627 -0.4520 -0.2576
24351SOL    HW177900   7.317   9.667   8.150  0.2318 -0.3030  0.0073
24351SOL    HW277901   7.266   9.804   8.191  1.4124  0.8173 -2.0593
24352SOL     OW77902   8.558   3.236   6.607 -0.1752 -0.0363 -0.3047
24352SOL    HW177903   8.617   3.261   6.536 -0.9149  1.2219 -0.4964
24352SOL    HW277904   8.541   3.143   6.591  1.7294 -0.4429 -0.2323
24353SOL     OW77905   6.953   2.960   6.225  0.1027  0.8572 -0.1777
24353SOL    HW177906   6.966   2.984   6.316  0.4710 -1.2793  0.3862
24353SOL    HW277907   6.866   2.993   6.203 -1.7052 -1.8304  2.1795
24354SOL     OW77908   8.777   2.709   5.678  0.1590  0.0493 -0.8005
24354SOL    HW177909   8.795   2.796   5.715 -2.1539 -0.0350  0.7159
24354SOL    HW277910   8.719   2.668   5.742  0.7020 -2.4124 -1.7979
24355SOL     OW77911   0.653   0.824   6.691  0.1681  0.3394 -0.0007
24355SOL    HW177912   0.597   0.792   6.621  0.8853  1.4609 -1.1278
24355SOL    HW277913   0.639   0.762   6.763 -0.5738 -0.8478 -1.1215
24356SOL     OW77914   8.574   0.928   9.252  0.6771  0.6820  0.2992
24356SOL    HW177915   8.610   0.947   9.338 -1.5935 -0.2522  1.5343
24356SOL    HW277916   8.553   1.014   9.215  1.7236  1.0848  0.6145
24357SOL     OW77917   6.940   1.920   7.991  0.5660  0.1803 -0.4553
24357SOL    HW177918   6.955   1.827   7.977  0.7914 -0.0909  1.2848
24357SOL    HW277919   7.026   1.960   7.975  1.4239 -0.4072  2.0913
24358SOL     OW77920   9.284   3.338   5.612  0.4889 -0.0260 -0.2585
24358SOL    HW177921   9.214   3.275   5.597  0.0979 -0.0392  1.4346
24358SOL    HW277922   9.310   3.366   5.525 -0.0767 -1.7041 -1.0164
24359SOL     OW77923   6.629   3.346   4.457 -0.0188  0.1556  0.1244
24359SOL    HW177924   6.647   3.276   4.520 -0.7702  0.0345  0.2036
24359SOL    HW277925   6.563   3.310   4.399  1.0647  0.0643 -1.0920
24360SOL     OW77926   1.638   0.503   5.702  0.0453 -0.2532 -0.2398
24360SOL    HW177927   1.647   0.598   5.705  0.0306 -0.2476 -0.4095
24360SOL    HW277928   1.548   0.487   5.731 -0.0853 -0.1918 -0.6053
24361SOL     OW77929   8.179   2.450   6.246 -0.5475 -0.1634  0.4716
24361SOL    HW177930   8.151   2.391   6.316  1.4127  0.0324  1.4735
24361SOL    HW277931   8.259   2.410   6.211 -1.0174  0.1961 -1.0982
24362SOL     OW77932   8.480   2.053   4.789 -0.0963  0.6864 -0.3718
24362SOL    HW177933   8.550   2.034   4.852 -0.7689  1.1423  0.5358
24362SOL    HW277934   8.430   1.971   4.784  1.7106 -0.4173 -2.7131
24363SOL     OW77935   6.318   5.965   4.722 -1.1493  0.0669  0.0355
24363SOL    HW177936   6.245   5.904   4.730  1.1124 -2.9441 -0.7061
24363SOL    HW277937   6.348   5.955   4.631  0.7397  0.4700  0.5679
24364SOL     OW77938   9.080   2.412   6.803  0.3430 -0.2312 -0.1126
24364SOL    HW177939   9.055   2.383   6.891  0.8305 -1.2509 -0.2990
24364SOL    HW277940   9.152   2.353   6.778  1.0080  0.8088 -0.7174
24365SOL     OW77941   7.464   1.182   7.538 -0.0356 -0.1025 -0.0038
24365SOL    HW177942   7.523   1.211   7.469 -1.7886  0.2922 -1.3940
24365SOL    HW277943   7.390   1.243   7.535 -1.7217 -2.0334 -0.0413
24366SOL     OW77944   7.686   1.216   6.918  0.1910 -0.1615  0.1525
24366SOL    HW177945   7.678   1.245   7.009 -1.1070  0.9284 -0.2808
24366SOL    HW277946   7.631   1.276   6.868  1.7508 -0.0284 -1.5224
24367SOL     OW77947   7.718   2.995   5.336 -0.0318 -0.0598 -0.2280
24367SOL    HW177948   7.747   2.925   5.395 -0.4210  0.1469  0.2058
24367SOL    HW277949   7.627   2.975   5.318  0.3648 -0.7430 -1.6462
24368SOL     OW77950   9.072   1.492   6.323  1.0094  0.1150  0.6079
24368SOL    HW177951   8.979   1.502   6.302  1.6964  0.4065 -2.8828
24368SOL    HW277952   9.108   1.580   6.313  1.8502 -0.1810  0.9424
24369SOL     OW77953   8.985   0.576   6.250  0.5190 -0.4242  0.0501
24369SOL    HW177954   9.030   0.580   6.165 -1.2147 -0.7971 -0.9222
24369SOL    HW277955   8.983   0.483   6.272 -2.5160 -0.8536 -1.5220
24370SOL     OW77956   7.956   2.492   5.724  0.5434 -0.8981 -1.0055
24370SOL    HW177957   7.945   2.474   5.817  1.0323  0.9952 -0.5256
24370SOL    HW277958   8.016   2.424   5.693  0.0462 -1.8018 -0.0511
24371SOL     OW77959   8.987   1.309   6.630 -0.1726 -0.1596 -0.0213
24371SOL    HW177960   8.915   1.326   6.570 -0.3295 -1.4948 -0.2554
24371SOL    HW277961   9.008   1.216   6.616 -0.2077 -0.5222  1.9623
24372SOL     OW77962   0.262   1.101   5.487  0.9613 -0.3219 -0.2491
24372SOL    HW177963   0.266   1.012   5.521 -1.3535 -1.1026 -1.7770
24372SOL    HW277964   0.221   1.092   5.401  1.8500  2.0973 -1.0067
24373SOL     OW77965   8.779   2.349   7.096 -0.1078  0.3567  0.6588
24373SOL    HW177966   8.722   2.416   7.056 -0.7588  0.3681  1.5833
24373SOL    HW277967   8.863   2.393   7.107 -0.3378  0.8074  0.6447
24374SOL     OW77968   9.231   2.575   7.573  0.1827  0.3235 -0.4844
24374SOL    HW177969   9.186   2.621   7.644 -0.9313 -1.9851  0.4378
24374SOL    HW277970   9.166   2.568   7.503  0.4286  0.4158 -0.7234
24375SOL     OW77971   9.015   3.208   8.098 -0.1714 -0.5740 -0.0466
24375SOL    HW177972   9.015   3.189   8.192  1.8666 -0.8601 -0.0664
24375SOL    HW277973   9.071   3.140   8.060  2.0618  1.6227 -0.9652
24376SOL     OW77974   0.602   3.104   6.743 -0.3414  0.7600  0.2156
24376SOL    HW177975   0.665   3.068   6.680 -0.7900 -1.3361  0.8752
24376SOL    HW277976   0.520   3.061   6.720 -1.4209  2.9068 -0.1647
24377SOL     OW77977   9.642   3.490   7.431  0.3756 -0.3170 -0.1869
24377SOL    HW177978   9.603   3.521   7.512  1.2015  0.5672 -0.1122
24377SOL    HW277979   9.709   3.555   7.409 -0.4491 -0.0337 -2.0777
24378SOL     OW77980   9.015   0.031   4.110  0.7648  0.0188  0.1215
24378SOL    HW177981   9.006   0.072   4.024 -2.8569 -1.9223 -0.6168
24378SOL    HW277982   9.038  -0.060   4.091  2.6559  0.1463  1.4429
24379SOL     OW77983   7.568   2.134   5.118 -0.5502 -0.1112 -0.5033
24379SOL    HW177984   7.609   2.076   5.054 -0.8599 -1.6288  0.6017
24379SOL    HW277985   7.618   2.216   5.112  1.7257 -1.3847 -0.2138
24380SOL     OW77986   8.239   2.971   4.665  0.1525  0.1573  0.1705
24380SOL    HW177987   8.299   2.896   4.670 -0.1564 -0.0531  0.9059
24380SOL    HW277988   8.202   2.978   4.754 -1.7188 -0.3860 -0.5088
24381SOL     OW77989   7.758   0.761   6.099 -0.5825 -0.0409  0.3267
24381SOL    HW177990   7.669   0.774   6.134  0.2568  0.0638  2.6223
24381SOL    HW277991   7.773   0.836   6.042 -1.7174  0.2864  0.4333
24382SOL     OW77992   7.967   2.278   7.127  0.4359  0.1320 -0.1158
24382SOL    HW177993   8.038   2.222   7.157 -0.2166 -0.6867 -0.0613
24382SOL    HW277994   8.010   2.346   7.075  1.2305 -0.5082 -0.3101
24383SOL     OW77995   7.294   2.968   5.038  0.2857 -0.3870  0.1175
24383SOL    HW177996   7.282   3.061   5.017  0.3920 -0.8615 -2.3492
24383SOL    HW277997   7.211   2.927   5.012  0.9076 -1.2273 -0.5695
24384SOL     OW77998   7.788   2.663   6.956 -0.1938 -0.2857  0.3022
24384SOL    HW177999   7.724   2.611   6.908 -0.2318 -0.4738  0.5584
24384SOL    HW278000   7.747   2.680   7.041  0.3128 -0.8729  0.6746
24385SOL     OW78001   5.002   5.174   7.545 -0.0621  0.4747 -0.3654
24385SOL    HW178002   5.030   5.088   7.514 -0.2361  0.3673 -0.2251
24385SOL    HW278003   4.978   5.160   7.636 -3.5959 -0.1831 -1.2128
24386SOL     OW78004   7.288   3.805   7.568  0.1654 -0.9104 -0.5191
24386SOL    HW178005   7.378   3.794   7.598  0.4621  0.4342 -0.8561
24386SOL    HW278006   7.295   3.801   7.472 -0.3939 -2.4668 -0.5321
24387SOL     OW78007   5.715   3.367   8.228 -0.3427 -0.0754  0.0239
24387SOL    HW178008   5.803   3.349   8.262  0.0288 -1.5343 -1.5868
24387SOL    HW278009   5.698   3.296   8.166 -1.5736  1.6105 -1.6854
24388SOL     OW78010   4.520   4.398   7.708 -0.1838  0.4225  0.3482
24388SOL    HW178011   4.597   4.449   7.683 -0.1207  0.0937 -0.1418
24388SOL    HW278012   4.465   4.397   7.629 -0.0348 -0.5292  0.2449
24389SOL     OW78013   8.218   2.535   9.350 -0.6642  0.4277 -0.2191
24389SOL    HW178014   8.228   2.625   9.381 -1.6607  0.0780  1.2792
24389SOL    HW278015   8.296   2.517   9.299  0.1258  1.7493  0.4833
24390SOL     OW78016   7.106   4.208   6.613 -0.2198  0.4112  0.7818
24390SOL    HW178017   7.182   4.266   6.608  3.3283 -3.8075 -1.7322
24390SOL    HW278018   7.067   4.212   6.526 -2.2268  1.5780  1.6760
24391SOL     OW78019   7.610   1.829   6.182 -0.5353 -0.5944  0.0227
24391SOL    HW178020   7.693   1.852   6.142 -0.5771  0.1482  0.3336
24391SOL    HW278021   7.590   1.904   6.239 -1.6515 -0.5182 -0.4323
24392SOL     OW78022   8.770   4.163   3.292  0.3148  0.4908 -0.1846
24392SOL    HW178023   8.751   4.134   3.382 -0.4085  3.2340  0.6329
24392SOL    HW278024   8.865   4.179   3.292  0.5258 -0.6966 -0.3067
24393SOL     OW78025   1.080   4.937   8.335  0.4005 -0.3303  0.2280
24393SOL    HW178026   1.081   4.865   8.398  2.3980 -2.2488 -1.7947
24393SOL    HW278027   0.989   4.965   8.331 -0.5897 -3.1637  0.6905
24394SOL     OW78028   8.603   3.445   5.860  0.2476  0.7308  0.2163
24394SOL    HW178029   8.537   3.420   5.795 -1.4496  2.3722  1.2060
24394SOL    HW278030   8.646   3.521   5.822  2.9902 -1.3766 -1.2463
24395SOL     OW78031   0.402   5.001   7.123  0.4309 -0.1944 -0.5489
24395SOL    HW178032   0.318   5.031   7.087  0.4005  0.4231  0.0142
24395SOL    HW278033   0.467   5.049   7.071  0.3752  1.1946  0.6045
24396SOL     OW78034   9.264   1.193   6.834  0.5685 -0.2999  0.3694
24396SOL    HW178035   9.297   1.207   6.923  1.8672  1.7953 -0.3914
24396SOL    HW278036   9.245   1.280   6.801 -0.9533 -1.1218 -1.0544
24397SOL     OW78037   7.250   4.280   6.264  0.6141 -0.2066 -0.3852
24397SOL    HW178038   7.206   4.328   6.194 -2.3506  0.2556  1.6312
24397SOL    HW278039   7.311   4.344   6.303  0.1107  0.4556 -0.6733
24398SOL     OW78040   6.857   3.920   5.796 -0.1140 -0.2668  0.2440
24398SOL    HW178041   6.777   3.958   5.760 -0.2298 -0.7025  0.0333
24398SOL    HW278042   6.920   3.992   5.795 -0.1473 -0.2394 -0.7163
24399SOL     OW78043   8.143   0.883   6.183 -0.1777  0.4357  0.2219
24399SOL    HW178044   8.233   0.867   6.211 -0.2331  0.6655  0.5397
24399SOL    HW278045   8.143   0.975   6.157 -0.1869  0.2873 -0.3038
24400SOL     OW78046   0.691   1.775   7.864 -0.5875  0.3554 -0.2134
24400SOL    HW178047   0.742   1.783   7.784 -1.5394 -2.5203 -1.2245
24400SOL    HW278048   0.745   1.721   7.922 -0.5580  1.1457  0.5164
24401SOL     OW78049   9.192   3.712   5.349 -0.4525 -0.3458  0.1887
24401SOL    HW178050   9.181   3.759   5.267  0.5794 -0.4357 -0.0195
24401SOL    HW278051   9.124   3.645   5.348 -1.5097  0.6989  0.1825
24402SOL     OW78052   0.106   1.802   6.135 -0.1249 -0.0235  0.6280
24402SOL    HW178053   0.077   1.712   6.153 -1.5371  0.4204  0.6859
24402SOL    HW278054   0.033   1.842   6.089  0.5083  1.0944  0.5665
24403SOL     OW78055   8.883   1.281   5.672 -0.6193  0.2563 -0.1922
24403SOL    HW178056   8.928   1.202   5.643 -0.3865  0.2515  0.1773
24403SOL    HW278057   8.949   1.330   5.722 -0.8722  0.4977 -0.0904
24404SOL     OW78058   9.489   1.763   5.853 -0.0341  0.2406  0.0040
24404SOL    HW178059   9.583   1.779   5.847  0.3077 -1.7824 -1.0172
24404SOL    HW278060   9.452   1.805   5.776 -0.2944  2.6466  1.3477
24405SOL     OW78061   8.816   4.530   6.662 -0.3078  0.2589 -0.1046
24405SOL    HW178062   8.780   4.480   6.589  1.1772  0.5767 -1.0972
24405SOL    HW278063   8.742   4.580   6.697 -1.0202  0.1742 -1.4466
24406SOL     OW78064   8.120   2.316   5.596  0.5471  0.2187 -0.3551
24406SOL    HW178065   8.187   2.250   5.580  0.1689 -0.0215 -0.9930
24406SOL    HW278066   8.120   2.370   5.517  1.3332  1.4236  0.4372
24407SOL     OW78067   7.549   4.514   5.192  0.4068  0.2755 -0.5577
24407SOL    HW178068   7.596   4.444   5.146 -0.2181  0.6522 -1.8154
24407SOL    HW278069   7.504   4.469   5.263  0.1595 -0.5880 -1.2318
24408SOL     OW78070   9.408   2.157   6.079 -0.1220 -0.0401 -0.0404
24408SOL    HW178071   9.400   2.168   5.984  2.5990 -0.1060 -0.3751
24408SOL    HW278072   9.412   2.063   6.092  2.2884 -0.0475 -0.2820
24409SOL     OW78073   6.022   4.048   6.398  0.0352 -0.2377 -0.0232
24409SOL    HW178074   6.091   4.102   6.437  0.3695  0.5805 -1.6691
24409SOL    HW278075   6.054   3.959   6.406  0.2331 -0.0726  1.2558
24410SOL     OW78076   8.780   3.064   6.219 -0.1338  0.2978  0.2283
24410SOL    HW178077   8.760   3.039   6.129 -0.5670 -1.2624  0.7244
24410SOL    HW278078   8.837   2.994   6.252  1.3714  1.6715  0.6849
24411SOL     OW78079   7.389   2.569   6.924 -0.0250  0.0491  0.0186
24411SOL    HW178080   7.343   2.559   6.841  1.2799  2.0406 -1.0045
24411SOL    HW278081   7.475   2.604   6.901  0.6684 -0.0860  2.1496
24412SOL     OW78082   0.353   2.997   6.373  0.2315  0.4847  0.7223
24412SOL    HW178083   0.446   2.984   6.392  0.4036 -1.2476 -0.9381
24412SOL    HW278084   0.307   2.963   6.449  0.9425  0.6410  1.2284
24413SOL     OW78085   6.339   2.594   6.962  0.1774 -0.2114 -0.6828
24413SOL    HW178086   6.303   2.515   6.920 -0.6619 -0.2227  0.0263
24413SOL    HW278087   6.374   2.562   7.045 -0.1144  0.1494 -0.4195
24414SOL     OW78088   8.541   2.532   6.790  0.1702  0.2835  0.0716
24414SOL    HW178089   8.632   2.505   6.783 -0.1259 -0.9539  0.7568
24414SOL    HW278090   8.545   2.620   6.829  1.0351 -0.3786  1.5383
24415SOL     OW78091   1.218   2.993   5.934 -0.3675 -0.3107  0.1121
24415SOL    HW178092   1.261   3.047   5.868  0.1782 -0.7076  0.1422
24415SOL    HW278093   1.192   3.055   6.002  3.0064 -0.3780  1.6728
24416SOL     OW78094   6.848   5.530   6.463 -0.5961 -0.5309  0.1091
24416SOL    HW178095   6.929   5.491   6.430  1.5113  1.9996  1.9269
24416SOL    HW278096   6.816   5.584   6.390  0.5287  0.1118  0.0840
24417SOL     OW78097   9.046   3.085   4.534  0.3168 -0.3275 -0.4388
24417SOL    HW178098   9.127   3.039   4.556  0.9480 -0.0856 -2.1158
24417SOL    HW278099   8.976   3.025   4.559  1.0640 -1.3206 -0.6813
24418SOL     OW78100   0.241   2.860   4.706  0.0024 -0.4876  0.4961
24418SOL    HW178101   0.148   2.867   4.685 -0.0773 -1.7627  0.3540
24418SOL    HW278102   0.261   2.939   4.757 -0.8159  0.5153 -0.6818
24419SOL     OW78103   8.600   1.328   7.892  0.0148  0.5689 -0.6146
24419SOL    HW178104   8.629   1.405   7.842 -0.0617  1.0442  0.0540
24419SOL    HW278105   8.547   1.277   7.830  1.2294  0.3286 -1.4784
24420SOL     OW78106   0.099   2.722   4.962  0.0896  0.3118 -0.0844
24420SOL    HW178107   0.075   2.792   4.902  1.8781  1.8986  0.9231
24420SOL    HW278108   0.117   2.767   5.045 -0.0493 -1.5154  0.9884
24421SOL     OW78109   0.346   1.240   7.111 -0.0171 -0.1033 -0.0779
24421SOL    HW178110   0.274   1.220   7.171  0.4981  1.2318  1.0326
24421SOL    HW278111   0.371   1.155   7.075 -1.1933 -0.7691  0.6199
24422SOL     OW78112   9.244   3.513   6.259  0.3044  0.1759 -0.3865
24422SOL    HW178113   9.325   3.553   6.290  2.3942 -2.1546 -2.4111
24422SOL    HW278114   9.233   3.436   6.314 -1.3625  1.1684  0.7471
24423SOL     OW78115   5.386   3.456   5.076  0.6615  0.7762 -0.5125
24423SOL    HW178116   5.362   3.401   5.002 -0.4155  1.0279 -0.3614
24423SOL    HW278117   5.384   3.398   5.152  0.5021  0.8039 -0.4955
24424SOL     OW78118   3.574   3.114   8.266  0.3245  0.0430  0.0704
24424SOL    HW178119   3.512   3.043   8.249 -0.3129  0.8698 -1.2219
24424SOL    HW278120   3.651   3.070   8.304 -1.5078 -0.8529  3.0607
24425SOL     OW78121   7.056   2.422   7.795 -0.7691  0.1224  0.1407
24425SOL    HW178122   7.120   2.468   7.850 -0.5415 -1.3186  1.1234
24425SOL    HW278123   6.989   2.487   7.777  0.3383  1.3108  0.1378
24426SOL     OW78124   5.974   1.972   7.403  0.8193  0.6418  0.1280
24426SOL    HW178125   6.036   1.900   7.411 -0.0629 -0.1279  0.2488
24426SOL    HW278126   5.971   2.011   7.490 -0.9604 -1.1281  0.9394
24427SOL     OW78127   7.930   2.611   5.468  0.6639  0.1623  0.1533
24427SOL    HW178128   7.984   2.557   5.411  2.2698  1.2319  0.5870
24427SOL    HW278129   7.954   2.583   5.557 -1.4674 -1.1641  0.3826
24428SOL     OW78130   6.763   1.961   7.485 -0.0897  0.3164  0.4248
24428SOL    HW178131   6.803   1.874   7.479 -2.3172 -0.6984 -1.0178
24428SOL    HW278132   6.722   1.963   7.572  1.4416  0.6620  1.1729
24429SOL     OW78133   8.730   2.110   6.382  0.0638 -0.6866  0.1190
24429SOL    HW178134   8.795   2.175   6.405  0.0925 -0.2528 -1.0961
24429SOL    HW278135   8.653   2.133   6.434  0.7038 -0.9043  1.1877
24430SOL     OW78136   6.794   4.928   7.434 -0.6474 -0.1222  0.6662
24430SOL    HW178137   6.828   4.884   7.356  0.2884 -0.7485  1.3836
24430SOL    HW278138   6.745   4.860   7.480 -1.5538  0.3581  0.4164
24431SOL     OW78139   8.878   3.689   7.185 -0.0096 -0.3105  0.1525
24431SOL    HW178140   8.830   3.772   7.179  0.9952  0.1751 -2.6770
24431SOL    HW278141   8.958   3.711   7.233 -0.6357 -0.1194  1.1279
24432SOL     OW78142   5.089   2.382   6.148  0.1923  0.0354  0.5918
24432SOL    HW178143   4.997   2.361   6.137  0.1965  0.9547 -1.6991
24432SOL    HW278144   5.134   2.298   6.141 -0.4024 -0.3496  1.2294
24433SOL     OW78145   0.244   0.854   6.884  0.2804  0.3337 -0.1640
24433SOL    HW178146   0.303   0.914   6.838  1.7099 -1.1637 -0.3301
24433SOL    HW278147   0.218   0.902   6.963  3.7608  0.1288  1.2683
24434SOL     OW78148   8.466   4.098   7.445 -0.4334  0.0082  0.3730
24434SOL    HW178149   8.508   4.172   7.400  1.0108 -0.6308  0.5983
24434SOL    HW278150   8.534   4.030   7.447 -1.6690 -1.2726  0.3225
24435SOL     OW78151   1.293   2.062   6.231 -0.1803  0.3995 -0.3618
24435SOL    HW178152   1.217   2.070   6.175  0.7153  2.6946 -1.3757
24435SOL    HW278153   1.287   2.135   6.292 -0.7797 -1.6462  2.2296
24436SOL     OW78154   1.283   2.129   8.611 -0.9188 -0.4223  0.4585
24436SOL    HW178155   1.228   2.142   8.688 -3.1445 -0.1370 -1.0911
24436SOL    HW278156   1.253   2.195   8.548 -0.5117 -1.8430 -1.3224
24437SOL     OW78157   8.212   4.193   7.353  0.4364  0.4333 -0.7148
24437SOL    HW178158   8.244   4.277   7.386  0.7508  0.9440 -2.2134
24437SOL    HW278159   8.271   4.128   7.390  2.8268  1.2713 -2.7429
24438SOL     OW78160   8.473   3.172   4.775  0.6799 -0.0832 -0.3163
24438SOL    HW178161   8.547   3.223   4.741  0.6641 -0.0048 -0.2328
24438SOL    HW278162   8.507   3.083   4.781  0.5815 -0.1619 -0.8579
24439SOL     OW78163   8.511   3.695   5.427 -0.4039  0.4190 -0.0050
24439SOL    HW178164   8.586   3.636   5.423  0.2577  1.2793 -0.9087
24439SOL    HW278165   8.530   3.753   5.501 -0.0512  0.7744 -0.3659
24440SOL     OW78166   8.443   4.627   4.120 -0.4343 -0.0996  0.1780
24440SOL    HW178167   8.483   4.544   4.093  1.0270  0.4017  0.7377
24440SOL    HW278168   8.499   4.659   4.190 -2.6992 -0.1096  2.1125
24441SOL     OW78169   9.541   1.929   7.606 -0.2297  0.1431 -0.2027
24441SOL    HW178170   9.580   2.013   7.631  0.8123 -0.5017  0.3921
24441SOL    HW278171   9.598   1.863   7.645 -2.4768 -0.8798  1.6738
24442SOL     OW78172   8.048   1.116   5.202 -0.0864 -0.1656  0.1315
24442SOL    HW178173   7.989   1.068   5.260 -0.8635 -0.2247 -0.7047
24442SOL    HW278174   8.023   1.208   5.213 -0.5445 -0.2172 -0.4493
24443SOL     OW78175   6.538   4.110   6.638 -0.1477 -0.0152  0.2661
24443SOL    HW178176   6.633   4.099   6.636 -0.1223  0.2180  0.1665
24443SOL    HW278177   6.517   4.117   6.731 -0.0872 -0.2132  0.2971
24444SOL     OW78178   8.790   2.430   6.477  0.1440  0.0043  0.1658
24444SOL    HW178179   8.756   2.393   6.395 -0.8190  1.3270 -0.0476
24444SOL    HW278180   8.839   2.508   6.450 -1.2114  1.1527  0.9371
24445SOL     OW78181   9.192   0.883   7.498  0.1284 -0.2050 -0.7462
24445SOL    HW178182   9.189   0.865   7.592  1.1397  0.7801 -0.5085
24445SOL    HW278183   9.109   0.928   7.480 -1.3327 -2.7540 -0.8953
24446SOL     OW78184   9.640   2.735   6.911 -0.0439 -0.1637 -0.5971
24446SOL    HW178185   9.623   2.729   6.817  0.8302 -0.6495 -0.7357
24446SOL    HW278186   9.735   2.738   6.918 -0.0808 -0.7660  0.3090
24447SOL     OW78187   7.123   2.446   6.282 -0.9435 -0.3510 -0.1622
24447SOL    HW178188   7.217   2.444   6.266 -0.8341 -1.9308  0.5461
24447SOL    HW278189   7.103   2.540   6.290  0.3983  0.0563 -1.1365
24448SOL     OW78190   0.490   1.138   7.638  0.3866 -0.0544  0.2566
24448SOL    HW178191   0.474   1.046   7.660 -2.2050  0.1149 -0.6322
24448SOL    HW278192   0.491   1.139   7.542 -0.3161  0.9421  0.2566
24449SOL     OW78193   7.603   1.824   5.510 -0.1194 -0.2505 -0.4175
24449SOL    HW178194   7.652   1.804   5.590 -0.7919 -1.3040 -0.2501
24449SOL    HW278195   7.613   1.745   5.456  0.9711  0.7358 -1.7136
24450SOL     OW78196   0.755   2.522   6.665  0.2404 -0.4830  0.0542
24450SOL    HW178197   0.699   2.476   6.728 -1.6818  0.1578 -1.0848
24450SOL    HW278198   0.698   2.536   6.589  1.9278  0.3882 -1.1093
24451SOL     OW78199   5.996   2.245   6.922 -0.3422 -0.0201 -0.5917
24451SOL    HW178200   5.922   2.271   6.867 -0.6953 -1.3865 -0.8090
24451SOL    HW278201   6.072   2.253   6.864 -0.5730 -0.4312 -0.9605
24452SOL     OW78202   8.258   4.557   7.274 -0.3251  0.0569 -0.1321
24452SOL    HW178203   8.307   4.484   7.312 -0.6704 -0.8062 -1.2776
24452SOL    HW278204   8.233   4.611   7.348  1.4856 -0.0206  0.5753
24453SOL     OW78205   9.005   1.759   6.263 -0.1503  0.3813 -0.0550
24453SOL    HW178206   9.033   1.822   6.197 -0.3443  0.6416  0.1108
24453SOL    HW278207   8.914   1.783   6.283 -1.0929 -1.4648 -1.7832
24454SOL     OW78208   9.370   2.210   4.475  0.4456  0.1531 -0.2556
24454SOL    HW178209   9.374   2.187   4.382 -0.8893  1.9115 -0.8187
24454SOL    HW278210   9.283   2.183   4.502  0.2173  1.1085  0.0154
24455SOL     OW78211   7.013   1.432   6.364 -0.2055 -0.3970  0.3700
24455SOL    HW178212   7.047   1.521   6.369 -2.0368  0.3144  0.8528
24455SOL    HW278213   7.061   1.392   6.291 -0.5216  1.5179 -0.9651
24456SOL     OW78214   8.887   0.994   6.092  0.0684  0.1670  0.3118
24456SOL    HW178215   8.919   0.944   6.167 -2.7696 -1.0825  0.8255
24456SOL    HW278216   8.927   1.081   6.103  3.2305 -1.2080  0.7214
24457SOL     OW78217   9.572   0.154   5.476  0.0873 -0.0651  0.6108
24457SOL    HW178218   9.592   0.063   5.455  2.5957  0.3906  0.7027
24457SOL    HW278219   9.641   0.204   5.432 -1.1314  1.7835  0.7260
24458SOL     OW78220   9.438   2.364   4.716 -0.0658  0.1803  0.2419
24458SOL    HW178221   9.464   2.295   4.777 -0.1074 -0.3250 -0.3079
24458SOL    HW278222   9.408   2.318   4.638 -0.3325  0.8144 -0.0389
24459SOL     OW78223   9.625   2.031   5.676  0.6410  0.8063  0.5021
24459SOL    HW178224   9.541   1.986   5.681  0.8570 -0.0553 -2.0616
24459SOL    HW278225   9.611   2.102   5.613  1.3491  1.9447  1.5708
24460SOL     OW78226   6.906   1.292   7.065 -0.3639 -0.9839  0.6066
24460SOL    HW178227   6.873   1.232   7.132  0.3978 -1.5528  0.4845
24460SOL    HW278228   6.856   1.269   6.986  0.2625 -1.8155  0.4322
24461SOL     OW78229   8.616   1.975   6.656 -0.3328  0.1968  0.1812
24461SOL    HW178230   8.590   1.976   6.748  1.5871 -1.1080  0.8014
24461SOL    HW278231   8.697   2.026   6.654 -1.3334  1.8409 -1.1765
24462SOL     OW78232   1.162   1.308   9.565  0.5469  0.3625  0.1061
24462SOL    HW178233   1.138   1.399   9.585 -1.0668  0.3089 -1.3662
24462SOL    HW278234   1.145   1.299   9.471 -0.8038 -1.8870  0.5058
24463SOL     OW78235   8.746   3.920   8.972 -0.2947  0.0677 -0.0907
24463SOL    HW178236   8.778   3.880   8.891 -0.2591 -0.0772 -0.0053
24463SOL    HW278237   8.698   3.850   9.016 -3.3849  1.0501 -1.6180
24464SOL     OW78238   7.582   1.725   7.438 -0.5550  0.1613  0.2745
24464SOL    HW178239   7.617   1.744   7.525  1.5008  0.2828 -0.5268
24464SOL    HW278240   7.568   1.631   7.438 -0.9498  0.2093  0.8384
24465SOL     OW78241   9.554   1.369   6.183  0.2392 -0.1816 -0.2147
24465SOL    HW178242   9.617   1.362   6.254  0.7434 -0.3227 -0.6659
24465SOL    HW278243   9.570   1.456   6.145  0.3325 -0.3130 -0.4829
24466SOL     OW78244   8.083   3.060   8.609 -0.8223 -0.1297  0.7633
24466SOL    HW178245   8.059   3.149   8.582 -0.3605 -0.8237 -2.4536
24466SOL    HW278246   8.138   3.028   8.537  0.1103 -2.5922  2.4407
24467SOL     OW78247   9.493   1.125   0.376  0.0683 -0.4924 -0.2284
24467SOL    HW178248   9.542   1.182   0.317  1.1919  0.1395  1.2528
24467SOL    HW278249   9.505   1.164   0.462  0.1645 -2.5102  0.7120
24468SOL     OW78250   6.710   2.238   8.346 -0.8515  0.4728  0.0908
24468SOL    HW178251   6.657   2.160   8.365 -0.5324 -0.1570 -1.4036
24468SOL    HW278252   6.791   2.225   8.395  0.3376 -1.5472 -2.1935
24469SOL     OW78253   5.377   0.310   8.191  0.7382  0.0154 -0.3955
24469SOL    HW178254   5.438   0.313   8.117  2.3466 -1.3280  0.8364
24469SOL    HW278255   5.349   0.219   8.196 -1.1872  0.5396 -0.7307
24470SOL     OW78256   3.977   2.504   7.669  0.5412 -0.1276  0.3831
24470SOL    HW178257   3.960   2.580   7.614 -0.8336 -0.2078  0.6659
24470SOL    HW278258   3.950   2.429   7.616  2.2212 -0.4700 -0.0314
24471SOL     OW78259   7.519   5.416   0.626 -0.3423 -0.0462 -0.3518
24471SOL    HW178260   7.529   5.324   0.600 -0.3145  0.0743 -0.7710
24471SOL    HW278261   7.569   5.465   0.561  0.1478  0.2244  0.2212
24472SOL     OW78262   8.628   0.694   8.873  0.2922 -0.3367 -0.2520
24472SOL    HW178263   8.645   0.714   8.965  1.3633  0.3141 -0.5797
24472SOL    HW278264   8.545   0.738   8.854 -0.0728 -0.6939  0.4522
24473SOL     OW78265   8.727   3.052   7.973 -0.2638 -1.3466  0.4377
24473SOL    HW178266   8.801   3.044   8.033 -0.8242 -0.2203  1.3032
24473SOL    HW278267   8.667   2.982   8.000  0.1382 -1.7935  0.2021
24474SOL     OW78268   7.612   2.988   0.885 -0.4786  0.0120 -0.0687
24474SOL    HW178269   7.668   2.913   0.908 -0.3401 -0.4761 -1.8402
24474SOL    HW278270   7.525   2.951   0.875 -0.7783  0.4394  0.8248
24475SOL     OW78271   8.731   3.008   7.126  0.0608  0.4233 -0.1022
24475SOL    HW178272   8.636   2.994   7.125 -0.2593  2.2197 -1.8374
24475SOL    HW278273   8.767   2.927   7.161 -2.0692 -0.5780 -0.0733
24476SOL     OW78274   9.366   4.406   7.484  0.1776 -0.0532 -0.5019
24476SOL    HW178275   9.286   4.447   7.452  0.9987  2.1257  0.0628
24476SOL    HW278276   9.437   4.455   7.441  1.2230 -0.4427  0.7320
24477SOL     OW78277   7.380   1.982   9.653 -0.3384  0.0158  0.1989
24477SOL    HW178278   7.360   1.999   9.745 -2.9841 -0.6711 -0.1734
24477SOL    HW278279   7.414   2.065   9.620 -0.0017  0.4652  1.6150
24478SOL     OW78280   7.903   2.221   8.026  0.3429  0.6435  0.6474
24478SOL    HW178281   7.899   2.135   8.067 -0.5993  0.2251 -0.2689
24478SOL    HW278282   7.938   2.205   7.938 -1.1587  0.9612 -0.0481
24479SOL     OW78283   4.748   1.802   6.745  0.5799 -0.1222  0.0722
24479SOL    HW178284   4.706   1.869   6.800 -0.0381 -1.7672  1.7171
24479SOL    HW278285   4.826   1.776   6.795 -1.5230 -3.7504  1.8536
24480SOL     OW78286   9.167   8.706   9.590 -0.3328  0.7185  1.1331
24480SOL    HW178287   9.074   8.692   9.611 -0.4601  0.1714  0.2293
24480SOL    HW278288   9.211   8.627   9.619 -0.8070 -1.0322 -2.3945
24481SOL     OW78289   7.456   9.816   6.867  0.8011 -0.5218  0.0921
24481SOL    HW178290   7.406   9.896   6.851  2.6716  0.4880 -1.0866
24481SOL    HW278291   7.408   9.771   6.936  0.0528  1.9439  1.2952
24482SOL     OW78292   0.009   4.143   9.158  0.0699  0.5840  0.1260
24482SOL    HW178293   0.060   4.223   9.162 -1.3884  1.5028  1.8316
24482SOL    HW278294   0.031   4.096   9.239  0.5916 -0.5824 -0.6532
24483SOL     OW78295   8.600   3.933   7.764 -0.0990 -0.2815 -0.4609
24483SOL    HW178296   8.680   3.912   7.717 -0.5070 -1.9354 -0.4492
24483SOL    HW278297   8.531   3.889   7.715 -0.9370  0.6119 -0.1144
24484SOL     OW78298   8.994   5.049   1.190  0.6332  0.0287 -0.0216
24484SOL    HW178299   8.966   4.958   1.196  0.7470  0.0167  0.3428
24484SOL    HW278300   8.932   5.089   1.129  0.0631 -0.0905  0.4711
24485SOL     OW78301   7.710   2.461   0.552 -0.0979  0.2975 -0.5184
24485SOL    HW178302   7.802   2.483   0.572 -0.4544  0.1992  1.4663
24485SOL    HW278303   7.704   2.467   0.457  1.9884  0.2396 -0.7021
24486SOL     OW78304   9.319   4.270   0.477  0.5457 -0.4439 -0.1989
24486SOL    HW178305   9.253   4.325   0.435  2.9321  0.7152 -2.7699
24486SOL    HW278306   9.318   4.188   0.427  2.0538  0.2038 -1.4015
24487SOL     OW78307   9.076   1.077   8.894 -0.1056 -0.3991 -0.0436
24487SOL    HW178308   9.170   1.064   8.900 -0.0171 -1.5574 -2.5474
24487SOL    HW278309   9.041   1.037   8.974  1.4441 -1.0727  0.3420
24488SOL     OW78310   8.687   4.031   9.667 -0.1396 -0.0485  0.5537
24488SOL    HW178311   8.782   4.021   9.667 -0.2171 -1.2167 -1.3369
24488SOL    HW278312   8.657   3.973   9.737  0.4255 -1.6181 -0.4561
24489SOL     OW78313   6.909   4.825   8.526  0.1489 -0.3443  0.2443
24489SOL    HW178314   6.931   4.737   8.496 -1.1569 -0.7199  0.3430
24489SOL    HW278315   6.873   4.813   8.614 -0.5951  0.2061  0.0345
24490SOL     OW78316   8.171   2.635   8.176  0.5122 -0.4105 -0.6292
24490SOL    HW178317   8.149   2.544   8.157 -0.1804 -0.1284 -1.2141
24490SOL    HW278318   8.192   2.673   8.091  1.2206 -0.1259 -0.3360
24491SOL     OW78319   9.228   2.068   9.678  0.1554  0.0716 -0.0359
24491SOL    HW178320   9.267   2.090   9.763  0.0307  0.7001 -0.1440
24491SOL    HW278321   9.303   2.046   9.623  0.3771  1.3312 -0.2596
24492SOL     OW78322   8.259   3.680   0.520 -0.2659  0.4270 -0.1450
24492SOL    HW178323   8.325   3.749   0.532 -1.4096  1.2912  1.5086
24492SOL    HW278324   8.181   3.713   0.564 -1.6368 -0.8595 -1.5024
24493SOL     OW78325   7.175   2.021   8.074 -0.4900  0.0080  0.5626
24493SOL    HW178326   7.244   2.088   8.073 -1.2443  0.8169  0.9080
24493SOL    HW278327   7.212   1.949   8.125  0.1174  0.4090  0.7073
24494SOL     OW78328   7.940   1.877   6.126  0.5203 -0.0118 -0.5279
24494SOL    HW178329   7.996   1.802   6.144  2.5965  1.3772 -0.8467
24494SOL    HW278330   7.951   1.894   6.033 -0.9843 -0.0762 -0.7500
24495SOL     OW78331   8.433   4.658   7.107  0.3473 -0.0840  0.2550
24495SOL    HW178332   8.382   4.720   7.055  0.5010 -0.1138  0.0672
24495SOL    HW278333   8.378   4.638   7.182  0.6819  1.0415  0.8267
24496SOL     OW78334   8.945   2.438   8.680 -0.1471 -0.3282  0.0272
24496SOL    HW178335   8.946   2.530   8.706  0.8005 -0.3906  0.2622
24496SOL    HW278336   8.887   2.435   8.604  0.9825  0.7442 -0.9253
24497SOL     OW78337   8.623   0.057   7.077  0.1980  0.3006  0.1686
24497SOL    HW178338   8.681   0.004   7.132 -0.9043 -2.3721 -1.0169
24497SOL    HW278339   8.682   0.119   7.033  1.4827  0.5598  2.1171
24498SOL     OW78340   9.610   1.062   8.228 -0.0387  0.1402 -0.1665
24498SOL    HW178341   9.696   1.084   8.192  0.6573 -0.6933  0.9274
24498SOL    HW278342   9.568   1.147   8.240  0.8849  0.6116 -0.1178
24499SOL     OW78343   7.966   3.732   8.069 -0.0352  0.3955  0.5543
24499SOL    HW178344   8.016   3.776   8.000 -0.3318 -0.3267 -0.1424
24499SOL    HW278345   7.947   3.801   8.133  0.6712  0.9702  0.1601
24500SOL     OW78346   8.300   1.407   6.432 -0.3966 -0.0482  0.2860
24500SOL    HW178347   8.386   1.428   6.469 -0.1957  1.1700 -0.8029
24500SOL    HW278348   8.319   1.345   6.361 -0.3500  0.5575 -0.2412
24501SOL     OW78349   8.442   6.019   1.282  0.3271  0.2836  0.3124
24501SOL    HW178350   8.351   6.047   1.290  0.0384 -0.1821 -0.9606
24501SOL    HW278351   8.454   5.955   1.352 -0.4021  0.1859  0.3537
24502SOL     OW78352   8.613   2.496   8.941  0.2743  0.3830 -0.0038
24502SOL    HW178353   8.614   2.547   9.022 -0.1742  0.4915 -0.0650
24502SOL    HW278354   8.548   2.427   8.957  2.0887 -1.2400  0.7232
24503SOL     OW78355   1.597   2.580   9.745  0.2559  0.7200  0.7287
24503SOL    HW178356   1.525   2.534   9.787 -1.5049  0.8518 -1.9201
24503SOL    HW278357   1.664   2.589   9.814 -0.9932 -2.0702  2.4479
24504SOL     OW78358   8.245   3.381   8.158 -0.4054 -0.3329 -0.0439
24504SOL    HW178359   8.153   3.391   8.131 -0.6148 -1.3687  0.2459
24504SOL    HW278360   8.291   3.449   8.110 -1.4568  0.8089  0.5010
24505SOL     OW78361   6.535   3.154   8.642 -0.6130 -0.4026 -0.5467
24505SOL    HW178362   6.534   3.137   8.548  0.8777  0.1959 -0.6939
24505SOL    HW278363   6.623   3.127   8.671 -1.1657 -0.9096  0.7397
24506SOL     OW78364   7.415   5.597   7.315 -0.1847 -0.0611 -0.3490
24506SOL    HW178365   7.504   5.631   7.319 -0.1585  0.2489 -2.3738
24506SOL    HW278366   7.376   5.621   7.400  1.1604  1.2193 -0.0566
24507SOL     OW78367   8.220   2.950   7.668 -0.3625  0.1428 -0.3707
24507SOL    HW178368   8.158   2.877   7.677  0.5502 -0.6738 -0.5516
24507SOL    HW278369   8.228   2.986   7.756 -0.5157 -0.2338 -0.2006
24508SOL     OW78370   0.570   5.177   0.458 -0.3875  0.2944  0.7748
24508SOL    HW178371   0.507   5.248   0.467 -0.3672  0.2802  1.0464
24508SOL    HW278372   0.647   5.206   0.506  0.1823  0.7227 -0.3615
24509SOL     OW78373   7.205   5.085   7.332 -0.1508  0.4442 -0.7213
24509SOL    HW178374   7.298   5.108   7.330 -0.0126  0.9094  3.1527
24509SOL    HW278375   7.203   4.990   7.336  0.0768  0.3875 -1.7828
24510SOL     OW78376   5.066   3.515   9.302 -0.2991  0.1357  0.4621
24510SOL    HW178377   5.015   3.550   9.376  0.6358  0.4385  0.9821
24510SOL    HW278378   5.002   3.469   9.249 -1.0829  0.3209  1.2133
24511SOL     OW78379   9.523   0.722   0.578 -0.4766 -0.3591  0.2258
24511SOL    HW178380   9.565   0.773   0.647 -3.5353 -0.5139  2.3802
24511SOL    HW278381   9.510   0.635   0.616  2.4808 -2.2652 -2.5465
24512SOL     OW78382   8.086   2.460   7.370 -0.2681  0.3597 -0.1981
24512SOL    HW178383   8.142   2.451   7.293 -1.4164 -1.1287 -0.9181
24512SOL    HW278384   8.137   2.512   7.432  0.0125  3.2883 -2.6187
24513SOL     OW78385   8.304   3.184   9.633 -0.5033  0.0765 -0.4759
24513SOL    HW178386   8.328   3.106   9.584  3.7736  0.8262  0.0488
24513SOL    HW278387   8.366   3.251   9.604 -1.4550  2.1477  1.8783
24514SOL     OW78388   7.534   1.396   8.800  0.1885 -0.2171 -0.4442
24514SOL    HW178389   7.496   1.467   8.748 -0.0144  0.3857  0.5098
24514SOL    HW278390   7.627   1.399   8.780  0.1342  0.1045 -0.6546
24515SOL     OW78391   7.256   2.557   8.196 -0.0298  0.1406  0.4238
24515SOL    HW178392   7.286   2.574   8.285  1.1655  0.3085  0.0190
24515SOL    HW278393   7.249   2.461   8.190 -0.1575  0.1331  0.7125
24516SOL     OW78394   8.217   3.816   9.634  0.0679 -0.2174 -0.2678
24516SOL    HW178395   8.302   3.807   9.678  0.0720 -1.2178 -0.4660
24516SOL    HW278396   8.237   3.808   9.541 -0.1057  0.6743 -0.3922
24517SOL     OW78397   6.854   3.804   7.029 -0.4424 -0.3932  0.1993
24517SOL    HW178398   6.810   3.868   6.972 -0.5772  0.2998  1.0584
24517SOL    HW278399   6.861   3.725   6.976 -2.7057 -0.5177  0.0122
24518SOL     OW78400   9.411   7.951   9.819 -0.4558  0.3798  0.0972
24518SOL    HW178401   9.465   7.936   9.897  0.7189 -0.9734 -0.9370
24518SOL    HW278402   9.340   7.887   9.826 -0.6344  0.5950  0.2885
24519SOL     OW78403   8.313   1.474   6.107  0.4244 -0.1240  0.2240
24519SOL    HW178404   8.292   1.383   6.127  1.8002 -0.2271  1.3199
24519SOL    HW278405   8.302   1.520   6.191  1.4567  0.3859  0.0889
24520SOL     OW78406   8.824   2.410   9.302 -0.2325  0.0402 -0.2350
24520SOL    HW178407   8.919   2.419   9.299  0.0027 -2.1408 -2.1346
24520SOL    HW278408   8.802   2.418   9.395  1.7094  1.1583  0.1772
24521SOL     OW78409   6.520   1.624   7.648 -0.1430 -0.1746  0.2515
24521SOL    HW178410   6.468   1.690   7.694 -1.4789  1.4436 -3.2635
24521SOL    HW278411   6.606   1.665   7.636 -0.4977  0.3342 -0.6063
24522SOL     OW78412   6.318   2.890   6.120 -0.6100  0.1255 -0.1906
24522SOL    HW178413   6.362   2.935   6.192 -0.0815 -2.4689  1.2535
24522SOL    HW278414   6.336   2.943   6.043  1.3812  1.4334  1.0916
24523SOL     OW78415   9.457   9.738   0.083 -0.4106  0.2451 -0.1442
24523SOL    HW178416   9.540   9.718   0.041 -1.0984 -2.9203 -0.2201
24523SOL    HW278417   9.469   9.711   0.174 -1.3991 -0.4853 -0.2098
24524SOL     OW78418   7.838   3.968   8.153 -0.1079 -0.5259 -0.4517
24524SOL    HW178419   7.840   4.059   8.183  0.0863 -0.8614  0.6047
24524SOL    HW278420   7.822   3.974   8.059 -0.8510  0.5763 -0.2820
24525SOL     OW78421   6.948   3.360   8.107 -0.3557 -0.5384  0.2479
24525SOL    HW178422   6.966   3.404   8.024 -0.1711  0.3194  0.7234
24525SOL    HW278423   6.971   3.268   8.091  2.4917  0.0854  0.1714
24526SOL     OW78424   9.677   7.141   0.161 -0.2498  0.5302  0.3731
24526SOL    HW178425   9.674   7.071   0.226  1.3471 -0.7353 -0.8450
24526SOL    HW278426   9.763   7.133   0.121 -0.7656  1.9988 -1.1403
24527SOL     OW78427   6.539   3.234   7.376 -0.2785  0.3159 -0.6263
24527SOL    HW178428   6.485   3.223   7.298 -0.9734 -0.4904 -0.0534
24527SOL    HW278429   6.578   3.148   7.391 -2.4081 -0.4099  1.4971
24528SOL     OW78430   0.549   1.986   8.640  0.2153 -0.7154 -0.0447
24528SOL    HW178431   0.615   2.048   8.671 -0.9392 -0.3580  1.8600
24528SOL    HW278432   0.487   2.041   8.591  0.1366 -0.6559  0.1195
24529SOL     OW78433   0.581   3.939   9.731 -0.2993  0.2243  0.1879
24529SOL    HW178434   0.579   3.957   9.637  2.4258 -0.6744 -0.1262
24529SOL    HW278435   0.674   3.937   9.753 -0.8666  0.6025  2.9743
24530SOL     OW78436   8.093   4.641   7.477 -0.1927  0.7961  0.3227
24530SOL    HW178437   8.000   4.661   7.487 -0.1117  1.1198  0.4318
24530SOL    HW278438   8.106   4.563   7.531 -0.1574  1.4302  1.2545
24531SOL     OW78439   7.366   2.654   9.036  0.0111 -0.0573 -0.1579
24531SOL    HW178440   7.313   2.683   8.961 -0.1278  2.2293  0.7518
24531SOL    HW278441   7.455   2.685   9.016 -0.4819  3.0135  1.6756
24532SOL     OW78442   9.226   2.585   8.213  0.0988  0.0990 -0.0445
24532SOL    HW178443   9.300   2.576   8.153  0.5380  0.3772  0.4366
24532SOL    HW278444   9.213   2.497   8.249  0.5959  0.1636  0.3144
24533SOL     OW78445   0.040   3.640   8.211 -0.3199  0.6598  0.3553
24533SOL    HW178446   0.057   3.610   8.121  0.6308  2.2482 -0.0265
24533SOL    HW278447   0.090   3.721   8.219  0.4838  0.0160  2.6781
24534SOL     OW78448   8.003   1.798   6.571 -0.6834  0.3398 -0.0965
24534SOL    HW178449   8.004   1.878   6.519  1.6363  0.2341 -0.3270
24534SOL    HW278450   8.059   1.737   6.522  0.3848 -0.2639  1.7573
24535SOL     OW78451   7.512   0.739   9.709  0.6799 -1.1702  0.3763
24535SOL    HW178452   7.474   0.787   9.782  3.5065  1.5697  0.2406
24535SOL    HW278453   7.457   0.762   9.634 -0.1209 -1.0641  0.9863
24536SOL     OW78454   0.111   0.759   0.546 -0.1009  0.3115 -0.1205
24536SOL    HW178455   0.030   0.760   0.598 -0.4803  1.2154 -0.7110
24536SOL    HW278456   0.120   0.848   0.513  0.3235 -0.1473 -1.3059
24537SOL     OW78457   8.899   1.015   5.347  0.3116 -0.3517 -0.5335
24537SOL    HW178458   8.935   1.101   5.371 -0.0619  0.3473 -2.3098
24537SOL    HW278459   8.809   1.034   5.321 -0.2985 -1.5589  0.6177
24538SOL     OW78460   7.640   2.788   6.644  0.0540  0.0428  0.0513
24538SOL    HW178461   7.694   2.813   6.719 -0.4837 -0.4720  0.6227
24538SOL    HW278462   7.623   2.870   6.598 -0.6522  0.5756  1.1920
24539SOL     OW78463   9.632   5.124   6.473 -0.6883  0.6607 -0.2812
24539SOL    HW178464   9.715   5.170   6.478 -0.4566  0.1560  0.8603
24539SOL    HW278465   9.655   5.035   6.446 -0.7445  0.2980  0.7952
24540SOL     OW78466   9.775   3.031   7.597  0.4165  0.0667 -0.7813
24540SOL    HW178467   9.706   2.980   7.555  0.5968 -2.4132  1.6586
24540SOL    HW278468   9.856   2.998   7.558  0.4023  0.7564 -1.4161
24541SOL     OW78469   8.838   4.240   6.144 -0.3785 -0.1004  0.1755
24541SOL    HW178470   8.903   4.231   6.214 -1.3728 -3.2589  0.8323
24541SOL    HW278471   8.754   4.226   6.187 -1.4996  2.4870 -0.9255
24542SOL     OW78472   0.124   3.677   0.332  0.3232  0.1895  0.6057
24542SOL    HW178473   0.116   3.726   0.414 -1.4857 -1.1088  1.2900
24542SOL    HW278474   0.218   3.675   0.313  0.9132 -0.4120  3.2512
24543SOL     OW78475   7.816   2.315   8.944  0.0227 -0.0048 -0.2738
24543SOL    HW178476   7.805   2.234   8.895 -0.1343  0.0438 -0.3221
24543SOL    HW278477   7.775   2.382   8.889 -1.5123 -0.1863  0.5944
24544SOL     OW78478   8.370   3.339   8.519  0.1522 -0.0793 -0.0279
24544SOL    HW178479   8.379   3.434   8.516 -0.3445 -0.0367 -0.2307
24544SOL    HW278480   8.303   3.318   8.454  0.7690 -0.6411 -0.5082
24545SOL     OW78481   8.647   3.570   7.760  0.1378 -0.1005  0.2122
24545SOL    HW178482   8.572   3.589   7.704 -0.2772 -1.3198  0.3235
24545SOL    HW278483   8.718   3.550   7.699 -0.2287 -1.1120  0.1013
24546SOL     OW78484   8.654   2.402   7.929  0.1029 -0.2502  0.7878
24546SOL    HW178485   8.712   2.471   7.961 -1.2633  1.3330 -0.0008
24546SOL    HW278486   8.668   2.401   7.834 -3.1164  2.2540  0.0936
24547SOL     OW78487   9.511   0.565   0.800 -0.4460 -0.1047  0.5868
24547SOL    HW178488   9.510   0.611   0.884  2.0100 -0.1205  0.7111
24547SOL    HW278489   9.518   0.472   0.823 -0.3948 -0.1533  0.3763
24548SOL     OW78490   8.994   1.823   0.237  0.7528 -0.1875  0.0639
24548SOL    HW178491   9.066   1.762   0.254  0.3412 -0.7441 -0.1711
24548SOL    HW278492   8.967   1.803   0.147  0.4675  0.1877  0.0658
24549SOL     OW78493   7.411   1.159   8.413 -0.9573 -1.0554  0.2283
24549SOL    HW178494   7.480   1.099   8.444 -1.1263 -1.6228 -0.4738
24549SOL    HW278495   7.443   1.190   8.328 -0.0900  1.1629  1.2838
24550SOL     OW78496   8.534   4.092   9.272 -0.6415  0.5557  0.3577
24550SOL    HW178497   8.476   4.164   9.298 -1.7196  0.2500 -1.0884
24550SOL    HW278498   8.619   4.134   9.257 -0.8267  1.2438  1.1583
24551SOL     OW78499   7.134   4.820   7.933  0.2083 -0.3219  0.1924
24551SOL    HW178500   7.046   4.783   7.946 -0.1808  0.8123  1.0159
24551SOL    HW278501   7.192   4.763   7.982  0.2205 -2.0840 -1.7291
24552SOL     OW78502   9.141   0.449   8.444 -0.2746 -0.4680 -0.3407
24552SOL    HW178503   9.081   0.524   8.450  0.2114  0.2308 -2.8560
24552SOL    HW278504   9.224   0.483   8.478 -0.9414 -1.0917  2.0785
24553SOL     OW78505   8.557   1.733   6.536  0.2249 -0.5096  0.0027
24553SOL    HW178506   8.559   1.810   6.592  2.5534 -0.2161 -0.3809
24553SOL    HW278507   8.612   1.669   6.580  0.8067 -0.8384 -1.1492
24554SOL     OW78508   8.954   2.796   9.747 -0.1039 -0.3697  0.1223
24554SOL    HW178509   9.033   2.807   9.800  0.0793 -0.4650 -0.1312
24554SOL    HW278510   8.944   2.880   9.701  0.7382 -0.8862 -1.0541
24555SOL     OW78511   8.331   3.403   6.214  0.1959  0.6413 -0.1573
24555SOL    HW178512   8.361   3.359   6.293  2.5063 -1.6927 -2.1979
24555SOL    HW278513   8.409   3.443   6.177 -1.1524  3.2439 -0.4529
24556SOL     OW78514   7.887   3.836   8.699 -0.7799  0.0534  0.2441
24556SOL    HW178515   7.808   3.785   8.716 -1.4382  0.7977 -0.5022
24556SOL    HW278516   7.859   3.927   8.708  0.2143  0.3200  0.8878
24557SOL     OW78517   9.789   3.798   0.157 -0.2401  0.4922  1.0507
24557SOL    HW178518   9.873   3.771   0.195  0.0127  0.7187  0.6631
24557SOL    HW278519   9.813   3.864   0.091 -0.5919 -0.4613 -0.0586
24558SOL     OW78520   1.367   4.303   1.764  0.0346 -0.0807  0.1655
24558SOL    HW178521   1.391   4.367   1.698 -1.0221 -1.0112 -1.1625
24558SOL    HW278522   1.449   4.259   1.785  0.7700  1.6137  1.0625
24559SOL     OW78523   8.570   1.938   1.034  0.4691 -0.1233 -0.3631
24559SOL    HW178524   8.552   1.987   0.953 -0.4007  0.2440  0.0434
24559SOL    HW278525   8.489   1.892   1.053 -0.3694  2.0406  1.8274
24560SOL     OW78526   6.777   2.756   0.780 -0.4938  0.0182 -0.2746
24560SOL    HW178527   6.762   2.696   0.853 -2.7022  0.5386 -0.2512
24560SOL    HW278528   6.747   2.841   0.812  0.9536  0.8129 -0.9213
24561SOL     OW78529   6.935   1.572   8.743  0.2713  0.1080 -0.5780
24561SOL    HW178530   6.891   1.487   8.741 -0.0553  0.1951  1.2473
24561SOL    HW278531   7.028   1.551   8.742  0.1962 -0.2069 -1.3977
24562SOL     OW78532   9.264   2.654   9.627 -0.0279  0.2342 -0.6392
24562SOL    HW178533   9.348   2.642   9.672 -0.6672  1.1887  0.9135
24562SOL    HW278534   9.288   2.687   9.541  1.2344 -1.0421 -0.8141
24563SOL     OW78535   8.156   3.925   7.562  0.1272 -0.0532 -0.1148
24563SOL    HW178536   8.097   3.933   7.637 -1.8776 -0.5766 -1.5401
24563SOL    HW278537   8.104   3.877   7.496  1.3952  1.2842 -2.2069
24564SOL     OW78538   7.989   0.603   0.686  0.2369  0.5425  0.2311
24564SOL    HW178539   7.931   0.536   0.651 -0.0718  0.5427  0.7323
24564SOL    HW278540   8.074   0.560   0.694  0.3642  0.6065 -0.7129
24565SOL     OW78541   8.739   2.717   7.978 -0.0153 -0.0307 -1.0195
24565SOL    HW178542   8.830   2.726   7.952 -0.2001  0.3903 -1.5351
24565SOL    HW278543   8.740   2.723   8.074  0.3996  0.8099 -1.0762
24566SOL     OW78544   8.592   2.997   8.387 -0.2339 -0.0562  0.5280
24566SOL    HW178545   8.611   3.079   8.341  0.6916 -0.8668 -0.6129
24566SOL    HW278546   8.619   2.929   8.326 -3.0039 -1.2841  0.5584
24567SOL     OW78547   6.836   2.496   7.527  0.4399  0.0638 -0.0561
24567SOL    HW178548   6.847   2.504   7.622 -1.3057 -1.7959  0.3810
24567SOL    HW278549   6.858   2.405   7.508 -0.5938  0.0322 -1.2009
24568SOL     OW78550   7.281   0.942   8.909 -0.0467  0.3429  0.6187
24568SOL    HW178551   7.293   1.037   8.912 -0.2814  0.3942  0.0534
24568SOL    HW278552   7.370   0.907   8.901  0.1051  0.4695  1.6629
24569SOL     OW78553   8.790   3.684   7.960 -0.4657 -0.6801  0.1480
24569SOL    HW178554   8.866   3.628   7.977 -1.3574 -1.8549  0.4175
24569SOL    HW278555   8.743   3.639   7.889 -0.5449  0.4072 -0.5058
24570SOL     OW78556   8.092   3.680   8.657  0.1649  0.1375 -0.0576
24570SOL    HW178557   8.107   3.627   8.735 -0.8928  0.3677  0.3219
24570SOL    HW278558   8.005   3.719   8.671  0.1210  0.4771 -1.1790
24571SOL     OW78559   8.552   4.601   8.182 -0.4271 -0.1223 -0.0517
24571SOL    HW178560   8.515   4.526   8.135 -0.3001 -0.9147  1.0693
24571SOL    HW278561   8.646   4.597   8.163 -0.6571  1.0445 -1.7225
24572SOL     OW78562   0.199   2.340   1.869 -0.2484  0.0542 -0.2178
24572SOL    HW178563   0.272   2.323   1.928 -0.4902  0.4762  0.2129
24572SOL    HW278564   0.130   2.374   1.926 -1.2948 -1.6817 -0.3772
24573SOL     OW78565   6.880   2.591   6.980  0.2023  0.3461 -0.0630
24573SOL    HW178566   6.879   2.598   7.076 -0.5331  1.5161 -0.1471
24573SOL    HW278567   6.875   2.681   6.949  0.6887 -0.0033 -1.2204
24574SOL     OW78568   0.380   1.619   8.986 -0.7335  0.1318 -0.2300
24574SOL    HW178569   0.435   1.690   8.952 -0.9837 -0.0132 -0.9733
24574SOL    HW278570   0.441   1.549   9.008 -0.3325  1.0845  1.9197
24575SOL     OW78571   9.833   4.352   8.159  0.3040 -0.4225 -0.0807
24575SOL    HW178572   9.894   4.417   8.196  0.7862  0.1257 -1.7364
24575SOL    HW278573   9.750   4.370   8.203  0.6985  0.5945  0.2897
24576SOL     OW78574   9.015   5.434   9.455  0.2698 -0.5759 -0.2899
24576SOL    HW178575   9.066   5.448   9.534 -0.2396  0.9898 -0.2174
24576SOL    HW278576   8.928   5.468   9.476 -0.3213 -1.5787 -1.0071
24577SOL     OW78577   5.416   3.098   7.093  0.3417 -0.1655 -0.3766
24577SOL    HW178578   5.505   3.099   7.126 -0.4450 -1.2744  2.0667
24577SOL    HW278579   5.388   3.190   7.093  1.1795  0.0911 -0.3227
24578SOL     OW78580   5.321   1.320   8.861  0.5083 -0.1655 -0.0932
24578SOL    HW178581   5.333   1.262   8.936  0.5658 -0.3704 -0.2601
24578SOL    HW278582   5.410   1.333   8.827  0.4974  0.0351 -0.0438
24579SOL     OW78583   6.698   4.978   7.890 -0.3142 -0.1698 -0.4477
24579SOL    HW178584   6.713   5.003   7.799  1.5195 -1.7805 -0.6503
24579SOL    HW278585   6.781   4.995   7.934 -1.3810  1.2995  1.1701
24580SOL     OW78586   8.185   4.027   8.829  0.5634 -0.4759  0.0382
24580SOL    HW178587   8.195   4.043   8.735  0.5138  0.6638  0.2182
24580SOL    HW278588   8.203   3.933   8.839  3.0919 -0.1413 -0.7552
24581SOL     OW78589   5.570   3.288   7.480 -0.0658  0.7642  0.5564
24581SOL    HW178590   5.540   3.209   7.526 -0.0221  2.4929  3.8171
24581SOL    HW278591   5.627   3.332   7.542  0.1375  3.2761 -1.2686
24582SOL     OW78592   8.506   3.107   7.715  0.2490 -0.0310  0.2358
24582SOL    HW178593   8.565   3.149   7.777 -1.2502  0.2223  1.5536
24582SOL    HW278594   8.522   3.014   7.726 -0.7886 -0.0592  1.8992
24583SOL     OW78595   9.252   3.472   7.545 -0.7002  0.4122 -0.0087
24583SOL    HW178596   9.302   3.536   7.494  0.3143 -0.3268  0.0236
24583SOL    HW278597   9.265   3.498   7.636 -2.2961  1.5742 -0.0654
24584SOL     OW78598   8.514   3.902   0.697  0.4792 -0.2264  0.1769
24584SOL    HW178599   8.604   3.879   0.718  0.8570  0.4266 -0.6657
24584SOL    HW278600   8.503   3.871   0.607  0.0956  0.3437  0.0230
24585SOL     OW78601   8.481   9.603   7.195 -1.0184 -0.0313 -0.1455
24585SOL    HW178602   8.494   9.679   7.252  1.9653 -2.3436  2.6932
24585SOL    HW278603   8.552   9.608   7.132 -1.2601 -0.0932 -0.4236
24586SOL     OW78604   7.038   3.726   7.243 -0.2336  0.3804 -0.5068
24586SOL    HW178605   7.024   3.633   7.258 -0.1430  0.1757 -1.6023
24586SOL    HW278606   7.019   3.739   7.150 -2.0617  1.8169  0.0022
24587SOL     OW78607   9.485   1.862   8.164  0.2298 -0.1172  0.1664
24587SOL    HW178608   9.468   1.882   8.256 -1.2643  2.1314 -0.5133
24587SOL    HW278609   9.579   1.881   8.153  0.9631 -2.4816  1.6329
24588SOL     OW78610   5.533   4.279   7.937  0.0387 -0.0382 -0.2616
24588SOL    HW178611   5.507   4.359   7.982 -2.3340  0.3922 -2.1763
24588SOL    HW278612   5.530   4.212   8.005  0.1450  1.1406  0.9661
24589SOL     OW78613   9.060   1.136   7.907 -0.0687  0.7197  0.0617
24589SOL    HW178614   9.138   1.095   7.943 -0.6323 -0.3212  0.1261
24589SOL    HW278615   8.995   1.066   7.904 -0.8240  1.4278 -0.5356
24590SOL     OW78616   8.405   6.136   0.690 -0.1014  0.1256  0.0666
24590SOL    HW178617   8.434   6.135   0.781 -2.9657 -1.8656  1.1037
24590SOL    HW278618   8.372   6.048   0.675 -0.6145  0.6947 -2.6213
24591SOL     OW78619   6.096   1.220   6.133  0.2951 -0.0021 -0.7569
24591SOL    HW178620   6.048   1.137   6.135 -0.4162  0.3883 -1.1166
24591SOL    HW278621   6.188   1.195   6.124  0.4057 -0.8399  1.8546
24592SOL     OW78622   9.775   0.252   9.103  0.3095 -0.4750 -0.4127
24592SOL    HW178623   9.829   0.234   9.026  0.7497  1.8267 -0.7111
24592SOL    HW278624   9.701   0.303   9.069  0.9082  1.2471  0.7506
24593SOL     OW78625   9.662   1.770   9.446  0.9472 -0.0636  0.2077
24593SOL    HW178626   9.750   1.806   9.440  0.5146  1.1758  1.0347
24593SOL    HW278627   9.657   1.733   9.535  0.9625 -1.0776 -0.1946
24594SOL     OW78628   0.335   2.162   5.277 -0.0343 -0.7802  0.5313
24594SOL    HW178629   0.240   2.153   5.283 -0.0053 -3.0427 -1.0933
24594SOL    HW278630   0.349   2.241   5.224 -0.8993  0.5763  2.2250
24595SOL     OW78631   8.585   2.619   0.637  0.2494  0.0088  0.3437
24595SOL    HW178632   8.616   2.576   0.557 -0.4931  0.8905 -0.4446
24595SOL    HW278633   8.493   2.640   0.618 -0.0260 -0.0548  1.5616
24596SOL     OW78634   9.413   4.196   9.538  0.0936  0.0232  0.3126
24596SOL    HW178635   9.395   4.203   9.632 -1.2518  0.7367  0.0354
24596SOL    HW278636   9.329   4.218   9.497  0.6937 -0.1871 -1.0550
24597SOL     OW78637   7.084   3.947   8.237 -0.6176  0.4250  0.1718
24597SOL    HW178638   7.110   3.915   8.150  0.3156  1.1095  0.1846
24597SOL    HW278639   7.026   3.879   8.271  2.2280 -1.9373  0.7079
24598SOL     OW78640   8.690   0.726   8.517  0.1988  0.0263  0.0286
24598SOL    HW178641   8.664   0.733   8.609 -0.3062  2.0254 -0.2405
24598SOL    HW278642   8.665   0.637   8.492  0.2073 -0.5034  1.7680
24599SOL     OW78643   8.901   2.812   6.194 -0.7192 -0.0385  0.4084
24599SOL    HW178644   8.986   2.794   6.233  0.3136  1.2880 -1.1151
24599SOL    HW278645   8.907   2.780   6.104 -0.9249  2.1777 -0.4636
24600SOL     OW78646   9.710   0.917   6.655 -0.8142 -0.1505  0.7577
24600SOL    HW178647   9.794   0.957   6.631 -0.0432 -1.1839  1.6485
24600SOL    HW278648   9.645   0.984   6.633  0.1283  0.2920 -0.8975
24601SOL     OW78649   7.095   7.281   4.856 -0.0613 -0.4082  0.3997
24601SOL    HW178650   7.117   7.272   4.763  0.3231 -2.9267  0.6653
24601SOL    HW278651   7.156   7.222   4.901 -0.1270  0.8705  2.2965
24602SOL     OW78652   9.065   1.941   7.868  0.5066 -0.4831 -0.2238
24602SOL    HW178653   9.017   1.914   7.947  1.9255 -0.1665  0.7937
24602SOL    HW278654   9.030   2.027   7.847  2.1772  0.8618  1.9681
24603SOL     OW78655   0.787   2.478   9.659 -0.2882  0.4058 -0.3739
24603SOL    HW178656   0.776   2.509   9.569 -2.0757  2.5527  0.4886
24603SOL    HW278657   0.734   2.398   9.664  1.8084 -1.1713 -1.8041
24604SOL     OW78658   6.863   4.564   8.381 -0.1973 -0.1583 -0.9129
24604SOL    HW178659   6.800   4.626   8.345  0.7953  0.0979 -2.3355
24604SOL    HW278660   6.858   4.488   8.323  0.5400 -0.2623 -0.8564
24605SOL     OW78661   8.255   9.544   9.030  0.0709 -0.0564  0.4695
24605SOL    HW178662   8.259   9.501   9.116 -0.0848  1.4978  1.2984
24605SOL    HW278663   8.161   9.550   9.011  0.1278 -1.2542 -0.2921
24606SOL     OW78664   9.197   2.291   7.283  0.0386 -0.2106  0.0750
24606SOL    HW178665   9.284   2.305   7.320  0.1511 -0.4092 -0.1138
24606SOL    HW278666   9.193   2.351   7.208  0.1783 -0.5222 -0.1820
24607SOL     OW78667   9.704   1.848   8.370 -0.0837  0.0744 -0.3255
24607SOL    HW178668   9.795   1.876   8.360  0.3068 -0.6244  1.1122
24607SOL    HW278669   9.655   1.930   8.379  0.5719  0.4134  0.2324
24608SOL     OW78670   8.091   1.783   8.946 -0.8293 -0.5090  0.4703
24608SOL    HW178671   8.130   1.814   9.028  0.4776 -1.2296  0.1454
24608SOL    HW278672   8.165   1.770   8.887 -1.7901  0.4981 -1.0237
24609SOL     OW78673   7.393   4.557   7.808  0.3941  0.3732 -0.9522
24609SOL    HW178674   7.428   4.593   7.889 -0.8738  1.0794 -0.6859
24609SOL    HW278675   7.443   4.477   7.793  0.9424  0.4700  0.2931
24610SOL     OW78676   3.240   4.453   6.363  0.2797  0.6032 -0.5617
24610SOL    HW178677   3.175   4.481   6.428 -0.1148 -1.6856  0.1211
24610SOL    HW278678   3.315   4.510   6.377 -0.3683  1.1201  0.9145
24611SOL     OW78679   6.887   1.545   2.008  0.0332  0.5890 -0.1425
24611SOL    HW178680   6.964   1.533   1.952 -0.8664 -0.1945 -1.2607
24611SOL    HW278681   6.820   1.579   1.948 -1.7268 -2.6155 -0.2164
24612SOL     OW78682   9.468   2.818   8.686  0.4818  0.5359  0.1490
24612SOL    HW178683   9.415   2.774   8.620  0.1904 -0.0566  0.7637
24612SOL    HW278684   9.551   2.769   8.687  0.0113 -0.2850  1.1121
24613SOL     OW78685   7.631   2.331   7.751 -0.1308 -0.0722  0.3993
24613SOL    HW178686   7.594   2.356   7.667  0.8163 -3.4640 -1.1642
24613SOL    HW278687   7.720   2.367   7.750  0.6336 -1.8962 -1.0575
24614SOL     OW78688   9.355   1.389   7.663  0.4436 -0.1051 -0.0848
24614SOL    HW178689   9.321   1.477   7.649  1.1781  0.0266 -1.1288
24614SOL    HW278690   9.444   1.402   7.696  0.9863 -0.4287 -1.3458
24615SOL     OW78691   9.717   4.553   7.795  0.2575  0.2001 -0.1310
24615SOL    HW178692   9.785   4.553   7.862 -1.1937  0.0603  1.3804
24615SOL    HW278693   9.681   4.465   7.797 -1.7555  0.9892  1.0008
24616SOL     OW78694   7.400   5.183   8.486 -0.0746 -0.0573  0.4577
24616SOL    HW178695   7.464   5.243   8.448 -0.9660 -0.0012 -1.0006
24616SOL    HW278696   7.320   5.235   8.492 -0.2721 -0.4449  1.2998
24617SOL     OW78697   8.232   1.362   8.122  0.1393  0.4834 -0.7215
24617SOL    HW178698   8.141   1.342   8.100 -0.0766 -0.6423  1.0538
24617SOL    HW278699   8.284   1.312   8.059 -0.4592 -2.1904  0.8044
24618SOL     OW78700   5.408   4.029   6.501 -0.5279  0.4864 -0.0843
24618SOL    HW178701   5.457   4.110   6.489 -0.0646  0.1429 -0.5362
24618SOL    HW278702   5.470   3.960   6.481 -1.1085  0.0335 -0.3561
24619SOL     OW78703   7.261   5.484   3.566  0.0798 -0.0121 -0.3097
24619SOL    HW178704   7.212   5.446   3.639  0.4884  1.0215  0.5468
24619SOL    HW278705   7.222   5.571   3.555  0.4336  0.0723 -0.9245
24620SOL     OW78706   9.833   3.072   8.283  0.1878 -0.1524 -0.6752
24620SOL    HW178707   9.746   3.075   8.323  0.7421 -0.1905  0.5885
24620SOL    HW278708   9.864   2.983   8.302  1.2643  0.4690  0.6248
24621SOL     OW78709   7.207   1.677   6.050 -0.0396 -0.4564  0.2301
24621SOL    HW178710   7.294   1.716   6.046  1.0346 -2.7377 -0.3645
24621SOL    HW278711   7.183   1.682   6.143 -0.0422  1.6828  0.1480
24622SOL     OW78712   8.393   4.551   7.859  0.3881  0.1344 -0.2201
24622SOL    HW178713   8.363   4.641   7.848  2.2390  0.7226 -0.7324
24622SOL    HW278714   8.443   4.532   7.779  3.0549 -0.0740  1.3917
24623SOL     OW78715   6.249   1.579   9.146 -0.0072  0.3897 -0.0612
24623SOL    HW178716   6.288   1.499   9.182  0.5957 -0.0678 -1.6487
24623SOL    HW278717   6.307   1.649   9.175  0.6282 -0.0046 -0.3513
24624SOL     OW78718   8.180   2.800   9.423 -0.1941  0.2593 -0.2314
24624SOL    HW178719   8.106   2.832   9.474  0.2807  0.5285  0.3025
24624SOL    HW278720   8.254   2.853   9.453  1.2184 -2.9338  2.5530
24625SOL     OW78721   9.439   4.104   8.127  0.5097  0.2424 -0.6499
24625SOL    HW178722   9.438   4.174   8.062  0.1559  1.9117  1.0664
24625SOL    HW278723   9.458   4.148   8.210 -2.4231 -1.2546  0.9791
24626SOL     OW78724   5.065   3.895   8.761  0.2621  0.2685 -0.2674
24626SOL    HW178725   4.994   3.831   8.762 -0.3353  0.6893  4.2302
24626SOL    HW278726   5.022   3.980   8.756  0.5900  0.4628  0.0884
24627SOL     OW78727   7.425   6.706   7.737  0.1358  0.1163  0.3842
24627SOL    HW178728   7.356   6.721   7.802  1.6088  1.7712  1.6890
24627SOL    HW278729   7.424   6.784   7.682  0.9912  0.1998  0.4638
24628SOL     OW78730   8.663   2.703   8.494 -0.4005 -0.2088  0.1839
24628SOL    HW178731   8.745   2.689   8.447 -1.2445  0.1251 -1.4474
24628SOL    HW278732   8.627   2.615   8.505  0.1037 -0.3480  0.8152
24629SOL     OW78733   9.552   1.579   6.955 -0.4398  0.3187  0.1178
24629SOL    HW178734   9.594   1.519   7.015 -3.0778 -1.6573  0.1953
24629SOL    HW278735   9.486   1.624   7.008 -0.6645  0.9051 -0.6402
24630SOL     OW78736   7.412   0.866   7.986 -0.0717  0.3893 -1.0216
24630SOL    HW178737   7.325   0.864   7.947 -0.2528 -2.0508 -0.6343
24630SOL    HW278738   7.429   0.776   8.012  2.9746  0.5695 -1.9656
24631SOL     OW78739   0.930   1.777   9.411  0.3351  0.5648 -0.3363
24631SOL    HW178740   0.866   1.754   9.344 -0.4674  1.6212  0.0427
24631SOL    HW278741   0.968   1.693   9.437 -1.0298 -0.1186 -0.4319
24632SOL     OW78742   0.080   0.652   7.626  0.1921 -0.4219 -0.1728
24632SOL    HW178743   0.161   0.601   7.635 -0.2023 -1.1883 -0.7976
24632SOL    HW278744   0.074   0.671   7.533  0.1490  0.4903  0.0059
24633SOL     OW78745   8.565   2.086   8.222 -0.0098 -0.2246 -0.0304
24633SOL    HW178746   8.517   2.033   8.286 -0.0112  0.6209  0.6883
24633SOL    HW278747   8.603   2.022   8.162 -1.4997 -0.9541 -0.2492
24634SOL     OW78748   9.456   5.711   6.543 -0.4300  0.2195 -0.1207
24634SOL    HW178749   9.411   5.791   6.514 -0.1165  1.2920  2.1956
24634SOL    HW278750   9.523   5.697   6.475 -0.8312  1.6059 -0.8674
24635SOL     OW78751   7.329   2.852   0.058  0.4045 -0.3660 -0.2566
24635SOL    HW178752   7.361   2.892  -0.022  1.4206  0.3966  0.5157
24635SOL    HW278753   7.245   2.896   0.075  0.8289  0.4275 -0.1868
24636SOL     OW78754   7.740   1.508   1.073 -0.0096 -0.1047  0.1152
24636SOL    HW178755   7.779   1.546   1.152 -0.6228 -0.3421  0.5355
24636SOL    HW278756   7.747   1.414   1.086 -0.8428 -0.1495  0.2555
24637SOL     OW78757   9.712   2.036   8.014 -0.1427 -0.6404 -0.0876
24637SOL    HW178758   9.679   2.113   7.968  2.2644  0.1094 -0.6756
24637SOL    HW278759   9.742   1.977   7.945  1.1368 -0.6154  0.4271
24638SOL     OW78760   7.130   3.566   0.603 -0.0495 -0.0810  0.1434
24638SOL    HW178761   7.125   3.564   0.507  2.0791  0.7276 -0.0382
24638SOL    HW278762   7.207   3.513   0.624 -0.5415 -0.3184  1.4299
24639SOL     OW78763   1.659   4.332   0.156 -0.3672  0.2077 -0.7575
24639SOL    HW178764   1.594   4.402   0.156 -0.8003 -0.1909 -0.5118
24639SOL    HW278765   1.619   4.262   0.103 -0.8582 -0.6948  0.7562
24640SOL     OW78766   9.510   2.800   8.113  0.0164  0.9852 -0.0195
24640SOL    HW178767   9.574   2.757   8.169 -1.9813 -0.9928  0.9519
24640SOL    HW278768   9.489   2.734   8.047  0.3574  2.3078 -1.5128
24641SOL     OW78769   7.345   0.988   6.034 -0.1449 -0.2510  0.2873
24641SOL    HW178770   7.388   1.068   6.005  2.4715 -1.5574  0.3036
24641SOL    HW278771   7.254   0.998   6.004  0.3030  2.2830 -0.5052
24642SOL     OW78772   8.584   3.772   8.434 -0.2499 -0.3462 -0.5180
24642SOL    HW178773   8.502   3.798   8.475 -0.1310  0.0390 -0.5257
24642SOL    HW278774   8.567   3.682   8.404 -1.7684  0.7758 -3.3784
24643SOL     OW78775   8.697   1.474   0.257  0.3479  0.1505 -0.0394
24643SOL    HW178776   8.634   1.492   0.326  0.3892 -0.7851  0.2543
24643SOL    HW278777   8.773   1.437   0.303 -0.0861 -1.6211 -0.6737
24644SOL     OW78778   0.143   1.086   0.073  0.6575 -0.4950  0.2192
24644SOL    HW178779   0.146   1.042  -0.012  1.6672 -2.0277  0.9984
24644SOL    HW278780   0.098   1.024   0.130  2.6515 -0.8660  1.4993
24645SOL     OW78781   9.091   2.104   6.526 -0.3943 -1.3480 -0.6276
24645SOL    HW178782   9.013   2.122   6.579  0.6714  0.3417  0.4532
24645SOL    HW278783   9.108   2.011   6.540 -1.1484 -1.3183  0.6453
24646SOL     OW78784   8.321   3.918   9.389 -0.0873 -0.0009  0.3298
24646SOL    HW178785   8.397   3.971   9.412 -0.4445  0.4059  0.5878
24646SOL    HW278786   8.252   3.982   9.369 -0.4663 -0.3605  0.4622
24647SOL     OW78787   7.033   9.602   0.351  0.3282  0.4445 -0.1904
24647SOL    HW178788   7.116   9.556   0.364  0.8999  1.2191 -0.9615
24647SOL    HW278789   6.999   9.566   0.269 -0.4450 -0.3547  0.4669
24648SOL     OW78790   5.628   9.491   9.511 -0.1899 -0.1977  0.7584
24648SOL    HW178791   5.724   9.494   9.506 -0.2572  1.8643 -0.7327
24648SOL    HW278792   5.610   9.437   9.588  2.1877  0.3357  1.7942
24649SOL     OW78793   0.620   2.921   5.989  0.7916 -0.2871 -0.1612
24649SOL    HW178794   0.644   2.854   5.925  3.1512  0.8460 -0.5826
24649SOL    HW278795   0.687   2.988   5.979 -0.7430  1.5361  1.1597
24650SOL     OW78796   6.171   1.590   7.789  0.1068  0.0261  0.0267
24650SOL    HW178797   6.166   1.532   7.713 -1.3046  0.4542 -0.2349
24650SOL    HW278798   6.160   1.532   7.865  1.4221 -0.3869 -0.0626
24651SOL     OW78799   7.831   4.196   5.771  0.3719 -0.1821 -0.3542
24651SOL    HW178800   7.904   4.155   5.725  0.6390 -0.5264  0.3558
24651SOL    HW278801   7.754   4.171   5.721  0.7598  0.4062 -1.2623
24652SOL     OW78802   6.315   2.445   7.650  0.6262  0.3528 -0.2048
24652SOL    HW178803   6.303   2.432   7.556  1.2553  1.6085 -0.4835
24652SOL    HW278804   6.322   2.540   7.660  1.1101  0.2031  1.0441
24653SOL     OW78805   9.824   3.133   9.531  0.3459 -0.1351 -0.0489
24653SOL    HW178806   9.770   3.208   9.506  0.2858  0.1445  0.8772
24653SOL    HW278807   9.913   3.169   9.537  0.2277  0.0355  1.0084
24654SOL     OW78808   6.585   2.847   7.940 -0.0240  0.2017 -0.4661
24654SOL    HW178809   6.570   2.762   7.980  2.0123 -0.3467 -0.7499
24654SOL    HW278810   6.583   2.830   7.846  2.5401 -0.0396 -0.5464
24655SOL     OW78811   7.231   1.971   9.120  0.0544 -0.3091 -0.0441
24655SOL    HW178812   7.287   1.986   9.045  0.0029 -0.7519 -0.1710
24655SOL    HW278813   7.261   2.034   9.185  1.0142 -0.8510  0.0610
24656SOL     OW78814   8.426   1.428   9.184  0.3181 -0.0842  0.6193
24656SOL    HW178815   8.465   1.511   9.155  0.3318 -0.1632  0.4115
24656SOL    HW278816   8.392   1.447   9.272  1.4836 -0.2099  1.1165
24657SOL     OW78817   7.121   3.172   0.330 -0.0763  0.3891  0.2848
24657SOL    HW178818   7.153   3.148   0.417  2.6675 -0.0130 -0.7294
24657SOL    HW278819   7.200   3.181   0.278 -1.6825 -2.1867 -2.9344
24658SOL     OW78820   1.071   3.284   1.915  0.2599  0.2567 -0.2977
24658SOL    HW178821   1.038   3.307   2.002  0.7919  0.3288 -0.1080
24658SOL    HW278822   1.007   3.320   1.855 -0.2227  0.0230  0.0736
24659SOL     OW78823   5.062   2.788   9.060 -0.0204 -0.3682 -0.4047
24659SOL    HW178824   5.147   2.820   9.091  0.4541 -1.5497 -0.4098
24659SOL    HW278825   4.998   2.842   9.106  0.7043 -0.8356  1.2400
24660SOL     OW78826   1.035   2.730   6.754  0.6482 -0.1137  0.4547
24660SOL    HW178827   1.098   2.796   6.726  0.4901 -0.3956 -0.6462
24660SOL    HW278828   1.011   2.685   6.673 -0.3303 -0.5649  0.9761
24661SOL     OW78829   7.995   2.183   3.258  0.5399  0.4957 -0.6709
24661SOL    HW178830   8.033   2.271   3.255  0.6236  0.5136  0.5036
24661SOL    HW278831   7.992   2.162   3.351 -1.5902  0.1562 -0.7798
24662SOL     OW78832   8.113   3.596   0.289  0.0623  0.3030  0.2485
24662SOL    HW178833   8.174   3.650   0.339  0.5948 -0.0118 -0.0504
24662SOL    HW278834   8.153   3.508   0.290 -0.3249  0.1217 -0.0546
24663SOL     OW78835   1.034   2.451   8.725  0.0120 -0.1183  0.1898
24663SOL    HW178836   0.997   2.494   8.803 -1.1549  0.5363 -0.6907
24663SOL    HW278837   1.092   2.383   8.760 -0.0794  0.5050  1.6239
24664SOL     OW78838   0.052   2.291   0.146 -0.3758  0.4208  0.4607
24664SOL    HW178839   0.143   2.302   0.120  0.3331 -2.8826  1.1560
24664SOL    HW278840   0.027   2.377   0.179  2.8865  1.1724  1.3960
24665SOL     OW78841   8.038   1.596   2.143  0.2477 -0.0830 -0.2287
24665SOL    HW178842   8.033   1.613   2.237 -0.6994 -0.1624 -0.2563
24665SOL    HW278843   8.076   1.508   2.137  2.0274  0.6224  0.0087
24666SOL     OW78844   0.191   9.074   0.300  0.2017  0.3175  0.3989
24666SOL    HW178845   0.265   9.094   0.243 -1.8695  2.2336 -1.8494
24666SOL    HW278846   0.146   9.002   0.257  0.1788 -0.1643  1.2111
24667SOL     OW78847   7.110   2.668   2.124 -0.6664 -0.4845  0.2152
24667SOL    HW178848   7.070   2.741   2.171 -0.7478 -0.3857 -0.0046
24667SOL    HW278849   7.146   2.612   2.192 -0.7180 -0.3044  0.3908
24668SOL     OW78850   6.986   1.780   8.990 -0.0014 -0.3028  0.1678
24668SOL    HW178851   6.946   1.801   8.906  1.4419 -0.6163 -0.6341
24668SOL    HW278852   6.994   1.684   8.988  1.5972 -0.1899 -0.1162
24669SOL     OW78853   0.243   2.812   0.190  0.1809  0.6447 -0.0694
24669SOL    HW178854   0.248   2.720   0.162 -0.6520  0.2125  1.1071
24669SOL    HW278855   0.333   2.843   0.188  0.3989 -0.0179 -1.0551
24670SOL     OW78856   7.072   3.005   9.634 -0.2042 -0.1770 -0.0587
24670SOL    HW178857   7.021   2.961   9.702 -0.5418 -0.8366 -0.7257
24670SOL    HW278858   7.023   3.085   9.616  0.6537  0.7471  1.4833
24671SOL     OW78859   8.345   3.894   8.097  0.0279  0.7802  0.4276
24671SOL    HW178860   8.434   3.926   8.088  0.1920  0.0719 -0.7909
24671SOL    HW278861   8.337   3.869   8.189  1.8729 -1.2658  0.1240
24672SOL     OW78862   0.348   3.130   0.487  0.1915 -0.1861  0.2565
24672SOL    HW178863   0.383   3.052   0.530 -1.5398 -2.1582 -1.6500
24672SOL    HW278864   0.382   3.125   0.398  0.7376  1.7842  0.3061
24673SOL     OW78865   8.830   3.164   8.529 -0.2891  0.0302  0.2403
24673SOL    HW178866   8.801   3.253   8.510  0.4166  0.0856 -0.6495
24673SOL    HW278867   8.919   3.160   8.493 -0.4108 -1.1115  0.0364
24674SOL     OW78868   7.918   9.760   0.831  0.1156 -0.1408  0.2803
24674SOL    HW178869   7.960   9.745   0.746 -0.4412 -0.0947 -0.0097
24674SOL    HW278870   7.978   9.723   0.895  0.9040  0.5019 -0.0722
24675SOL     OW78871   9.096   9.205   9.850  0.4670 -0.2198  0.4312
24675SOL    HW178872   9.102   9.137   9.783 -0.9063  0.4150 -0.3812
24675SOL    HW278873   9.175   9.258   9.837  0.8087 -0.7913  0.1112
24676SOL     OW78874   7.388   2.930   9.238 -0.1532 -0.1543 -0.0002
24676SOL    HW178875   7.414   2.897   9.324  0.4479  1.0573  0.3070
24676SOL    HW278876   7.427   2.868   9.176  0.2435 -0.4863  0.5675
24677SOL     OW78877   9.819   3.528   9.099 -0.3715  0.1165 -0.5779
24677SOL    HW178878   9.786   3.526   9.009  1.0367 -1.5223 -1.1000
24677SOL    HW278879   9.742   3.551   9.152 -1.0436  1.9377 -2.2444
24678SOL     OW78880   8.721   9.804   0.400 -0.3014  0.1622  0.5579
24678SOL    HW178881   8.703   9.773   0.312 -0.2881 -1.3379  1.0558
24678SOL    HW278882   8.668   9.748   0.457  0.3755  0.4989  1.5541
24679SOL     OW78883   8.749   1.680   9.320  0.6150 -0.4185  0.0134
24679SOL    HW178884   8.783   1.768   9.336 -1.4011  0.8544 -2.0845
24679SOL    HW278885   8.690   1.690   9.245  1.0787 -3.7677 -0.9617
24680SOL     OW78886   9.109   2.463   9.276 -0.3071  0.2801 -0.6884
24680SOL    HW178887   9.146   2.445   9.189  1.3272 -0.1181  0.0533
24680SOL    HW278888   9.128   2.556   9.291  0.9802 -0.0721 -0.0543
24681SOL     OW78889   7.309   3.877   9.285 -0.1200  0.0730 -0.2969
24681SOL    HW178890   7.282   3.862   9.194 -0.4695 -0.5537 -0.0952
24681SOL    HW278891   7.324   3.789   9.320  0.5091  0.3327  0.1082
24682SOL     OW78892   0.001   2.798   8.418 -0.2795  0.3459  0.4731
24682SOL    HW178893   0.095   2.816   8.422  0.0001 -1.1810  1.3933
24682SOL    HW278894  -0.023   2.777   8.508 -1.3972  0.1361  0.1396
24683SOL     OW78895   7.223   3.417   9.223 -0.0436 -0.3461  0.6965
24683SOL    HW178896   7.272   3.339   9.197 -0.3422  0.3367 -2.1579
24683SOL    HW278897   7.136   3.384   9.246 -0.3476 -0.8456 -1.0544
24684SOL     OW78898   8.316   3.083   0.519  0.1111  0.3008  0.3088
24684SOL    HW178899   8.341   3.054   0.606 -0.8882  0.0666  0.5197
24684SOL    HW278900   8.264   3.012   0.483  0.0260  0.6396 -0.2551
24685SOL     OW78901   6.920   2.560   7.260 -0.9511  0.5697 -0.7340
24685SOL    HW178902   6.997   2.616   7.267 -0.3040 -0.3057 -0.6598
24685SOL    HW278903   6.904   2.528   7.349  0.2021 -1.2994 -1.1392
24686SOL     OW78904   6.258   3.075   8.768 -0.0676 -0.0545 -0.4160
24686SOL    HW178905   6.350   3.057   8.782  0.2590  1.1129 -0.9011
24686SOL    HW278906   6.255   3.118   8.682 -1.0499 -0.0071 -0.3693
24687SOL     OW78907   7.572   3.774   8.118  0.1199  0.3690 -0.2381
24687SOL    HW178908   7.652   3.822   8.094 -0.0873  0.4123 -0.8631
24687SOL    HW278909   7.506   3.807   8.058 -0.0585 -0.6303 -0.6018
24688SOL     OW78910   8.019   1.659   9.384  0.4796 -0.1721 -0.4714
24688SOL    HW178911   7.952   1.671   9.451  0.1012  2.0378 -1.1735
24688SOL    HW278912   8.067   1.581   9.411 -0.8953 -0.4449  1.2990
24689SOL     OW78913   0.470   2.876   9.850  0.0657 -0.0046 -0.1118
24689SOL    HW178914   0.437   2.929   9.778  2.5590 -0.3117 -1.6061
24689SOL    HW278915   0.492   2.939   9.918 -1.9411  0.3272  0.2742
24690SOL     OW78916   7.079   3.958   7.512 -0.3139 -0.1303  0.5125
24690SOL    HW178917   7.150   3.898   7.532 -1.2598 -0.6407  2.5193
24690SOL    HW278918   7.123   4.043   7.500  0.8429 -0.8415 -0.7282
24691SOL     OW78919   9.100   1.419   8.318 -0.3426 -0.3159  0.2282
24691SOL    HW178920   9.079   1.460   8.402  0.2083 -1.3122  0.8812
24691SOL    HW278921   9.181   1.462   8.290  0.0598 -0.7155  0.7513
24692SOL     OW78922   8.529   2.381   0.058 -0.2138 -0.3898  0.3182
24692SOL    HW178923   8.578   2.454   0.020  1.2600 -0.5374  1.8565
24692SOL    HW278924   8.455   2.369  -0.002  0.7154  0.9086 -1.1802
24693SOL     OW78925   6.641   2.937   8.212 -0.7286  0.0480  0.3553
24693SOL    HW178926   6.616   2.852   8.247  0.7222 -0.8850 -0.7904
24693SOL    HW278927   6.626   2.930   8.117 -1.3917  1.3699  0.3326
24694SOL     OW78928   8.588   4.746   9.356  0.5415 -0.4732 -0.3267
24694SOL    HW178929   8.636   4.711   9.281  1.0686 -1.1202  0.3070
24694SOL    HW278930   8.496   4.734   9.333  0.7015 -1.8746 -0.3188
24695SOL     OW78931   7.418   4.612   9.729 -0.4682  0.7735  0.0283
24695SOL    HW178932   7.510   4.629   9.749 -0.6427  2.1279 -0.1639
24695SOL    HW278933   7.407   4.518   9.740  1.5081  0.1778 -2.2180
24696SOL     OW78934   9.530   2.857   0.986  0.8212 -0.7366 -0.2725
24696SOL    HW178935   9.452   2.893   1.028  0.3752 -1.4443 -0.4733
24696SOL    HW278936   9.561   2.927   0.928  0.3480 -0.4416 -0.1745
24697SOL     OW78937   0.504   1.224   8.808 -0.1030  0.0805  0.1444
24697SOL    HW178938   0.414   1.199   8.785 -0.1346 -0.9373  1.2776
24697SOL    HW278939   0.547   1.240   8.724 -1.1595 -0.0584 -0.4417
24698SOL     OW78940   7.521   3.306   8.411 -0.3722  0.6360  0.5980
24698SOL    HW178941   7.466   3.228   8.400 -1.7001  1.5447  0.5953
24698SOL    HW278942   7.467   3.378   8.380  1.6045  1.3507 -1.4387
24699SOL     OW78943   6.840   3.579   6.871 -0.0584 -0.2113 -0.3931
24699SOL    HW178944   6.888   3.496   6.863 -1.3994 -0.9812 -0.7888
24699SOL    HW278945   6.836   3.613   6.781  0.0485  0.0450 -0.3037
24700SOL     OW78946   0.989   3.958   7.683  0.0903  0.0659 -0.2372
24700SOL    HW178947   0.910   3.911   7.709 -1.4343  1.4420 -2.1012
24700SOL    HW278948   0.963   4.050   7.684  2.9554  1.1208  3.3510
24701SOL     OW78949   7.283   4.882   0.970  0.7479  0.4020  0.0074
24701SOL    HW178950   7.356   4.895   1.030  0.5619  0.2753  0.2676
24701SOL    HW278951   7.235   4.807   1.006  1.5629 -0.7525 -1.2319
24702SOL     OW78952   7.527   2.528   9.353  0.1836 -0.1501 -0.5459
24702SOL    HW178953   7.515   2.434   9.346  1.1949 -0.2305 -1.5834
24702SOL    HW278954   7.604   2.538   9.409 -0.1533  0.0779 -0.1173
24703SOL     OW78955   8.989   8.960   0.148 -0.5094 -0.2160  0.0844
24703SOL    HW178956   8.980   9.026   0.078 -0.2700  0.5073  0.7229
24703SOL    HW278957   8.970   9.008   0.228 -0.5901 -0.9990  0.5405
24704SOL     OW78958   6.216   2.279   0.842 -0.4774  0.3239 -0.4376
24704SOL    HW178959   6.260   2.330   0.773 -2.1322 -0.7729 -2.4214
24704SOL    HW278960   6.216   2.189   0.809 -0.8379 -0.3497  1.2954
24705SOL     OW78961   6.942   2.069   8.407 -0.7130 -0.3325 -0.1527
24705SOL    HW178962   6.908   1.996   8.459  2.7079 -2.7753 -0.9537
24705SOL    HW278963   6.942   2.036   8.317  2.0504  0.0357 -0.3950
24706SOL     OW78964   0.364   4.522   1.168  0.1847  0.1032  0.3012
24706SOL    HW178965   0.398   4.470   1.095 -0.0552  1.1268 -0.5592
24706SOL    HW278966   0.326   4.599   1.127 -1.0405  0.1317  1.4194
24707SOL     OW78967   8.848   1.165   8.791 -0.3131 -0.2396  0.5528
24707SOL    HW178968   8.931   1.129   8.823  0.4274  1.4215  0.6134
24707SOL    HW278969   8.873   1.245   8.746 -1.7498 -0.5257 -0.8466
24708SOL     OW78970   5.627   5.142   1.803 -0.3770  0.0451  0.0728
24708SOL    HW178971   5.620   5.222   1.752  0.3284 -0.4881 -0.8977
24708SOL    HW278972   5.558   5.085   1.769 -0.5396  0.0440  0.3976
24709SOL     OW78973   7.412   4.640   9.416  0.3751  0.2854 -0.2813
24709SOL    HW178974   7.465   4.716   9.394  1.4224 -0.7994 -1.7102
24709SOL    HW278975   7.353   4.670   9.485  1.7924  1.9555  0.2546
24710SOL     OW78976   7.144   3.772   0.209  0.8100  0.1427  0.1388
24710SOL    HW178977   7.230   3.806   0.182  1.2608  0.9318  2.3213
24710SOL    HW278978   7.110   3.839   0.269 -1.8067  0.3132 -1.3790
24711SOL     OW78979   8.633   4.185   7.916 -0.5793  0.9187  0.3353
24711SOL    HW178980   8.601   4.178   8.006 -1.4735  1.3599  0.0593
24711SOL    HW278981   8.592   4.113   7.870  0.3869  0.2990  0.4079
24712SOL     OW78982   8.851   3.063   9.722  0.3360  0.3407  0.1200
24712SOL    HW178983   8.877   3.125   9.790 -0.5730  1.9138 -0.9068
24712SOL    HW278984   8.848   3.115   9.642  0.1210 -1.1822 -0.9071
24713SOL     OW78985   5.729   2.943   8.541  0.3799 -0.0392  0.4081
24713SOL    HW178986   5.654   2.953   8.483 -0.4387  1.0870  1.6045
24713SOL    HW278987   5.763   2.856   8.521 -1.6636 -0.8713  0.2993
24714SOL     OW78988   9.471   2.013   0.514 -0.5150  0.0881 -0.3520
24714SOL    HW178989   9.559   1.991   0.544 -0.7023 -0.8235 -0.4428
24714SOL    HW278990   9.419   1.935   0.535 -0.5600 -0.8421 -3.4998
24715SOL     OW78991   6.969   5.388   0.727 -0.0872  0.3885  0.4747
24715SOL    HW178992   6.937   5.324   0.791 -0.5672 -0.1539 -0.3016
24715SOL    HW278993   7.027   5.445   0.778  2.1921 -2.0198  0.7546
24716SOL     OW78994   7.917   4.879   3.133 -0.3168 -0.4100  0.8773
24716SOL    HW178995   7.958   4.965   3.133  1.9535 -1.4212  0.7764
24716SOL    HW278996   7.947   4.837   3.214 -2.6047 -0.6205  1.6947
24717SOL     OW78997   7.408   5.867   0.887  0.2355 -0.3507 -0.4161
24717SOL    HW178998   7.373   5.878   0.799 -0.6304  1.6955  0.1375
24717SOL    HW278999   7.487   5.920   0.889 -0.3657  0.5396  0.3534
24718SOL     OW79000   9.238   4.836   8.434  0.0987  0.3972  0.0880
24718SOL    HW179001   9.215   4.919   8.476  0.9228 -0.0195  1.3999
24718SOL    HW279002   9.330   4.847   8.407  0.4639 -0.3632  0.9912
24719SOL     OW79003   6.697   4.070   1.989 -0.4998 -0.1861  0.3116
24719SOL    HW179004   6.642   4.033   2.058  0.8013 -1.5155  0.6806
24719SOL    HW279005   6.748   4.139   2.033  0.2541 -0.9633  0.6888
24720SOL     OW79006   9.781   4.075   1.600 -0.6109 -0.7858  0.0437
24720SOL    HW179007   9.793   3.982   1.582 -1.7881 -0.9667  0.0715
24720SOL    HW279008   9.745   4.078   1.688 -0.4870 -0.3023  0.0813
24721SOL     OW79009   6.517   5.392   1.841 -0.1041  0.2404  0.5197
24721SOL    HW179010   6.430   5.427   1.825 -0.3536 -0.3655  0.5347
24721SOL    HW279011   6.570   5.469   1.864 -0.7583  0.5367  1.0585
24722SOL     OW79012   7.191   3.940   0.463 -0.1989 -0.0614  0.5108
24722SOL    HW179013   7.097   3.925   0.468 -0.3636  0.1936 -1.1435
24722SOL    HW279014   7.211   3.998   0.536 -1.5254  0.7326  0.2661
24723SOL     OW79015   0.924   5.539   8.127  0.3310 -0.0855  0.5137
24723SOL    HW179016   0.966   5.595   8.061 -2.0507  1.2938  0.0184
24723SOL    HW279017   0.875   5.475   8.075 -0.1537 -0.0934  0.9747
24724SOL     OW79018   8.085   4.470   3.371  0.7056  0.5443 -0.0745
24724SOL    HW179019   8.082   4.484   3.276 -1.5033 -0.5483 -0.2293
24724SOL    HW279020   8.055   4.553   3.408  1.4929  0.9454 -0.3150
24725SOL     OW79021   6.716   4.294   1.804 -0.0620  0.1539 -0.7760
24725SOL    HW179022   6.721   4.364   1.869  1.0118 -1.7390  1.2947
24725SOL    HW279023   6.690   4.217   1.854 -1.6512 -0.8877 -3.0633
24726SOL     OW79024   7.964   5.002   1.140 -0.1015 -0.0604  0.0151
24726SOL    HW179025   7.986   5.094   1.156 -0.8898 -0.0867  1.5230
24726SOL    HW279026   7.942   4.998   1.047 -1.8926  1.7124  0.2878
24727SOL     OW79027   7.309   3.105   0.839  0.7998  0.0596  0.2599
24727SOL    HW179028   7.286   3.016   0.812  1.5325 -0.0434 -0.0641
24727SOL    HW279029   7.354   3.142   0.762  0.3151  0.7824  0.3150
24728SOL     OW79030   8.962   3.607   0.485  0.1487 -0.5577  0.3495
24728SOL    HW179031   8.946   3.668   0.412  1.2576 -2.2840 -1.4464
24728SOL    HW279032   9.044   3.564   0.462 -0.2691 -2.2684  1.8607
24729SOL     OW79033   9.389   1.691   7.731  0.3519  0.2542 -0.7541
24729SOL    HW179034   9.346   1.655   7.808 -0.9147  1.4050 -0.8871
24729SOL    HW279035   9.384   1.786   7.743 -1.8356  0.5733 -3.2268
24730SOL     OW79036   8.236   4.732   2.885 -0.4518 -0.2230 -0.2391
24730SOL    HW179037   8.148   4.705   2.856 -0.7616 -0.0304  0.4954
24730SOL    HW279038   8.221   4.808   2.941  0.3119  0.6673 -1.2032
24731SOL     OW79039   8.587   4.680   0.261  0.3259  0.2422  0.1800
24731SOL    HW179040   8.575   4.587   0.283  0.0053 -0.3508 -2.1727
24731SOL    HW279041   8.587   4.681   0.165 -3.0914  3.0758  0.0111
24732SOL     OW79042   7.550   7.374   1.338 -0.4789  0.5763 -0.5190
24732SOL    HW179043   7.476   7.424   1.303 -0.5626  0.3244 -0.7021
24732SOL    HW279044   7.610   7.441   1.370 -0.1024  0.8609 -1.7305
24733SOL     OW79045   8.283   4.456   0.477 -0.8147 -0.1001 -0.2461
24733SOL    HW179046   8.260   4.547   0.455 -1.2915  0.5403  2.5505
24733SOL    HW279047   8.199   4.416   0.501 -1.0020 -2.0582 -3.5592
24734SOL     OW79048   8.883   2.676   8.786  0.2556 -0.0459 -0.1808
24734SOL    HW179049   8.876   2.759   8.739 -2.0805 -0.7543 -1.2191
24734SOL    HW279050   8.822   2.685   8.860 -1.1347 -1.3068 -1.1297
24735SOL     OW79051   8.063   4.306   0.868 -0.2751  0.2196  0.6791
24735SOL    HW179052   8.094   4.397   0.865  0.1025  0.2870  3.5962
24735SOL    HW279053   8.124   4.262   0.928  0.4755 -2.4039 -1.8252
24736SOL     OW79054   8.746   4.984   0.860 -0.3472  0.3607 -0.2242
24736SOL    HW179055   8.829   5.027   0.880 -0.6223  0.6273  0.3792
24736SOL    HW279056   8.765   4.890   0.870  0.2737  0.3168 -1.6228
24737SOL     OW79057   9.413   4.418   1.871  0.1961 -0.4775 -0.0507
24737SOL    HW179058   9.357   4.375   1.806  0.8828 -0.2932 -0.7744
24737SOL    HW279059   9.496   4.431   1.826  0.1946  1.0561  0.3462
24738SOL     OW79060   9.225   3.514   0.423 -0.5120 -0.5918 -0.1742
24738SOL    HW179061   9.239   3.462   0.344  1.1866 -0.8427  0.2507
24738SOL    HW279062   9.233   3.450   0.495 -0.3411 -0.0762  0.2714
24739SOL     OW79063   9.164   4.818   2.159  0.6918  0.5675 -0.4784
24739SOL    HW179064   9.131   4.852   2.242  0.7091 -1.9562  0.6494
24739SOL    HW279065   9.258   4.809   2.171  0.6731  0.0168 -0.6803
24740SOL     OW79066   9.272   5.070   8.793 -0.3427  0.3665 -0.2096
24740SOL    HW179067   9.334   5.141   8.775  0.6263 -0.0564  1.3124
24740SOL    HW279068   9.201   5.113   8.841  0.1721  0.3431  0.5823
24741SOL     OW79069   6.405   4.478   3.580 -0.3067  0.7154 -0.5806
24741SOL    HW179070   6.474   4.536   3.613 -0.1768 -0.2079  0.8432
24741SOL    HW279071   6.334   4.537   3.556 -0.2587  1.4827  1.0279
24742SOL     OW79072   7.410   4.525   2.143 -1.2325 -0.6567 -0.2882
24742SOL    HW179073   7.460   4.495   2.067 -1.6831  0.0296 -0.8638
24742SOL    HW279074   7.318   4.520   2.115 -1.3133  1.9263 -0.6864
24743SOL     OW79075   7.323   3.553   2.686 -0.0071  0.4673 -0.5052
24743SOL    HW179076   7.340   3.539   2.592  1.6199  0.6140 -0.2728
24743SOL    HW279077   7.290   3.469   2.717  1.8179 -0.3985 -0.7587
24744SOL     OW79078   5.283   5.263   1.959  0.3069  0.5100  0.4986
24744SOL    HW179079   5.242   5.349   1.965 -0.7253  0.1049 -0.4401
24744SOL    HW279080   5.372   5.276   1.992 -0.2549  1.6278  1.6575
24745SOL     OW79081   6.824   4.003   2.598 -0.9112 -0.4326 -0.0568
24745SOL    HW179082   6.874   4.028   2.676 -1.7088  0.2741  0.2415
24745SOL    HW279083   6.832   3.907   2.595 -0.0371 -0.3807  0.3166
24746SOL     OW79084   1.638   5.150   8.638  0.1391 -0.4444 -0.0821
24746SOL    HW179085   1.676   5.062   8.644  0.3567 -0.3477 -0.0500
24746SOL    HW279086   1.650   5.175   8.546  0.4056 -0.3015 -0.0101
24747SOL     OW79087   6.249   4.807   1.383 -0.7378  0.4214 -0.8197
24747SOL    HW179088   6.265   4.726   1.335  0.2652 -0.3854  0.7911
24747SOL    HW279089   6.319   4.867   1.355  0.3826 -0.3478  0.2138
24748SOL     OW79090   8.302   3.623   1.242 -0.2185 -0.0792  0.1808
24748SOL    HW179091   8.286   3.544   1.294 -1.9652  0.5471  0.6440
24748SOL    HW279092   8.296   3.594   1.151 -3.0183 -0.1486  0.3093
24749SOL     OW79093   8.939   5.962   9.821 -0.2299  0.2144 -0.4117
24749SOL    HW179094   8.974   6.050   9.839 -1.4298  0.2278  2.3807
24749SOL    HW279095   9.016   5.905   9.828 -0.0936  0.5951  2.4910
24750SOL     OW79096   9.273   6.087   8.966 -0.5766  0.2778 -0.0706
24750SOL    HW179097   9.290   6.026   9.038  0.4418 -0.0923 -0.6019
24750SOL    HW279098   9.328   6.056   8.895  1.0841  2.6048  0.0707
24751SOL     OW79099   6.833   4.696   6.592 -0.3789 -0.1411 -0.6034
24751SOL    HW179100   6.859   4.687   6.501 -0.8836 -1.2892 -0.6581
24751SOL    HW279101   6.826   4.606   6.624  0.5184  0.2547  0.7911
24752SOL     OW79102   7.645   4.448   1.529 -0.0992 -0.2006  0.7408
24752SOL    HW179103   7.700   4.390   1.477  1.0063  0.3097  1.3003
24752SOL    HW279104   7.673   4.536   1.503 -3.0416  0.2018 -1.5075
24753SOL     OW79105   6.843   6.230   9.297 -0.4768  0.0279 -0.8384
24753SOL    HW179106   6.899   6.307   9.306 -2.5635  1.6628 -1.0767
24753SOL    HW279107   6.791   6.229   9.378  0.5777 -2.1060 -0.1085
24754SOL     OW79108   5.425   3.168   0.971 -0.0725  0.5185 -0.2796
24754SOL    HW179109   5.401   3.113   0.896  0.9336  0.1710 -0.3645
24754SOL    HW279110   5.503   3.216   0.941  1.0448 -0.4738  0.9064
24755SOL     OW79111   7.812   3.452   1.087  0.0072  0.1493 -0.0780
24755SOL    HW179112   7.850   3.520   1.143  1.0330 -0.4481 -0.0235
24755SOL    HW279113   7.887   3.400   1.058 -0.7408 -0.8881 -0.2095
24756SOL     OW79114   7.774   4.847   9.630  0.4460  0.4450 -0.6208
24756SOL    HW179115   7.760   4.942   9.635  0.7761  0.4942 -0.5997
24756SOL    HW279116   7.866   4.838   9.607  0.7182  0.1154  0.5295
24757SOL     OW79117   8.402   4.452   8.798 -0.2196  0.0911 -0.1590
24757SOL    HW179118   8.397   4.393   8.873  0.1295  0.9418  0.5552
24757SOL    HW279119   8.313   4.456   8.764 -1.3628  2.6826  2.6113
24758SOL     OW79120   6.361   6.619   3.043  0.0917 -0.0204 -0.0780
24758SOL    HW179121   6.302   6.602   2.970 -0.5274 -0.1804  0.4456
24758SOL    HW279122   6.325   6.696   3.086 -0.7322 -1.0722  1.2183
24759SOL     OW79123   5.592   4.094   1.848  0.6053 -0.3922 -0.5936
24759SOL    HW179124   5.682   4.122   1.864  1.1750 -2.3339 -0.0750
24759SOL    HW279125   5.592   4.001   1.870 -1.3975 -0.5728 -1.1606
24760SOL     OW79126   8.349   3.682   9.242 -0.4214  0.0560  0.0665
24760SOL    HW179127   8.341   3.759   9.299  0.6386  0.5264 -0.4076
24760SOL    HW279128   8.268   3.634   9.257 -1.2135  1.3717  0.2234
24761SOL     OW79129   7.447   6.330   8.763  0.4590  0.3778 -0.1601
24761SOL    HW179130   7.472   6.382   8.839  0.2005  1.2714 -0.6745
24761SOL    HW279131   7.414   6.248   8.800 -2.0795  1.7615  0.8585
24762SOL     OW79132   7.683   4.585   9.440 -0.0299  0.0557 -0.3983
24762SOL    HW179133   7.601   4.625   9.470  1.2920  3.3563 -0.8421
24762SOL    HW279134   7.659   4.538   9.360 -1.8307 -0.9448  0.6586
24763SOL     OW79135   8.991   6.006   8.467 -0.0751 -0.2945 -0.1757
24763SOL    HW179136   9.076   5.974   8.435  0.0355  0.8561 -1.1044
24763SOL    HW279137   8.980   5.964   8.552  1.0633 -1.0729 -0.3869
24764SOL     OW79138   6.931   3.855   0.393  0.6269  0.0328  0.0249
24764SOL    HW179139   6.894   3.890   0.312 -0.6828 -1.3519 -0.0343
24764SOL    HW279140   6.858   3.807   0.433  2.2134 -2.5225  0.1163
24765SOL     OW79141   9.400   5.064   9.061  0.3603 -0.1532  0.4088
24765SOL    HW179142   9.378   5.031   8.974  3.1376  0.5369 -0.6690
24765SOL    HW279143   9.329   5.124   9.083 -0.2442 -0.0864 -1.5524
24766SOL     OW79144   8.384   4.547   1.855  0.7548 -0.2007 -0.1112
24766SOL    HW179145   8.420   4.617   1.801 -0.2897 -0.1773 -0.8242
24766SOL    HW279146   8.376   4.473   1.795  1.8019 -0.9355  0.6213
24767SOL     OW79147   7.362   7.537   1.093  0.1305  0.2051  0.2677
24767SOL    HW179148   7.430   7.593   1.130  0.5431 -0.4073  0.4583
24767SOL    HW279149   7.342   7.575   1.008  0.8567  0.2763  0.1242
24768SOL     OW79150   7.594   3.612   0.100  0.2694 -0.2613 -0.8778
24768SOL    HW179151   7.518   3.625   0.044 -2.8214 -1.9287  2.4615
24768SOL    HW279152   7.601   3.693   0.151  0.4560 -0.2778 -0.8754
24769SOL     OW79153   6.255   4.034   2.165 -0.6192 -0.2317  0.0023
24769SOL    HW179154   6.305   4.015   2.085  1.4659 -0.4436  1.2877
24769SOL    HW279155   6.247   3.949   2.208  0.8136  0.2904  1.3875
24770SOL     OW79156   7.518   5.768   4.188 -0.2623  0.1058 -0.2261
24770SOL    HW179157   7.562   5.684   4.178  0.0262  0.4503 -2.4344
24770SOL    HW279158   7.585   5.826   4.225 -0.9212 -0.9268  2.8308
24771SOL     OW79159   4.733   4.584   9.229  0.0443 -0.7300 -0.6046
24771SOL    HW179160   4.725   4.557   9.320  2.1535  0.5424  0.0431
24771SOL    HW279161   4.699   4.674   9.228  0.1089 -0.7093 -1.0470
24772SOL     OW79162   9.453   4.570   8.480  0.1447 -0.3702 -0.6416
24772SOL    HW179163   9.411   4.570   8.567  0.1571 -0.6477 -0.6362
24772SOL    HW279164   9.432   4.656   8.444 -0.6137 -0.5810 -0.7231
24773SOL     OW79165   6.912   5.922   0.532 -0.5399 -0.3872 -0.5282
24773SOL    HW179166   6.940   5.839   0.572  0.2930  0.2274  0.2057
24773SOL    HW279167   6.934   5.988   0.597 -1.5778  0.3790 -0.9401
24774SOL     OW79168   7.307   5.796   1.134 -0.0626 -0.4928  0.6158
24774SOL    HW179169   7.253   5.875   1.143  0.0884 -0.2247 -0.6366
24774SOL    HW279170   7.350   5.806   1.049  1.2418 -1.1522  1.1648
24775SOL     OW79171   7.718   6.495   9.283  0.2162 -0.2293 -0.3556
24775SOL    HW179172   7.792   6.552   9.305  0.4218 -1.2461  1.9384
24775SOL    HW279173   7.757   6.420   9.238  0.0803  0.8225 -2.3426
24776SOL     OW79174   7.520   3.128   9.526  0.3372  0.0549 -0.1086
24776SOL    HW179175   7.443   3.131   9.582  0.9116 -0.4506  0.7273
24776SOL    HW279176   7.540   3.034   9.517 -0.8487 -0.0438 -2.7223
24777SOL     OW79177   5.716   1.227   6.842 -0.0977  0.6175  0.1522
24777SOL    HW179178   5.667   1.232   6.760  1.6040  0.8832 -0.9033
24777SOL    HW279179   5.752   1.315   6.854  3.0810 -0.3434 -1.1071
24778SOL     OW79180   7.746   5.192   9.356  0.2111 -0.7124 -0.0036
24778SOL    HW179181   7.825   5.161   9.311  0.7546 -0.5372  0.8246
24778SOL    HW279182   7.711   5.114   9.398 -0.8954 -1.1116 -1.5630
24779SOL     OW79183   6.923   3.793   4.100 -0.0447 -0.7333  0.2529
24779SOL    HW179184   6.865   3.784   4.176 -0.3121 -1.0667  0.0119
24779SOL    HW279185   6.885   3.863   4.048 -0.0744 -0.7592  0.2394
24780SOL     OW79186   8.239   5.512   1.171 -0.3584 -0.3508 -0.3069
24780SOL    HW179187   8.291   5.513   1.090 -1.1645 -1.1280 -0.8556
24780SOL    HW279188   8.162   5.565   1.150 -0.5648 -0.5484 -0.0515
24781SOL     OW79189   7.176   4.219   2.967  0.1301 -0.6973 -0.1756
24781SOL    HW179190   7.228   4.210   3.047 -0.4286 -2.8968  0.0076
24781SOL    HW279191   7.238   4.254   2.903  1.2384 -1.1528  0.6044
24782SOL     OW79192   7.169   4.242   1.127 -0.2197 -0.3674  0.4528
24782SOL    HW179193   7.109   4.174   1.095 -0.6068  0.9894 -1.9088
24782SOL    HW279194   7.116   4.321   1.134  1.2949  1.0604 -2.3992
24783SOL     OW79195   8.511   4.562   1.377  0.1283  0.7023 -0.2597
24783SOL    HW179196   8.544   4.498   1.441  0.3792  0.6058 -0.4825
24783SOL    HW279197   8.519   4.646   1.422 -2.4023  0.3878  0.9421
24784SOL     OW79198   8.088   5.620   1.442  0.1037  0.1978 -0.0552
24784SOL    HW179199   8.031   5.574   1.381  0.2610 -0.4078  0.2414
24784SOL    HW279200   8.121   5.551   1.500  0.3683  0.6839  0.3810
24785SOL     OW79201   7.839   3.475   0.315 -0.3543 -0.4538  0.6929
24785SOL    HW179202   7.920   3.522   0.292 -0.5810 -0.5415 -0.3149
24785SOL    HW279203   7.868   3.404   0.372  0.3401 -0.7402 -0.0021
24786SOL     OW79204   0.139   6.109   8.668  0.8842  0.4660 -0.4579
24786SOL    HW179205   0.061   6.075   8.711  0.6627 -1.6728 -2.4140
24786SOL    HW279206   0.132   6.204   8.679 -3.0840  0.5881 -2.2936
24787SOL     OW79207   9.383   4.566   0.499 -0.5418  0.2429  0.4985
24787SOL    HW179208   9.459   4.569   0.557 -1.5469  2.0701  1.8247
24787SOL    HW279209   9.318   4.514   0.547 -1.2299  1.4036  0.8605
24788SOL     OW79210   0.559   1.946   9.271  0.5059 -0.3216 -0.1379
24788SOL    HW179211   0.548   2.024   9.326 -0.1535 -1.1162  0.9150
24788SOL    HW279212   0.472   1.930   9.234  0.7716 -0.2360 -0.8119
24789SOL     OW79213   7.478   3.773   2.755  0.2537 -0.2526  0.4820
24789SOL    HW179214   7.561   3.752   2.712 -0.6146  1.4004 -2.2295
24789SOL    HW279215   7.420   3.701   2.732  0.5287 -0.7510  1.2873
24790SOL     OW79216   7.834   6.882   2.450  0.2205 -0.3858 -0.2841
24790SOL    HW179217   7.916   6.836   2.434  1.0444  1.4259 -1.5731
24790SOL    HW279218   7.809   6.917   2.364 -1.8505 -0.7571  0.1002
24791SOL     OW79219   5.724   3.357   9.440 -0.3089 -0.0762 -0.3609
24791SOL    HW179220   5.670   3.389   9.369 -0.4254 -0.5449 -0.4851
24791SOL    HW279221   5.669   3.365   9.518 -0.1418  0.5390 -0.3046
24792SOL     OW79222   8.514   4.165   1.373  0.3835 -1.0634 -0.4008
24792SOL    HW179223   8.590   4.202   1.417 -0.5498 -0.0065  0.3863
24792SOL    HW279224   8.519   4.197   1.283 -1.2682  2.5966  0.6056
24793SOL     OW79225   6.929   4.467   0.844  0.0436 -0.0813 -0.2251
24793SOL    HW179226   6.838   4.443   0.833  0.0437 -0.0056 -0.4138
24793SOL    HW279227   6.978   4.386   0.828 -0.0781 -0.6642  2.0549
24794SOL     OW79228   8.503   4.263   1.132  0.0713  0.5373  0.2991
24794SOL    HW179229   8.548   4.217   1.061 -0.6638 -1.1411  0.8722
24794SOL    HW279230   8.480   4.348   1.094  1.1176  0.2999 -0.9332
24795SOL     OW79231   9.488   7.934   0.216  0.1687  0.7799  0.2967
24795SOL    HW179232   9.492   7.983   0.299  0.0157 -1.6912  1.8759
24795SOL    HW279233   9.556   7.867   0.225 -0.3179  0.0379 -1.2891
24796SOL     OW79234   7.715   6.755   2.040  0.5899 -0.1117 -0.0180
24796SOL    HW179235   7.732   6.701   2.117  2.3294  0.2467 -0.1142
24796SOL    HW279236   7.631   6.723   2.007  1.4228 -2.5933  0.0725
24797SOL     OW79237   8.926   5.534   8.159  0.2368 -0.1812 -0.3324
24797SOL    HW179238   8.975   5.587   8.097  0.2484  0.1176 -0.0674
24797SOL    HW279239   8.842   5.578   8.168  0.5430  0.2674  0.5183
24798SOL     OW79240   9.528   4.367   0.618 -0.3919  0.6029  0.1315
24798SOL    HW179241   9.443   4.329   0.594 -0.3875  1.1872 -0.8610
24798SOL    HW279242   9.583   4.292   0.639 -0.5663  0.0861 -1.1927
24799SOL     OW79243   7.200   4.818   8.885 -0.2774 -0.4421 -0.3380
24799SOL    HW179244   7.236   4.889   8.937  1.9656 -0.8236 -1.2691
24799SOL    HW279245   7.189   4.746   8.947 -0.3142 -0.0187  0.1516
24800SOL     OW79246   8.727   5.248   9.343  0.2091 -0.0658 -0.4782
24800SOL    HW179247   8.655   5.310   9.329  0.2504  0.6455  1.9105
24800SOL    HW279248   8.804   5.304   9.354  0.3972 -0.5459  0.8615
24801SOL     OW79249   8.717   5.760   0.819 -0.2874 -0.2245  0.3830
24801SOL    HW179250   8.726   5.751   0.724 -3.1612  0.6801 -0.0643
24801SOL    HW279251   8.629   5.795   0.831  0.1767  0.1098  3.3874
24802SOL     OW79252   7.082   5.140   9.606 -0.2563 -0.4314  0.0692
24802SOL    HW179253   7.028   5.146   9.685 -0.7777 -0.7020 -0.2589
24802SOL    HW279254   7.046   5.066   9.558 -0.7379  0.4778 -1.0141
24803SOL     OW79255   7.806   3.256   1.524  0.0115  0.2875  0.1328
24803SOL    HW179256   7.886   3.221   1.563 -0.0798  0.7468  0.7475
24803SOL    HW279257   7.776   3.322   1.586 -1.6981 -0.9569  0.7010
24804SOL     OW79258   9.176   6.320   2.928 -0.2361 -0.2499 -0.0747
24804SOL    HW179259   9.204   6.378   2.857  1.0666 -0.8074 -0.0451
24804SOL    HW279260   9.108   6.265   2.889  1.4474 -1.5208 -1.3604
24805SOL     OW79261   9.227   2.266   9.451 -0.2129  0.2334  0.0560
24805SOL    HW179262   9.170   2.340   9.431  0.6556  1.0728  0.5493
24805SOL    HW279263   9.206   2.200   9.385  0.9454  1.9843 -2.1943
24806SOL     OW79264   8.596   4.211   8.628 -0.1146 -0.4902  0.9043
24806SOL    HW179265   8.593   4.306   8.626  3.5225 -0.1512  2.9356
24806SOL    HW279266   8.553   4.186   8.709  0.3088 -0.4090  1.1588
24807SOL     OW79267   9.338   4.738   1.853 -0.1696 -0.8217  0.6325
24807SOL    HW179268   9.247   4.757   1.873  0.2756 -0.6373  2.7203
24807SOL    HW279269   9.356   4.655   1.897  0.6128 -0.9719  0.0637
24808SOL     OW79270   5.205   3.265   9.023 -0.0252  0.4956  0.2481
24808SOL    HW179271   5.290   3.254   8.979 -1.6722  0.6639 -3.3465
24808SOL    HW279272   5.206   3.355   9.056  1.1086  0.5486  0.1195
24809SOL     OW79273   6.740   5.646   2.178  0.2717  0.4276  0.0391
24809SOL    HW179274   6.820   5.608   2.213 -0.9060 -1.4792  0.7745
24809SOL    HW279275   6.737   5.616   2.087 -1.1258 -2.2211  0.8643
24810SOL     OW79276   9.385   4.788   2.358 -0.3584  0.0756 -0.5514
24810SOL    HW179277   9.293   4.789   2.386 -0.8140 -0.6726 -1.9433
24810SOL    HW279278   9.409   4.695   2.358  0.2198  0.2224 -0.7406
24811SOL     OW79279   8.459   2.838   0.206  0.0095  0.0234  0.1113
24811SOL    HW179280   8.428   2.767   0.262  0.0449  0.7367  1.0527
24811SOL    HW279281   8.387   2.901   0.205  0.3231  0.3851  0.0043
24812SOL     OW79282   7.227   6.683   2.630 -0.5933 -0.2752  0.5153
24812SOL    HW179283   7.246   6.756   2.689 -0.6554  0.7958 -0.7401
24812SOL    HW279284   7.313   6.645   2.611 -0.2687  0.9769 -0.6687
24813SOL     OW79285   7.535   4.531   0.125  0.2009  0.8437  0.1652
24813SOL    HW179286   7.588   4.598   0.081  2.0042  1.6462  3.2775
24813SOL    HW279287   7.598   4.476   0.170 -1.4667 -0.7244  0.6849
24814SOL     OW79288   6.514   4.347   3.320  0.7471 -0.0198 -0.6486
24814SOL    HW179289   6.541   4.256   3.328 -0.1630 -0.2100  0.5344
24814SOL    HW279290   6.476   4.369   3.405 -0.7574  0.8761 -1.4987
24815SOL     OW79291   7.232   3.593   9.009 -0.3796  0.0362 -0.7282
24815SOL    HW179292   7.229   3.538   9.087  1.6545  1.0730  0.1620
24815SOL    HW279293   7.236   3.531   8.936 -0.0670 -0.9692  0.1288
24816SOL     OW79294   7.940   4.882   1.969 -0.2461 -0.0023 -0.4924
24816SOL    HW179295   7.991   4.936   1.909 -0.4034  1.3609  0.5585
24816SOL    HW279296   7.933   4.797   1.925  0.7331  0.5658 -1.7980
24817SOL     OW79297   7.571   4.607   8.247 -0.0367 -0.4871  0.1479
24817SOL    HW179298   7.541   4.521   8.276 -1.0766 -0.7126 -1.4610
24817SOL    HW279299   7.498   4.666   8.266  0.4277 -0.0665  0.6714
24818SOL     OW79300   7.534   2.824   0.212 -0.2804 -0.0689  0.5284
24818SOL    HW179301   7.587   2.903   0.201  0.1847  0.1991  3.9158
24818SOL    HW279302   7.451   2.845   0.169  0.1743  1.8863  0.5194
24819SOL     OW79303   9.139   3.962   0.221  0.2837 -0.4191  0.1837
24819SOL    HW179304   9.054   3.948   0.263  0.3803 -0.3484  0.4068
24819SOL    HW279305   9.200   3.974   0.294  0.1275  1.7129  0.0078
24820SOL     OW79306   7.626   3.822   0.556  0.3207  0.7643 -0.1361
24820SOL    HW179307   7.579   3.868   0.625  1.0693  1.7287 -0.2370
24820SOL    HW279308   7.558   3.786   0.499 -0.2901  0.5402  0.7346
24821SOL     OW79309   5.730   8.710   4.643 -0.1262 -0.4088 -0.1524
24821SOL    HW179310   5.739   8.617   4.624  2.6454 -0.2629  0.0210
24821SOL    HW279311   5.743   8.753   4.558 -0.3555 -0.1599 -0.0615
24822SOL     OW79312   8.676   4.903   0.603  0.6181 -0.4401 -0.5545
24822SOL    HW179313   8.685   4.861   0.689  2.2716  2.4170  0.8208
24822SOL    HW279314   8.742   4.861   0.548  1.4637 -0.4313  0.4228
24823SOL     OW79315   6.985   3.143   0.636 -0.2603 -0.1389 -0.0431
24823SOL    HW179316   7.045   3.068   0.640 -2.0230 -1.6558  4.8673
24823SOL    HW279317   6.905   3.107   0.597 -1.1810 -1.0810  2.5084
24824SOL     OW79318   9.293   3.534   9.813 -0.0150 -0.1817  0.5707
24824SOL    HW179319   9.334   3.557   9.730 -1.0000  3.2172  0.8369
24824SOL    HW279320   9.258   3.447   9.800 -0.6849  0.4541 -2.8340
24825SOL     OW79321   7.857   5.597   0.823  0.1006  0.0869 -0.2798
24825SOL    HW179322   7.879   5.635   0.738 -0.3015  0.3457 -0.2683
24825SOL    HW279323   7.937   5.607   0.875 -0.4388  2.2962  0.2233
24826SOL     OW79324   7.457   5.166   0.157 -0.6251  0.3846  0.5482
24826SOL    HW179325   7.451   5.211   0.072 -1.4019 -1.2081 -0.2932
24826SOL    HW279326   7.546   5.185   0.188 -1.1160  2.9380  0.5447
24827SOL     OW79327   0.629   4.087   2.021  0.2587 -0.1547 -0.2771
24827SOL    HW179328   0.544   4.074   1.979 -0.7392 -0.7875  1.7958
24827SOL    HW279329   0.615   4.161   2.081  0.4803 -1.5934  1.6525
24828SOL     OW79330   8.610   3.685   2.938  0.2074 -0.0179  0.2195
24828SOL    HW179331   8.518   3.700   2.917  0.3034  0.6205  0.2049
24828SOL    HW279332   8.627   3.744   3.012  0.6867  0.1380 -0.0083
24829SOL     OW79333   0.284   3.502   1.136 -0.4531 -0.8501 -0.2759
24829SOL    HW179334   0.266   3.501   1.042 -0.3464 -0.9169 -0.2965
24829SOL    HW279335   0.207   3.461   1.175 -1.4309  1.0114 -0.1603
24830SOL     OW79336   8.293   3.487   0.700 -0.4906 -0.0356 -0.2940
24830SOL    HW179337   8.254   3.422   0.642  2.2512 -0.8319 -1.3823
24830SOL    HW279338   8.303   3.565   0.645  1.3940 -0.5382 -0.6955
24831SOL     OW79339   9.407   5.585   1.607 -0.4728  0.3892  0.1162
24831SOL    HW179340   9.477   5.633   1.652 -0.9308  1.2214 -0.0393
24831SOL    HW279341   9.326   5.623   1.640 -0.8304  0.5704 -0.9161
24832SOL     OW79342   5.236   4.127   0.296  0.2930  0.1952  0.4916
24832SOL    HW179343   5.249   4.142   0.202 -0.9382 -0.3463  0.2020
24832SOL    HW279344   5.141   4.125   0.306  0.3937 -1.1419  1.5068
24833SOL     OW79345   8.948   5.073   7.683  0.6972  0.5204  0.3218
24833SOL    HW179346   8.970   5.126   7.606  1.9219 -0.1250  0.2056
24833SOL    HW279347   9.011   5.100   7.749  0.2727  0.3659  0.7948
24834SOL     OW79348   8.480   5.387   0.404  0.4438 -0.0412 -0.2705
24834SOL    HW179349   8.511   5.396   0.314 -0.6336 -1.8766 -0.8771
24834SOL    HW279350   8.527   5.456   0.453  0.6279  1.3586 -2.3043
24835SOL     OW79351   8.810   4.332   0.543 -0.1479  0.1963 -0.4823
24835SOL    HW179352   8.722   4.297   0.534 -0.7755  1.7835 -0.8593
24835SOL    HW279353   8.837   4.308   0.632 -1.6032  1.0206  0.2248
24836SOL     OW79354   8.037   4.390   0.011 -0.4942  0.0543  0.6372
24836SOL    HW179355   8.123   4.431   0.004 -0.4984  0.2808  1.7403
24836SOL    HW279356   8.033   4.330  -0.063 -1.1099  3.1292 -2.0719
24837SOL     OW79357   7.702   4.315   1.833 -0.1106  0.0178 -0.1801
24837SOL    HW179358   7.679   4.297   1.742  1.8979  0.4833 -0.8437
24837SOL    HW279359   7.710   4.229   1.873  2.0216 -0.3855 -1.3111
24838SOL     OW79360   8.841   5.346   0.607 -0.0458 -0.0856  0.1756
24838SOL    HW179361   8.870   5.335   0.516 -1.4841  1.7914 -0.5726
24838SOL    HW279362   8.922   5.363   0.655  0.6531 -0.1657 -0.9223
24839SOL     OW79363   5.375   4.015   4.274 -0.5551  0.1643 -0.0305
24839SOL    HW179364   5.460   3.991   4.238 -0.8610  0.9586 -1.3334
24839SOL    HW279365   5.340   3.933   4.309 -0.7770 -0.9561 -2.6981
24840SOL     OW79366   5.031   6.498   1.762  0.2536 -0.1049 -0.1955
24840SOL    HW179367   4.966   6.475   1.828 -0.8466  1.7908 -0.5594
24840SOL    HW279368   5.094   6.426   1.765 -1.4542 -1.6470  0.6625
24841SOL     OW79369   7.799   4.616   1.028 -0.0528 -0.0260 -0.0384
24841SOL    HW179370   7.888   4.594   1.003  0.1762 -0.2587  0.9213
24841SOL    HW279371   7.771   4.681   0.964  0.4177 -0.7246 -0.9794
24842SOL     OW79372   5.456   3.595   7.103 -0.2693  0.4129  0.1418
24842SOL    HW179373   5.542   3.578   7.142 -0.2536 -0.0282 -0.0772
24842SOL    HW279374   5.452   3.691   7.093 -0.0055  0.4713  0.6028
24843SOL     OW79375   0.486   3.679   2.986  0.2914 -0.1843  0.2485
24843SOL    HW179376   0.551   3.703   2.920  0.8250 -1.7120  0.1807
24843SOL    HW279377   0.538   3.647   3.060 -0.2479  2.2015  1.7735
24844SOL     OW79378   7.995   3.729   1.000  0.2081 -0.1020  0.8545
24844SOL    HW179379   7.968   3.744   1.090 -1.9622  2.0825 -0.0619
24844SOL    HW279380   8.087   3.758   0.997  0.4606 -0.6561  2.4053
24845SOL     OW79381   8.000   5.704   3.875 -0.1824 -0.0706  0.1250
24845SOL    HW179382   8.044   5.745   3.950 -1.5822 -0.5132  1.2389
24845SOL    HW279383   8.069   5.656   3.830  0.6954  0.1884  1.1495
24846SOL     OW79384   8.030   5.442   2.249 -0.5983 -0.1410 -0.2108
24846SOL    HW179385   7.945   5.464   2.210  0.3405 -0.2323 -2.5022
24846SOL    HW279386   8.072   5.385   2.184 -0.2755 -3.3916  2.5852
24847SOL     OW79387   6.696   3.931   3.110  0.3894  0.4537 -0.2654
24847SOL    HW179388   6.787   3.950   3.135 -0.0303  1.1289  0.8182
24847SOL    HW279389   6.657   3.894   3.188 -0.8680  2.2702  0.0470
24848SOL     OW79390   6.525   3.541   6.605  0.3350 -0.2121 -0.3898
24848SOL    HW179391   6.542   3.543   6.699  1.9540  0.6593 -0.6639
24848SOL    HW279392   6.430   3.530   6.598  0.2575 -0.9483  1.3245
24849SOL     OW79393   9.131   4.282   1.146  0.0555  0.5268  0.5717
24849SOL    HW179394   9.157   4.358   1.093 -0.8566  0.9552  0.7119
24849SOL    HW279395   9.187   4.287   1.223  0.6974  0.4741  0.1197
24850SOL     OW79396   7.479   6.546   2.649  0.1481  0.0030 -0.7804
24850SOL    HW179397   7.479   6.462   2.696 -3.4356  1.1246  1.5959
24850SOL    HW279398   7.524   6.606   2.708  2.5851 -0.0646 -2.4200
24851SOL     OW79399   6.008   2.947   2.594 -0.3253  0.2489 -0.1406
24851SOL    HW179400   6.058   2.879   2.549 -1.1571  1.8966 -3.9890
24851SOL    HW279401   5.936   2.901   2.635  1.1016 -1.5212  0.5132
24852SOL     OW79402   9.181   4.770   6.889 -0.3101  0.2522  0.0813
24852SOL    HW179403   9.251   4.805   6.834 -0.7200 -0.6676 -1.0886
24852SOL    HW279404   9.100   4.799   6.846 -0.6422  0.1117  0.6026
24853SOL     OW79405   8.520   4.521   2.969 -0.4584  0.0071  0.2355
24853SOL    HW179406   8.469   4.494   3.045 -0.1550  0.4098  0.5870
24853SOL    HW279407   8.537   4.614   2.984 -1.3810  0.3801 -0.8935
24854SOL     OW79408   7.761   2.740   0.920 -0.1398  0.0804  0.1208
24854SOL    HW179409   7.841   2.770   0.963 -1.1402  1.0827  1.3709
24854SOL    HW279410   7.749   2.650   0.951  0.2369  0.1071  0.3485
24855SOL     OW79411   6.847   3.848   3.580 -0.3764  0.1381  0.6546
24855SOL    HW179412   6.840   3.753   3.585  0.4125 -0.0919 -1.5992
24855SOL    HW279413   6.923   3.869   3.635 -0.8328 -0.4624  1.5330
24856SOL     OW79414   8.216   2.988   0.225 -0.5904 -0.5762 -0.1793
24856SOL    HW179415   8.232   3.018   0.135 -1.7499 -0.5776 -0.4094
24856SOL    HW279416   8.131   3.025   0.247  0.3484  0.6704  1.4982
24857SOL     OW79417   2.146   3.617   4.918  0.1763 -0.3604 -0.4138
24857SOL    HW179418   2.155   3.521   4.913  0.9470 -0.3592  0.7528
24857SOL    HW279419   2.080   3.637   4.851  1.0735 -1.5377 -1.7240
24858SOL     OW79420   7.918   6.569   0.869 -0.4546 -0.0418 -0.1109
24858SOL    HW179421   8.004   6.592   0.904 -1.2660  2.4820  0.4437
24858SOL    HW279422   7.924   6.589   0.776 -0.1991 -0.6963 -0.2396
24859SOL     OW79423   7.098   5.242   1.846  0.2840 -0.2414  0.3321
24859SOL    HW179424   7.134   5.321   1.886  1.8692 -1.2073  0.9133
24859SOL    HW279425   7.111   5.254   1.752 -2.2719  1.4673  0.0765
24860SOL     OW79426   8.312   5.867   7.024 -0.1155  0.1003 -0.1588
24860SOL    HW179427   8.378   5.906   6.967 -0.9933 -1.3365 -2.2927
24860SOL    HW279428   8.229   5.887   6.982 -0.7531 -1.5260  0.2524
24861SOL     OW79429   6.905   0.743   3.020  0.3935  0.1650  0.3238
24861SOL    HW179430   6.996   0.773   3.008  0.2173  0.7308  0.3782
24861SOL    HW279431   6.867   0.747   2.933 -0.2339  2.1297  0.6392
24862SOL     OW79432   5.760   2.335   6.193 -0.1891  0.3512  0.7411
24862SOL    HW179433   5.773   2.336   6.098  1.3035  1.6952  0.9180
24862SOL    HW279434   5.710   2.255   6.209  1.2378 -0.9946 -0.9873
24863SOL     OW79435   8.799   5.477   0.878  0.3965  0.2612 -0.5049
24863SOL    HW179436   8.743   5.495   0.802  1.1258  0.9619 -0.8897
24863SOL    HW279437   8.887   5.466   0.842  0.5248 -0.8264  0.0971
24864SOL     OW79438   7.409   4.618   1.569  0.2242 -0.3671  0.5350
24864SOL    HW179439   7.480   4.608   1.505  0.0478 -0.2585  0.3238
24864SOL    HW279440   7.369   4.532   1.574 -0.6411 -0.0449 -0.5260
24865SOL     OW79441   8.070   6.025   1.717 -0.0763  0.1971  0.1107
24865SOL    HW179442   8.052   6.109   1.676  0.6487  0.8270  1.0669
24865SOL    HW279443   8.153   6.036   1.761 -0.1063 -0.9368  0.5020
24866SOL     OW79444   2.117   5.025   8.293 -0.5516  0.6876 -0.0737
24866SOL    HW179445   2.032   5.004   8.331 -0.3515 -2.0985 -0.9375
24866SOL    HW279446   2.139   4.948   8.240  3.0712  0.7139  1.1254
24867SOL     OW79447   9.535   6.297   8.266 -0.4904  0.0281 -0.0903
24867SOL    HW179448   9.462   6.272   8.210 -0.8648 -1.8387  1.1122
24867SOL    HW279449   9.495   6.352   8.334 -0.1601  1.7025 -1.2017
24868SOL     OW79450   9.813   3.399   1.766 -0.6949  0.8345 -0.2257
24868SOL    HW179451   9.848   3.418   1.853  0.5907  1.5107 -0.8733
24868SOL    HW279452   9.757   3.322   1.779  1.2582 -0.4919  0.8128
24869SOL     OW79453   5.385   5.855   1.153 -0.1600  0.2663  0.2400
24869SOL    HW179454   5.418   5.892   1.072 -0.3754 -2.1130 -1.0153
24869SOL    HW279455   5.462   5.847   1.209  0.2233  0.6892 -0.2187
24870SOL     OW79456   5.319   7.362   2.974 -0.5403 -0.1279 -0.3595
24870SOL    HW179457   5.295   7.280   2.930  1.0679 -1.7076  1.5284
24870SOL    HW279458   5.413   7.370   2.959 -0.3448  0.3617  1.0485
24871SOL     OW79459   6.145   4.086   9.836 -0.3596 -0.0686 -0.1921
24871SOL    HW179460   6.125   4.172   9.799 -0.5638 -0.1285 -0.2215
24871SOL    HW279461   6.075   4.069   9.898 -0.4669 -0.3317 -0.3831
24872SOL     OW79462   8.370   6.302   8.824  0.2040  0.0545 -0.4549
24872SOL    HW179463   8.401   6.213   8.805  0.7690  0.0490  0.4539
24872SOL    HW279464   8.286   6.289   8.868 -0.9697  0.0600 -2.5321
24873SOL     OW79465   6.087   5.932   2.457  0.5215 -0.0026 -0.2533
24873SOL    HW179466   6.132   6.013   2.433  1.0476 -0.4782 -0.9265
24873SOL    HW279467   6.037   5.909   2.379  0.0222 -0.0961  0.0887
24874SOL     OW79468   7.766   3.770   9.152 -0.2744 -0.1064  0.5995
24874SOL    HW179469   7.842   3.765   9.094 -0.2078 -1.2892  0.7535
24874SOL    HW279470   7.765   3.685   9.196 -1.1627  0.2418  1.2714
24875SOL     OW79471   0.454   6.233   1.954 -0.1859 -0.1679 -0.0222
24875SOL    HW179472   0.391   6.268   2.018 -0.5824 -1.0539  0.0816
24875SOL    HW279473   0.533   6.286   1.967 -0.8201  0.8045  0.0091
24876SOL     OW79474   9.533   5.012   2.290 -0.1522  0.1158  0.2491
24876SOL    HW179475   9.471   5.084   2.278  0.3837  0.2917 -1.7543
24876SOL    HW279476   9.479   4.938   2.319 -1.2965  0.3164 -1.2579
24877SOL     OW79477   8.820   4.853   2.039 -0.5780 -0.2103  0.1315
24877SOL    HW179478   8.884   4.903   1.989 -1.0620  1.1731  0.8541
24877SOL    HW279479   8.739   4.860   1.988 -0.2847 -1.6207 -0.5750
24878SOL     OW79480   8.682   4.675   0.831  0.1056  0.5825  0.0142
24878SOL    HW179481   8.740   4.618   0.881  1.6094  0.6219 -1.5921
24878SOL    HW279482   8.620   4.615   0.789  0.7612  0.2306 -0.4867
24879SOL     OW79483   8.108   5.086   0.588 -0.4718 -0.4198 -0.0239
24879SOL    HW179484   8.062   5.139   0.523  0.0478 -0.2817 -0.2815
24879SOL    HW279485   8.077   4.997   0.573  0.3225 -0.5429 -1.0800
24880SOL     OW79486   7.104   4.553   0.135  0.2276 -0.1388  0.1370
24880SOL    HW179487   7.151   4.627   0.096  0.5053 -0.7051 -0.6443
24880SOL    HW279488   7.074   4.585   0.220  1.6531  0.3891  0.4807
24881SOL     OW79489   0.987   4.536   0.588  0.1356  0.0778  0.0895
24881SOL    HW179490   1.035   4.453   0.587  0.8612  0.4384  1.4007
24881SOL    HW279491   0.935   4.535   0.508  1.3349 -0.9265 -0.7245
24882SOL     OW79492   8.005   5.938   9.723  0.0113 -0.2954  0.1357
24882SOL    HW179493   8.078   5.953   9.783 -1.3327  3.7335  1.1168
24882SOL    HW279494   8.029   5.985   9.643 -1.2854  0.8823  0.3857
24883SOL     OW79495   6.747   5.170   1.149  0.0944  0.0951  0.1807
24883SOL    HW179496   6.765   5.099   1.209  1.4206 -0.5975 -0.9782
24883SOL    HW279497   6.781   5.248   1.192  0.6721 -0.3317  0.5030
24884SOL     OW79498   7.474   6.600   8.615  0.5712  0.6800  0.2414
24884SOL    HW179499   7.388   6.559   8.622  0.3888  0.8011 -1.0289
24884SOL    HW279500   7.500   6.616   8.706 -0.0978 -0.6811  0.7012
24885SOL     OW79501   8.834   3.746   8.760 -0.0474  0.2580 -0.2622
24885SOL    HW179502   8.746   3.717   8.737 -0.2021  1.2934 -1.0451
24885SOL    HW279503   8.865   3.793   8.683  0.5564  1.3142  0.5905
24886SOL     OW79504   8.528   6.518   8.791  0.6071  0.0850  0.2361
24886SOL    HW179505   8.470   6.594   8.788  0.7912  0.3108  1.8770
24886SOL    HW279506   8.473   6.446   8.822  1.5156  0.6846  3.5381
24887SOL     OW79507   6.920   6.119   0.746  0.0856 -0.1744 -0.1822
24887SOL    HW179508   6.941   6.143   0.836  2.1584  1.6988 -1.0925
24887SOL    HW279509   6.868   6.192   0.713  1.6224  0.4818 -1.2673
24888SOL     OW79510   8.316   5.477   2.309  0.1261  0.3590  0.1619
24888SOL    HW179511   8.223   5.494   2.298  0.2516  1.4196  0.6723
24888SOL    HW279512   8.336   5.505   2.398  1.7529  4.2363 -1.2036
24889SOL     OW79513   7.602   4.253   9.455 -0.0186 -0.1751 -0.6733
24889SOL    HW179514   7.585   4.162   9.479  0.3508 -0.1621 -0.3454
24889SOL    HW279515   7.547   4.268   9.378 -0.8312 -0.3692 -0.1432
24890SOL     OW79516   9.588   7.122   1.583 -0.6644 -0.0745 -0.2234
24890SOL    HW179517   9.599   7.183   1.510 -0.6385  1.4719  1.0328
24890SOL    HW279518   9.642   7.159   1.653 -2.1786 -0.4817  1.2032
24891SOL     OW79519   7.508   4.873   1.117 -0.4589  0.6011  0.0728
24891SOL    HW179520   7.581   4.888   1.057 -2.3864  2.9907 -1.9042
24891SOL    HW279521   7.526   4.788   1.156  1.8229 -0.3165 -2.6256
24892SOL     OW79522   8.922   7.542   9.684 -0.0992 -0.3556 -0.2053
24892SOL    HW179523   8.880   7.621   9.652  0.0884 -0.9852 -2.1222
24892SOL    HW279524   8.858   7.503   9.744 -1.4375 -0.2474 -1.5136
24893SOL     OW79525   8.001   3.420   0.030 -0.2805 -0.2264 -0.0025
24893SOL    HW179526   8.092   3.392   0.018 -0.0383  0.3601  0.4341
24893SOL    HW279527   7.994   3.500  -0.021 -0.0188  0.7535  1.4333
24894SOL     OW79528   8.382   3.954   0.254 -0.1892 -0.3609 -0.3288
24894SOL    HW179529   8.339   3.885   0.204 -0.6345  0.2640 -0.8110
24894SOL    HW279530   8.434   3.907   0.319  0.0609 -1.1646 -1.1001
24895SOL     OW79531   8.890   5.051   1.852 -0.5421 -0.3974  0.4714
24895SOL    HW179532   8.894   5.103   1.772  1.2401  0.7231  1.2254
24895SOL    HW279533   8.943   5.100   1.915 -0.5457 -2.0749  1.8444
24896SOL     OW79534   9.593   4.179   9.203 -0.2240  0.0831 -0.1648
24896SOL    HW179535   9.555   4.092   9.212 -1.5354  0.7169  0.7814
24896SOL    HW279536   9.686   4.164   9.191 -0.3999 -1.4374  0.2437
24897SOL     OW79537   8.818   3.550   9.338  0.5960  0.1921 -0.0235
24897SOL    HW179538   8.790   3.488   9.405 -0.2506 -0.7612 -1.2208
24897SOL    HW279539   8.914   3.546   9.341  0.5701 -0.0666  0.8896
24898SOL     OW79540   7.684   5.764   0.685 -0.3289 -0.7615 -0.0148
24898SOL    HW179541   7.612   5.740   0.626  1.7599 -1.5143 -2.4072
24898SOL    HW279542   7.682   5.698   0.754 -1.1815 -1.4613 -0.6964
24899SOL     OW79543   6.272   6.855   3.713  0.1639  0.1200  0.0349
24899SOL    HW179544   6.220   6.815   3.643 -0.8753 -0.9299  1.3292
24899SOL    HW279545   6.363   6.847   3.684 -0.2728  0.3133 -1.4663
24900SOL     OW79546   7.391   3.405   0.664  0.2418  0.2800  0.4642
24900SOL    HW179547   7.448   3.333   0.690  0.5456  0.6259  0.7649
24900SOL    HW279548   7.445   3.458   0.606  0.1875  0.5336  0.6428
24901SOL     OW79549   7.758   2.782   2.458 -0.4167  0.3030 -0.5899
24901SOL    HW179550   7.814   2.712   2.424 -2.0544 -0.1670 -2.5334
24901SOL    HW279551   7.801   2.863   2.429 -0.5744 -0.0384 -1.8262
24902SOL     OW79552   9.402   6.268   4.116 -0.0597  0.8904  0.2016
24902SOL    HW179553   9.399   6.174   4.136  0.0946  0.7251 -0.5275
24902SOL    HW279554   9.311   6.297   4.128 -0.6299  0.1452 -1.8430
24903SOL     OW79555   0.061   5.814   2.669  0.0865 -0.1040 -0.5037
24903SOL    HW179556   0.056   5.868   2.590 -3.9053  0.0866 -0.3171
24903SOL    HW279557   0.032   5.872   2.740 -1.0363 -1.5203  0.2467
24904SOL     OW79558   8.788   3.520   3.204 -0.2110 -0.5624  0.6178
24904SOL    HW179559   8.828   3.449   3.253 -1.2687  0.1532  2.6673
24904SOL    HW279560   8.859   3.556   3.150  0.4821 -2.7109 -0.0011
24905SOL     OW79561   8.625   3.881   1.209 -0.4082  0.0470 -0.2728
24905SOL    HW179562   8.660   3.868   1.298  0.3052  0.2853 -0.5149
24905SOL    HW279563   8.649   3.970   1.186  0.8709 -0.5407 -1.3394
24906SOL     OW79564   8.738   4.905   3.528 -0.5548 -0.2085 -0.0794
24906SOL    HW179565   8.694   4.896   3.613  2.1690  2.4546  1.8411
24906SOL    HW279566   8.778   4.992   3.531  1.8177 -1.0129 -3.0674
24907SOL     OW79567   9.718   3.579   4.737  0.1912 -0.2002 -0.6927
24907SOL    HW179568   9.695   3.504   4.683 -0.0664 -2.8815  2.7324
24907SOL    HW279569   9.814   3.578   4.740  0.2201  0.2190 -1.4061
24908SOL     OW79570   1.998   3.338   4.699 -0.2544  0.3424  0.4119
24908SOL    HW179571   2.069   3.294   4.651  0.0974  0.1765  1.0602
24908SOL    HW279572   1.975   3.276   4.769 -0.7294  0.5927  0.4796
24909SOL     OW79573   6.090   3.286   3.623  0.6857  0.2148 -0.4143
24909SOL    HW179574   6.006   3.330   3.614  0.2383 -0.8553 -1.9341
24909SOL    HW279575   6.070   3.205   3.669  1.7300  2.0366  3.7442
24910SOL     OW79576   9.160   5.353   3.920  0.6109  0.5780  0.1117
24910SOL    HW179577   9.252   5.327   3.908 -0.2859 -1.5338 -3.6385
24910SOL    HW279578   9.123   5.286   3.977  1.1163  0.8159  0.7309
24911SOL     OW79579   8.443   5.347   3.115  0.1305  0.4175  0.0168
24911SOL    HW179580   8.354   5.382   3.111 -0.3749 -0.7302  0.7017
24911SOL    HW279581   8.432   5.253   3.105  1.1906  0.1749  0.9277
24912SOL     OW79582   5.875   4.496   2.246  0.3624  0.4562 -0.3666
24912SOL    HW179583   5.865   4.573   2.302 -2.4480  0.5854 -0.9307
24912SOL    HW279584   5.875   4.422   2.307 -0.1806  0.7290 -0.0239
24913SOL     OW79585   7.890   4.172   5.203 -0.2013  0.3549 -0.2005
24913SOL    HW179586   7.918   4.151   5.114 -0.6615  0.3470 -0.3493
24913SOL    HW279587   7.951   4.125   5.259 -1.2543 -1.5144 -0.5215
24914SOL     OW79588   7.679   3.012   1.810 -0.2523 -0.7158  0.2787
24914SOL    HW179589   7.761   3.061   1.814 -0.4417 -0.2117 -1.4787
24914SOL    HW279590   7.706   2.922   1.789 -0.1393 -0.6012 -0.0634
24915SOL     OW79591   6.212   4.251   2.313 -0.0710 -0.0681  0.2059
24915SOL    HW179592   6.258   4.176   2.275 -0.5427 -0.0789 -0.3664
24915SOL    HW279593   6.222   4.320   2.247 -0.5750  0.0326  0.2324
24916SOL     OW79594   6.216   3.767   5.022 -0.0749 -0.1295  0.1598
24916SOL    HW179595   6.210   3.704   4.950 -0.4451 -0.7721  0.7351
24916SOL    HW279596   6.145   3.829   5.005 -0.5775 -0.6546  0.3117
24917SOL     OW79597   8.269   4.538   0.794  0.0193 -0.2279 -0.1528
24917SOL    HW179598   8.334   4.532   0.864 -0.2171 -2.0448 -0.0194
24917SOL    HW279599   8.315   4.505   0.717 -0.0990  0.5780 -0.5725
24918SOL     OW79600   8.430   4.527   1.075 -0.3445  0.0886 -0.0730
24918SOL    HW179601   8.442   4.539   1.169  0.8800 -1.3175 -0.0088
24918SOL    HW279602   8.442   4.614   1.038  0.6727  0.4114  0.9495
24919SOL     OW79603   4.234   4.160   1.001  0.4417  0.2682  0.1347
24919SOL    HW179604   4.206   4.169   1.092 -1.0478  0.6855 -0.3419
24919SOL    HW279605   4.276   4.243   0.981 -1.8027  1.3594 -0.3805
24920SOL     OW79606   9.486   5.851   9.543  0.4716  0.4220  0.4455
24920SOL    HW179607   9.558   5.900   9.503  0.7293 -1.0951 -1.0300
24920SOL    HW279608   9.413   5.913   9.545  0.4248  0.6030 -2.4836
24921SOL     OW79609   5.340   8.043   3.346  0.0396  0.5125 -0.1096
24921SOL    HW179610   5.312   8.046   3.254  0.0346  0.7418 -0.0998
24921SOL    HW279611   5.282   7.978   3.386 -1.2087  1.7690  0.1651
24922SOL     OW79612   0.433   4.379   2.708 -0.0075 -0.0786 -0.1781
24922SOL    HW179613   0.399   4.468   2.706 -0.5382 -0.2800 -0.1991
24922SOL    HW279614   0.517   4.386   2.754 -0.5222  0.2692  0.7145
24923SOL     OW79615   0.133   5.074   2.659  0.0151  0.1787  0.6261
24923SOL    HW179616   0.069   5.044   2.594  2.7653 -2.4115 -1.1619
24923SOL    HW279617   0.164   5.158   2.626  0.8336 -0.7672 -1.1607
24924SOL     OW79618   6.753   7.758   6.567  0.1263  0.2706 -0.3507
24924SOL    HW179619   6.807   7.752   6.488  0.0048 -0.7044 -0.3783
24924SOL    HW279620   6.813   7.740   6.639  0.0229  0.0956 -0.3079
24925SOL     OW79621   8.021   5.616   0.336 -0.3970 -0.5201 -0.1106
24925SOL    HW179622   8.022   5.670   0.415  0.0469  0.6824 -0.9003
24925SOL    HW279623   8.109   5.627   0.299 -0.6671 -0.8910 -0.8863
24926SOL     OW79624   8.238   4.145   1.505 -0.6966  0.0107 -0.5041
24926SOL    HW179625   8.299   4.089   1.458  0.1321 -1.3283  2.0354
24926SOL    HW279626   8.156   4.096   1.507 -0.6385 -0.0721 -0.2379
24927SOL     OW79627   6.339   4.129   4.927  0.0721  0.0270 -0.0860
24927SOL    HW179628   6.427   4.110   4.894 -0.6597 -1.7873 -1.1346
24927SOL    HW279629   6.283   4.129   4.849 -0.8008  1.8369  0.4651
24928SOL     OW79630   9.341   3.067   4.766 -0.3431 -0.1405 -0.3922
24928SOL    HW179631   9.364   2.974   4.756  1.4891  0.0157  1.6192
24928SOL    HW279632   9.330   3.079   4.860 -1.2509  1.5716 -0.6734
24929SOL     OW79633   8.754   4.603   1.734  0.0104 -0.4140 -0.1834
24929SOL    HW179634   8.810   4.670   1.694  0.3834 -1.1809 -0.9775
24929SOL    HW279635   8.794   4.586   1.819 -1.4119  2.0225  1.0675
24930SOL     OW79636   9.281   5.065   2.848  0.0899 -0.4600 -0.1113
24930SOL    HW179637   9.284   5.089   2.940  0.7047 -1.2049  0.0737
24930SOL    HW279638   9.305   5.146   2.802  1.5743 -0.5280  0.4720
24931SOL     OW79639   5.736   3.167   1.800  0.3897  0.7493 -0.0917
24931SOL    HW179640   5.729   3.214   1.717 -0.6807 -0.6482 -0.8247
24931SOL    HW279641   5.770   3.232   1.861 -0.7678  2.3970 -1.1259
24932SOL     OW79642   8.755   5.707   3.069  0.1860  0.7361 -0.2796
24932SOL    HW179643   8.767   5.795   3.033  1.8651  0.6303 -0.0971
24932SOL    HW279644   8.843   5.682   3.097  0.1166 -1.7182 -1.9842
24933SOL     OW79645   8.119   4.347   1.370  0.0240  0.4433  0.1143
24933SOL    HW179646   8.145   4.338   1.278 -2.4041 -1.6829 -0.5024
24933SOL    HW279647   8.173   4.282   1.416  0.6548  0.9226  0.0593
24934SOL     OW79648   8.017   2.593   1.497  0.4360 -0.5447 -0.0322
24934SOL    HW179649   8.082   2.658   1.521  0.4248  0.2843 -2.1282
24934SOL    HW279650   8.028   2.580   1.403 -0.8810 -2.1207 -0.0201
24935SOL     OW79651   7.757   6.610   2.584 -0.1464 -0.3003 -0.0338
24935SOL    HW179652   7.672   6.593   2.624 -0.6557  0.7114 -0.6555
24935SOL    HW279653   7.798   6.675   2.641 -0.0434 -0.3321 -0.0714
24936SOL     OW79654   9.715   5.021   2.057 -0.0676 -0.3936  0.2331
24936SOL    HW179655   9.640   5.014   2.117 -1.1892 -2.9629 -1.2512
24936SOL    HW279656   9.788   4.982   2.105 -0.2072  0.2263  0.9582
24937SOL     OW79657   6.545   3.989   2.614 -0.1318  0.0490 -0.1750
24937SOL    HW179658   6.634   4.019   2.596  0.4916 -0.4011  1.9356
24937SOL    HW279659   6.551   3.947   2.700 -1.8177 -2.3768 -1.1399
24938SOL     OW79660   0.709   2.367   3.933  0.6450 -0.3753 -0.1512
24938SOL    HW179661   0.674   2.447   3.973  1.6371  0.3800 -0.7177
24938SOL    HW279662   0.671   2.366   3.845  0.4303 -0.6709 -0.0558
24939SOL     OW79663   9.420   5.278   2.733  0.5613  0.4137  0.0755
24939SOL    HW179664   9.440   5.286   2.640  1.9983  0.1923  0.3434
24939SOL    HW279665   9.440   5.364   2.770  1.1868  0.1469  0.3758
24940SOL     OW79666   0.102   5.058   5.081 -0.3502  1.0074 -0.4070
24940SOL    HW179667   0.075   5.095   5.165 -0.1712 -3.1497  1.7176
24940SOL    HW279668   0.024   5.064   5.025 -1.0327  2.2022  0.6280
24941SOL     OW79669   6.613   3.894   0.569  0.2628 -0.1972  0.2396
24941SOL    HW179670   6.540   3.865   0.623 -0.5590 -0.5743 -1.0140
24941SOL    HW279671   6.675   3.821   0.571 -0.0090 -0.4298  0.2416
24942SOL     OW79672   7.562   5.023   4.769 -0.2980 -0.0673  0.0780
24942SOL    HW179673   7.616   4.948   4.746 -0.2020 -0.1416  0.5418
24942SOL    HW279674   7.484   4.985   4.809  0.1149  0.1008  1.0771
24943SOL     OW79675   7.974   6.164   2.496  0.3755  0.7019  0.2708
24943SOL    HW179676   7.940   6.092   2.444  0.3155  1.1018 -0.2540
24943SOL    HW279677   7.918   6.166   2.574  1.8233 -1.3110  1.4798
24944SOL     OW79678   9.828   2.671   4.159  0.0792 -0.0661 -0.1107
24944SOL    HW179679   9.878   2.606   4.208 -0.5672 -0.6243 -0.1761
24944SOL    HW279680   9.780   2.720   4.225  1.5291  1.1956  0.0406
24945SOL     OW79681   7.982   6.264   1.943  0.2676 -0.7373  0.9889
24945SOL    HW179682   7.942   6.223   2.020 -1.4698 -0.0044  0.5348
24945SOL    HW279683   8.052   6.318   1.979 -1.2546  0.5099  2.2494
24946SOL     OW79684   8.979   5.080   2.282  0.0010  0.2026  0.3203
24946SOL    HW179685   9.031   5.095   2.361 -0.5472  0.9191  0.5531
24946SOL    HW279686   9.039   5.102   2.210  0.9204 -1.6701  0.4544
24947SOL     OW79687   8.124   4.614   3.140  0.2929  0.0600 -0.2349
24947SOL    HW179688   8.128   4.671   3.216  0.6495  3.4009 -2.5562
24947SOL    HW279689   8.213   4.615   3.103  0.0536 -1.1936 -0.9211
24948SOL     OW79690   7.627   5.367   3.271  0.1406  0.6746 -0.9072
24948SOL    HW179691   7.532   5.352   3.269  0.3355 -0.9037 -0.0328
24948SOL    HW279692   7.663   5.302   3.210  0.7285  0.5201 -0.4063
24949SOL     OW79693   6.908   4.957   9.418  0.6250  0.3223  0.1517
24949SOL    HW179694   6.961   4.935   9.341  0.4003 -0.0452  0.1001
24949SOL    HW279695   6.843   4.887   9.423  0.2271  0.7004  0.2938
24950SOL     OW79696   9.671   4.168   2.381 -0.0509  0.2380  0.0434
24950SOL    HW179697   9.704   4.102   2.442  0.3826  1.4197  1.1426
24950SOL    HW279698   9.748   4.219   2.357 -0.2400 -0.1390 -1.4502
24951SOL     OW79699   7.918   4.766   1.281  0.3100 -0.6311  0.9209
24951SOL    HW179700   7.943   4.713   1.205  2.0815 -1.3229  1.9040
24951SOL    HW279701   7.922   4.856   1.249 -1.4954 -0.9852 -0.4449
24952SOL     OW79702   8.643   2.622   4.866 -0.0381 -0.0555  0.0325
24952SOL    HW179703   8.655   2.549   4.926 -3.9566  0.0690  1.2475
24952SOL    HW279704   8.603   2.584   4.788 -0.7465  0.5627  0.0772
24953SOL     OW79705   8.233   5.610   2.791  0.2067  0.8942  0.2294
24953SOL    HW179706   8.195   5.632   2.876  0.1784  0.3326  0.3687
24953SOL    HW279707   8.158   5.589   2.736  0.1783  1.9738 -0.1516
24954SOL     OW79708   1.909   4.598   3.078  0.1351  0.6009 -0.2564
24954SOL    HW179709   1.867   4.562   3.000 -0.8928 -1.7939  1.2935
24954SOL    HW279710   1.844   4.588   3.148  1.1657  2.2675  1.0575
24955SOL     OW79711   8.401   3.879   1.369  0.1429 -0.2598  0.4699
24955SOL    HW179712   8.413   3.784   1.367 -0.2087 -0.2978  0.1575
24955SOL    HW279713   8.480   3.914   1.328  0.7953 -0.3642  1.5806
24956SOL     OW79714   0.091   6.252   2.971  0.0522  0.7050 -0.0025
24956SOL    HW179715   0.033   6.189   3.014  0.7896  0.2240  0.3080
24956SOL    HW279716   0.175   6.242   3.015  1.3012 -0.9120 -2.5160
24957SOL     OW79717   7.206   4.709   1.742 -0.6957  0.4193 -0.1640
24957SOL    HW179718   7.205   4.628   1.793 -1.4429  1.0772  0.9020
24957SOL    HW279719   7.284   4.701   1.686 -0.9751 -1.1937 -0.3696
24958SOL     OW79720   8.646   4.907   5.554  0.2821 -0.2902 -0.0380
24958SOL    HW179721   8.570   4.905   5.495 -0.2762 -1.0906  0.6882
24958SOL    HW279722   8.710   4.851   5.511  0.5674  0.5665 -0.7666
24959SOL     OW79723   7.778   3.303   2.618 -0.3528  0.5979 -0.4724
24959SOL    HW179724   7.803   3.303   2.711 -0.0972  0.6952 -0.5415
24959SOL    HW279725   7.745   3.391   2.602 -1.7213  0.1799 -0.1223
24960SOL     OW79726   7.393   3.791   5.457  0.0674 -0.3670  0.4541
24960SOL    HW179727   7.455   3.774   5.528 -0.1626  0.3237  0.8324
24960SOL    HW279728   7.440   3.769   5.378  0.6697 -0.2165  0.7662
24961SOL     OW79729   8.577   5.225   0.920 -0.4718 -0.3967  0.4174
24961SOL    HW179730   8.629   5.305   0.930 -0.5302 -0.5997  3.2502
24961SOL    HW279731   8.573   5.188   1.008 -2.3514 -2.3583 -0.3924
24962SOL     OW79732   6.091   3.387   4.795  0.3110  0.5816 -0.0053
24962SOL    HW179733   6.169   3.442   4.798  2.0534 -1.7652  0.7030
24962SOL    HW279734   6.094   3.337   4.877 -1.0251 -0.7487 -0.7106
24963SOL     OW79735   7.435   5.541   0.209  0.5626  0.1680 -0.6489
24963SOL    HW179736   7.528   5.520   0.219  0.3607 -2.0226 -2.5251
24963SOL    HW279737   7.390   5.477   0.264  0.1267  1.3532  0.4201
24964SOL     OW79738   7.256   1.536   1.358 -0.1475  0.2139 -0.3575
24964SOL    HW179739   7.329   1.583   1.398  0.1552  0.7500 -1.5249
24964SOL    HW279740   7.185   1.542   1.423  0.7704 -0.1632  0.7081
24965SOL     OW79741   5.795   4.363   3.223 -0.3415 -0.0519  0.1302
24965SOL    HW179742   5.758   4.323   3.143  0.9822  0.8540 -0.9754
24965SOL    HW279743   5.846   4.293   3.263  0.4631 -0.0272 -0.8106
24966SOL     OW79744   8.838   5.065   2.831 -0.4347 -0.0139 -0.2513
24966SOL    HW179745   8.743   5.061   2.840 -0.3987  0.4634  0.4364
24966SOL    HW279746   8.871   4.997   2.890 -0.3250  0.5399  0.3443
24967SOL     OW79747   7.111   4.597   3.926 -0.3805  0.5896 -0.3584
24967SOL    HW179748   7.194   4.550   3.918 -0.0727  1.0670 -0.0322
24967SOL    HW279749   7.087   4.618   3.836 -0.9490 -0.9066 -0.5793
24968SOL     OW79750   1.020   3.912   2.758  0.0574  0.9826  0.2888
24968SOL    HW179751   0.957   3.852   2.799 -0.7465  0.6149 -1.3914
24968SOL    HW279752   1.004   3.996   2.801 -1.2299  0.7754  0.2564
24969SOL     OW79753   6.796   4.485   1.626 -0.6663  0.0879 -0.1803
24969SOL    HW179754   6.880   4.530   1.622 -0.3139 -0.4855  0.4560
24969SOL    HW279755   6.805   4.425   1.701 -1.8213  0.4050  0.2334
24970SOL     OW79756   7.940   7.315   2.617  0.4455 -0.2877 -1.1942
24970SOL    HW179757   7.889   7.342   2.541  0.1494 -0.8141 -1.1866
24970SOL    HW279758   8.031   7.334   2.594  0.1921  1.5493 -0.8454
24971SOL     OW79759   6.583   5.530   3.067  0.2826 -0.3869 -0.1190
24971SOL    HW179760   6.665   5.544   3.020  1.1088 -0.5657  1.2130
24971SOL    HW279761   6.553   5.618   3.089 -0.7503 -0.2302 -1.9778
24972SOL     OW79762   8.414   6.231   2.189 -0.5796 -0.4764  0.3814
24972SOL    HW179763   8.344   6.166   2.200 -1.3308  0.1670 -0.3825
24972SOL    HW279764   8.407   6.288   2.265  0.5190 -1.6462  1.4079
24973SOL     OW79765   9.056   5.512   1.227 -0.3857 -0.1482  0.0500
24973SOL    HW179766   9.091   5.463   1.152  1.1795  0.1558  0.5442
24973SOL    HW279767   9.134   5.539   1.276 -1.1767  2.7730 -0.1618
24974SOL     OW79768   6.666   3.760   2.153 -0.2448 -0.2687  0.2339
24974SOL    HW179769   6.638   3.784   2.242 -2.6043 -3.6817  0.5968
24974SOL    HW279770   6.752   3.721   2.165 -0.5060 -0.6229  1.0138
24975SOL     OW79771   9.730   4.063   3.492  0.2546 -0.0050 -0.2631
24975SOL    HW179772   9.669   4.133   3.513  0.2028 -0.3537  0.8252
24975SOL    HW279773   9.784   4.054   3.571  1.1949 -0.2332 -0.9166
24976SOL     OW79774   9.644   3.475   3.120 -0.5444 -0.0844  0.0090
24976SOL    HW179775   9.702   3.453   3.047  0.1760  1.5575  0.0349
24976SOL    HW279776   9.643   3.396   3.174  0.5425 -0.6422 -0.7390
24977SOL     OW79777   4.117   6.288   3.700 -0.3434 -0.3212 -0.5484
24977SOL    HW179778   4.062   6.257   3.628 -0.1526  1.7919 -1.6565
24977SOL    HW279779   4.179   6.348   3.659 -0.7727  1.6307  1.4950
24978SOL     OW79780   8.060   4.550   0.981 -0.0782 -0.1540  0.9352
24978SOL    HW179781   8.125   4.597   0.929  0.1528 -0.3224  1.0674
24978SOL    HW279782   8.112   4.503   1.047 -0.5062  2.0570  3.0012
24979SOL     OW79783   0.607   5.117   1.872 -0.0530  0.3028 -0.2021
24979SOL    HW179784   0.664   5.077   1.938  0.7967  1.5947 -0.1067
24979SOL    HW279785   0.531   5.059   1.867  0.2360 -0.2561  1.3162
24980SOL     OW79786   7.063   6.790   0.971  0.5899  0.0979 -0.5233
24980SOL    HW179787   7.039   6.754   1.057 -0.8907 -2.0604 -1.7319
24980SOL    HW279788   7.144   6.838   0.987  0.8119 -0.9318  1.9372
24981SOL     OW79789   0.128   5.122   3.069 -0.3834  0.0640 -0.6685
24981SOL    HW179790   0.120   5.029   3.090 -0.4242  0.5135  1.5816
24981SOL    HW279791   0.195   5.154   3.129 -1.9280  1.9021  0.1724
24982SOL     OW79792   6.578   4.034   0.327  0.2988 -0.5014  0.3075
24982SOL    HW179793   6.594   4.001   0.415  0.2930  1.4104  1.0584
24982SOL    HW279794   6.511   3.975   0.292  2.0703 -2.8596  0.5714
24983SOL     OW79795   3.250   5.555   2.306  0.3564  0.1895  0.0575
24983SOL    HW179796   3.285   5.480   2.258  1.6923 -0.4545  1.8785
24983SOL    HW279797   3.318   5.623   2.297 -0.2780  0.7514 -0.5594
24984SOL     OW79798   8.765   4.734   1.428  0.7967 -0.1623 -0.0275
24984SOL    HW179799   8.704   4.709   1.358 -0.4885  0.6862  0.7568
24984SOL    HW279800   8.850   4.698   1.400 -0.0938 -1.5804 -1.0326
24985SOL     OW79801   7.164   4.866   2.804  0.3893 -0.3072 -0.3514
24985SOL    HW179802   7.165   4.828   2.716 -0.1757  0.0822 -0.5256
24985SOL    HW279803   7.202   4.953   2.793  2.3609 -1.0398  0.1684
24986SOL     OW79804   8.722   5.010   2.333 -0.3950 -0.5314 -0.1358
24986SOL    HW179805   8.741   4.921   2.301 -1.0873  0.2874 -3.0997
24986SOL    HW279806   8.807   5.054   2.332  0.2958 -1.5786  3.1333
24987SOL     OW79807   7.175   5.046   4.623 -0.2260 -0.3047  0.3542
24987SOL    HW179808   7.245   5.013   4.678  0.6806  0.3124 -0.4028
24987SOL    HW279809   7.213   5.054   4.536 -1.4403 -0.6305 -0.2363
24988SOL     OW79810   9.516   3.730   2.216  0.3490 -0.2314 -0.4671
24988SOL    HW179811   9.568   3.650   2.228 -1.3736 -1.1996  1.1360
24988SOL    HW279812   9.543   3.787   2.288  1.4134  0.6146 -1.4802
24989SOL     OW79813   8.471   3.246   0.831 -0.0869 -1.3232  0.0242
24989SOL    HW179814   8.473   3.340   0.816 -1.6613 -1.1226  0.9627
24989SOL    HW279815   8.535   3.231   0.901  3.8625 -1.6830 -3.2626
24990SOL     OW79816   8.028   5.814   4.763 -0.2711  0.2154 -0.0117
24990SOL    HW179817   7.956   5.858   4.807 -1.6195 -0.6491 -1.2567
24990SOL    HW279818   8.084   5.885   4.730  0.0593  0.8787  1.8908
24991SOL     OW79819   6.325   6.808   3.972 -0.7143 -0.5308  0.2714
24991SOL    HW179820   6.371   6.891   3.985 -1.2638 -0.1667 -0.0567
24991SOL    HW279821   6.286   6.816   3.885  0.5666 -1.7909 -0.4430
24992SOL     OW79822   5.642   5.804   2.848  0.3352  0.0791 -0.4036
24992SOL    HW179823   5.714   5.868   2.851  0.6502 -0.2107 -1.2911
24992SOL    HW279824   5.686   5.719   2.851  0.2989 -0.1847 -3.4950
24993SOL     OW79825   4.778   5.933   2.353 -0.2318 -0.2555  0.0600
24993SOL    HW179826   4.756   5.889   2.271 -2.1164 -0.0668  0.4225
24993SOL    HW279827   4.753   6.025   2.337  1.4519  0.2454  0.1172
24994SOL     OW79828   6.284   4.333   1.134  0.0785  0.6616 -0.7000
24994SOL    HW179829   6.283   4.256   1.077 -0.4946 -0.1661  0.4003
24994SOL    HW279830   6.302   4.299   1.221 -3.5395  1.2918  0.4463
24995SOL     OW79831   8.275   6.945   1.769 -0.2005 -0.0353  0.0624
24995SOL    HW179832   8.289   6.907   1.682  2.2759 -1.3959  0.9629
24995SOL    HW279833   8.240   6.873   1.821 -2.3318  0.9534  0.0975
24996SOL     OW79834   9.140   3.833   2.654 -0.6074 -0.2708  0.3610
24996SOL    HW179835   9.149   3.905   2.591 -0.1713  0.6381  1.4243
24996SOL    HW279836   9.091   3.766   2.607  0.4953  0.0039 -1.2426
24997SOL     OW79837   6.977   5.576   2.247 -0.2400  0.7107 -0.8819
24997SOL    HW179838   7.038   5.520   2.199 -0.5748 -1.5718  1.1034
24997SOL    HW279839   7.030   5.650   2.277  1.5448 -0.9852  0.4231
24998SOL     OW79840   9.675   8.406   4.333 -0.0064  0.1728  0.4185
24998SOL    HW179841   9.662   8.320   4.292 -3.3099  1.4807 -1.6882
24998SOL    HW279842   9.725   8.456   4.269  1.7392 -0.0161  1.5603
24999SOL     OW79843   8.937   4.946   3.747 -0.2478 -0.4227  0.8106
24999SOL    HW179844   8.966   4.973   3.835  0.1813  0.1526  0.5026
24999SOL    HW279845   8.893   5.023   3.712  0.4885 -0.2975  0.1309
25000SOL     OW79846   7.350   5.347   3.363 -0.0452  0.0457 -0.2310
25000SOL    HW179847   7.332   5.418   3.425  0.2976 -0.4262  0.4231
25000SOL    HW279848   7.317   5.268   3.406  0.1448 -0.2805 -0.6727
25001SOL     OW79849   8.122   4.215   3.075 -0.2444 -1.1859  0.0147
25001SOL    HW179850   8.096   4.188   3.163  1.0090 -0.3195  0.6637
25001SOL    HW279851   8.169   4.139   3.040  1.1148 -0.7846  0.9098
25002SOL     OW79852   7.824   4.839   2.245  0.3567  0.1632  0.1931
25002SOL    HW179853   7.919   4.828   2.251  0.6759  2.2315 -0.1636
25002SOL    HW279854   7.806   4.837   2.151  0.0113 -0.4622  0.2719
25003SOL     OW79855   8.499   3.735   1.877  0.1677 -0.4200  0.2210
25003SOL    HW179856   8.539   3.653   1.906  1.0456 -0.5499 -1.2015
25003SOL    HW279857   8.522   3.798   1.945 -0.4530 -1.3133  1.2993
25004SOL     OW79858   6.989   4.690   0.998 -0.0290  0.7024 -0.1462
25004SOL    HW179859   7.041   4.665   1.073 -1.8144 -1.6217  0.4345
25004SOL    HW279860   7.000   4.619   0.935 -0.4036  1.4686 -1.1202
25005SOL     OW79861   8.001   4.846   2.571 -0.3087 -0.3449  0.3327
25005SOL    HW179862   8.096   4.842   2.578 -0.0147  2.8121 -0.2242
25005SOL    HW279863   7.971   4.864   2.660 -0.3207 -0.5871  0.3783
25006SOL     OW79864   6.415   4.947   4.358 -0.0031  0.2080  0.2646
25006SOL    HW179865   6.397   4.971   4.267  0.8463  0.1498  0.0697
25006SOL    HW279866   6.473   4.871   4.351 -2.0962 -1.5191  0.8693
25007SOL     OW79867   8.621   4.350   3.727  0.1059 -0.3462  0.7339
25007SOL    HW179868   8.710   4.380   3.747  0.1034 -0.3571  0.7611
25007SOL    HW279869   8.609   4.273   3.782  0.7858 -1.4807 -0.6284
25008SOL     OW79870   8.992   5.693   2.801  0.7066  0.0772  0.2433
25008SOL    HW179871   8.943   5.612   2.793  0.6084 -0.0240  1.5871
25008SOL    HW279872   9.083   5.665   2.814  0.9762  0.2396 -1.1518
25009SOL     OW79873   4.450   2.348   5.010 -0.3070 -0.2403  0.3137
25009SOL    HW179874   4.403   2.410   4.954  0.7189 -0.0727 -0.3856
25009SOL    HW279875   4.396   2.269   5.010  0.1116 -0.5804 -1.6802
25010SOL     OW79876   9.727   3.014   2.787 -0.3154  0.2190 -0.1560
25010SOL    HW179877   9.675   2.935   2.799 -0.5538  0.4405  0.2800
25010SOL    HW279878   9.663   3.083   2.767 -0.1460  0.3796 -0.1543
25011SOL     OW79879   7.738   5.878   4.272  0.3440  0.6241 -0.4859
25011SOL    HW179880   7.796   5.826   4.216 -0.9541 -0.7167 -0.6711
25011SOL    HW279881   7.775   5.871   4.359 -0.0154 -1.0088 -0.4352
25012SOL     OW79882   0.767   5.239   2.992 -0.2994  0.3258  0.7531
25012SOL    HW179883   0.708   5.313   2.978 -0.7341 -0.3719 -1.5235
25012SOL    HW279884   0.712   5.173   3.034 -1.6920 -0.8108 -2.5069
25013SOL     OW79885   8.394   2.854   3.593 -0.1227 -0.1004 -0.1702
25013SOL    HW179886   8.400   2.781   3.532  1.0720 -0.8082  0.7528
25013SOL    HW279887   8.314   2.837   3.643  0.8544 -1.5880  0.9851
25014SOL     OW79888   7.957   5.681   5.129 -0.2503  0.2780 -0.2586
25014SOL    HW179889   7.984   5.773   5.121  0.2269  0.3031  1.3389
25014SOL    HW279890   7.864   5.682   5.106 -0.6260  1.4416  1.1237
25015SOL     OW79891   9.296   1.968   1.959 -0.1077 -0.7075 -0.2722
25015SOL    HW179892   9.252   1.883   1.950 -0.7151 -0.2868 -1.5666
25015SOL    HW279893   9.238   2.020   2.014 -1.0880 -0.2996 -1.6195
25016SOL     OW79894   8.612   4.395   1.600  0.0121 -0.4870 -0.3761
25016SOL    HW179895   8.649   4.433   1.680  0.1428  1.4600 -1.3015
25016SOL    HW279896   8.686   4.352   1.557  0.0562 -1.0602  0.2511
25017SOL     OW79897   6.908   4.520   2.884  0.1867  0.2478 -0.0930
25017SOL    HW179898   6.955   4.480   2.957  2.2387  1.0471 -0.8960
25017SOL    HW279899   6.969   4.584   2.848 -0.9576  0.2642 -2.1912
25018SOL     OW79900   8.189   2.914   3.901 -0.4694 -0.1015  0.0254
25018SOL    HW179901   8.269   2.952   3.937 -1.2066 -1.0971  3.0420
25018SOL    HW279902   8.189   2.824   3.933 -2.8772 -0.0569  0.3537
25019SOL     OW79903   8.493   5.833   2.069  0.5343  0.2089  0.0531
25019SOL    HW179904   8.562   5.813   2.005  0.9826  0.4852  0.4409
25019SOL    HW279905   8.415   5.791   2.034  0.5910  0.9959 -1.0707
25020SOL     OW79906   7.112   3.847   3.669 -0.5189  0.4715  0.3826
25020SOL    HW179907   7.129   3.754   3.685  1.1167  0.5584 -0.5918
25020SOL    HW279908   7.174   3.892   3.726 -2.1990  1.0221  1.8230
25021SOL     OW79909   7.664   1.507   3.109  0.3035  0.4998  0.0574
25021SOL    HW179910   7.676   1.547   3.195 -1.8732  0.6541  0.3298
25021SOL    HW279911   7.617   1.572   3.058  0.3870 -0.1115 -0.8244
25022SOL     OW79912   7.904   5.128   3.261  0.0691 -0.2160 -0.6487
25022SOL    HW179913   7.875   5.189   3.194  0.0613  1.2800  0.6541
25022SOL    HW279914   7.980   5.170   3.301  0.8265 -1.6365 -0.5087
25023SOL     OW79915   6.567   4.574   4.678 -0.3118  0.3756 -0.1248
25023SOL    HW179916   6.587   4.490   4.721 -2.6213  0.5512  1.4484
25023SOL    HW279917   6.544   4.550   4.588  0.0553 -0.5339  0.0101
25024SOL     OW79918   0.272   3.520   3.286 -0.0580 -0.3555 -0.1501
25024SOL    HW179919   0.219   3.446   3.316 -0.4292  0.2752  0.8061
25024SOL    HW279920   0.208   3.589   3.265  0.3099 -0.1008 -0.4507
25025SOL     OW79921   6.765   5.927   3.701  0.4416  0.3881 -0.3448
25025SOL    HW179922   6.808   5.924   3.787 -0.6407  0.0636  0.1987
25025SOL    HW279923   6.834   5.904   3.639  1.0091 -0.3026  0.5233
25026SOL     OW79924   7.064   3.349   4.916 -0.3565  0.8058  0.6610
25026SOL    HW179925   7.093   3.435   4.886  0.8369 -0.2471 -1.4615
25026SOL    HW279926   7.145   3.302   4.937 -0.9558 -0.0147  1.2264
25027SOL     OW79927   0.448   4.168   5.719 -0.4859  0.2455  0.3443
25027SOL    HW179928   0.371   4.154   5.665  0.0099 -3.7002  0.3501
25027SOL    HW279929   0.413   4.184   5.807 -1.3167  0.1584  0.0330
25028SOL     OW79930   0.178   4.168   2.233  0.2376 -0.0248  0.1222
25028SOL    HW179931   0.162   4.158   2.326 -0.4033 -1.2862 -0.0964
25028SOL    HW279932   0.267   4.136   2.220 -0.2497 -1.4331  0.0867
25029SOL     OW79933   8.178   4.218   3.877 -0.2997 -0.2465 -0.0975
25029SOL    HW179934   8.131   4.189   3.955  2.1095 -1.1084  1.1301
25029SOL    HW279935   8.184   4.139   3.822  0.9655 -0.5850  0.4720
25030SOL     OW79936   6.009   5.432   3.754  0.1660 -0.3202 -0.1922
25030SOL    HW179937   6.079   5.458   3.695  0.5740 -1.4743 -0.2404
25030SOL    HW279938   5.931   5.430   3.699 -0.1964  2.1693  0.1196
25031SOL     OW79939   7.663   4.753   2.803  0.5194 -0.7465 -0.2940
25031SOL    HW179940   7.750   4.792   2.813  0.0452  0.5825 -1.0359
25031SOL    HW279941   7.676   4.677   2.746  1.3746 -1.3152  0.6352
25032SOL     OW79942   6.133   3.056   2.941  0.6700 -0.1510 -0.3151
25032SOL    HW179943   6.041   3.065   2.966  0.6559 -0.0743 -0.3954
25032SOL    HW279944   6.169   3.144   2.948  0.4686  0.0282 -1.3507
25033SOL     OW79945   6.037   2.666   5.044  0.7817  0.2233 -0.9261
25033SOL    HW179946   6.113   2.632   5.092  0.6942  0.0284 -0.9238
25033SOL    HW279947   6.075   2.716   4.972  0.9149 -0.1616 -1.1308
25034SOL     OW79948   6.219   2.416   4.117 -0.2789 -0.0990  0.4493
25034SOL    HW179949   6.139   2.415   4.064 -0.5019  0.2706  0.7744
25034SOL    HW279950   6.201   2.356   4.189 -0.6195  0.7019  1.0351
25035SOL     OW79951   0.488   5.421   1.231  0.5282  0.8063  0.0034
25035SOL    HW179952   0.531   5.379   1.305  2.1588  2.9460  0.3717
25035SOL    HW279953   0.428   5.484   1.271 -1.3302 -0.5175 -0.5383
25036SOL     OW79954   6.812   7.631   2.117  0.1093 -0.3323  0.1600
25036SOL    HW179955   6.754   7.670   2.182 -1.2960 -0.3579 -1.0279
25036SOL    HW279956   6.754   7.592   2.052  1.3886  1.0798 -1.9752
25037SOL     OW79957   8.628   6.505   1.954  0.3717 -0.1766 -0.3629
25037SOL    HW179958   8.539   6.539   1.968  0.5334  0.5479 -1.0049
25037SOL    HW279959   8.655   6.544   1.871  1.3012 -0.3914 -0.1668
25038SOL     OW79960   9.319   4.079   3.772  0.1080 -0.3246  0.2358
25038SOL    HW179961   9.348   4.053   3.685  0.3172 -0.9516  0.4837
25038SOL    HW279962   9.398   4.075   3.826  0.1618  0.9307  0.2707
25039SOL     OW79963   7.694   4.928   3.326  0.3971 -0.8594 -0.1768
25039SOL    HW179964   7.620   4.970   3.283  0.1271  0.4478  1.4327
25039SOL    HW279965   7.770   4.979   3.298  0.3316 -0.5477  0.2007
25040SOL     OW79966   6.997   3.628   2.087  0.0304 -0.0764 -0.3325
25040SOL    HW179967   7.048   3.587   2.018 -0.3704 -1.7488  0.3115
25040SOL    HW279968   6.906   3.614   2.062 -0.1305 -1.1633  0.7420
25041SOL     OW79969   6.611   5.917   2.166  0.0223 -0.3437  0.1531
25041SOL    HW179970   6.692   5.966   2.149 -0.1866  0.9358  2.4883
25041SOL    HW279971   6.642   5.830   2.192  0.8052  0.5282  2.3741
25042SOL     OW79972   7.867   4.934   4.400  0.2232  0.7565 -0.7668
25042SOL    HW179973   7.894   4.915   4.310 -0.7302 -1.2796 -0.6623
25042SOL    HW279974   7.937   4.991   4.434  1.5323  0.0950 -2.2145
25043SOL     OW79975   6.698   6.165   3.529 -0.3034  0.1550 -0.3011
25043SOL    HW179976   6.718   6.084   3.483  1.0302 -0.6120  1.5249
25043SOL    HW279977   6.776   6.183   3.581 -2.2467  0.0434  2.9015
25044SOL     OW79978   6.004   4.949   4.034  0.0057  0.2334 -0.1883
25044SOL    HW179979   6.033   4.979   4.120  1.1432 -0.7935 -0.1825
25044SOL    HW279980   5.937   5.012   4.007 -0.5042  0.4570  1.5192
25045SOL     OW79981   8.786   5.979   5.906  1.0141  0.1375 -0.2514
25045SOL    HW179982   8.846   5.997   5.834 -0.6282 -0.4211 -1.8202
25045SOL    HW279983   8.720   6.048   5.900  0.0075 -0.8027 -0.2708
25046SOL     OW79984   0.307   3.468   3.022 -0.6600 -0.1106  0.0721
25046SOL    HW179985   0.284   3.466   3.115  1.1525  2.6072  0.6993
25046SOL    HW279986   0.343   3.556   3.008  1.0136 -1.1044 -2.7266
25047SOL     OW79987   7.967   2.840   4.658  0.7464  0.6575 -0.9059
25047SOL    HW179988   8.033   2.884   4.713 -0.7529  1.4783  0.2966
25047SOL    HW279989   7.892   2.827   4.715 -0.4252  0.3998 -2.4349
25048SOL     OW79990   8.203   5.409   3.034  0.1710 -0.0193  0.5219
25048SOL    HW179991   8.173   5.500   3.039  0.4378  0.1884 -1.1192
25048SOL    HW279992   8.150   5.371   2.964 -0.2427 -1.2702  1.4818
25049SOL     OW79993   9.038   5.402   3.226 -0.5658  0.2547 -0.2160
25049SOL    HW179994   9.088   5.407   3.144 -1.5782  1.5169 -0.8046
25049SOL    HW279995   9.043   5.310   3.252 -0.5464 -0.2615 -1.9226
25050SOL     OW79996   0.714   3.354   0.450 -0.3787  0.7368  0.1086
25050SOL    HW179997   0.725   3.395   0.364  1.0701 -0.0522 -0.1118
25050SOL    HW279998   0.674   3.422   0.504 -1.8771  1.0569 -1.3187
25051SOL     OW79999   6.973   6.255   5.307 -0.5197 -0.0139 -0.1414
25051SOL    HW180000   6.946   6.280   5.218  3.1054  1.0099 -1.1342
25051SOL    HW280001   7.001   6.164   5.299 -1.2516 -0.2798  0.2556
25052SOL     OW80002   6.483   6.129   3.003  0.2090 -0.0175 -0.2561
25052SOL    HW180003   6.462   6.044   3.042  0.6493 -0.4478 -0.9210
25052SOL    HW280004   6.495   6.110   2.910 -2.4163  1.2576 -0.9264
25053SOL     OW80005   7.230   6.250   2.083  0.8068  0.0550 -0.0468
25053SOL    HW180006   7.325   6.245   2.086  0.8640  1.1442  2.1439
25053SOL    HW280007   7.201   6.163   2.113  1.1599  0.2649  0.9480
25054SOL     OW80008   8.175   4.156   3.344 -0.0967  0.6060  0.3840
25054SOL    HW180009   8.165   4.068   3.308  2.7099  0.9852 -1.6765
25054SOL    HW280010   8.171   4.144   3.439  0.4752 -1.7820  0.1623
25055SOL     OW80011   6.230   4.831   4.734 -0.7396  0.0854 -0.4798
25055SOL    HW180012   6.227   4.752   4.680 -1.8723  1.0724 -1.9313
25055SOL    HW280013   6.152   4.826   4.788  0.6350 -1.1417  1.5288
25056SOL     OW80014   8.124   3.439   1.874  0.3685  0.2473 -0.0212
25056SOL    HW180015   8.169   3.524   1.869  2.0252 -0.6374 -1.2527
25056SOL    HW280016   8.063   3.439   1.801 -0.2027  0.6702  0.4495
25057SOL     OW80017   6.952   4.217   4.022 -0.2410  0.0797  0.5653
25057SOL    HW180018   6.981   4.138   3.976 -0.2056 -0.5093  1.5712
25057SOL    HW280019   7.008   4.221   4.099  0.4644  1.6746  0.0203
25058SOL     OW80020   7.408   7.202   1.830  0.1557  0.0109  0.2793
25058SOL    HW180021   7.345   7.270   1.854 -0.2074 -0.7641  1.5754
25058SOL    HW280022   7.482   7.251   1.794 -0.6844  1.0022 -0.1602
25059SOL     OW80023   6.081   6.244   1.822  0.7369 -0.5496 -0.6390
25059SOL    HW180024   6.086   6.190   1.743  1.3033 -1.0472 -0.2652
25059SOL    HW280025   5.987   6.259   1.835  0.6771  0.6344 -2.1390
25060SOL     OW80026   8.199   2.983   2.201  0.4835 -0.3906  0.6041
25060SOL    HW180027   8.195   2.963   2.294  2.7939 -1.8933  0.4779
25060SOL    HW280028   8.237   3.071   2.197  0.0376 -0.1741  1.0868
25061SOL     OW80029   5.916   4.490   1.948 -0.2876  0.0468  0.7731
25061SOL    HW180030   5.931   4.548   2.024  0.1240  0.4594  0.3872
25061SOL    HW280031   6.004   4.474   1.913 -0.2779 -1.6474  1.4613
25062SOL     OW80032   8.356   4.131   9.669 -0.0805 -0.5380  0.5331
25062SOL    HW180033   8.383   4.221   9.652 -3.1049  0.7065  1.5517
25062SOL    HW280034   8.425   4.095   9.725  0.9244  1.3328  0.5741
25063SOL     OW80035   6.411   4.628   5.202 -0.3519  0.6317  0.1321
25063SOL    HW180036   6.419   4.628   5.107 -4.0710  0.3418 -0.3088
25063SOL    HW280037   6.415   4.720   5.227  2.7956  0.6351  0.1016
25064SOL     OW80038   0.447   5.199   9.679 -0.5302  0.4820  0.5199
25064SOL    HW180039   0.394   5.224   9.754  0.5643 -3.2112  2.7762
25064SOL    HW280040   0.385   5.166   9.615 -1.2352 -0.8742  1.8533
25065SOL     OW80041   6.544   5.364   4.405  0.0761  0.0200 -0.3310
25065SOL    HW180042   6.589   5.444   4.378 -2.1086  1.5220  0.1334
25065SOL    HW280043   6.487   5.342   4.331 -2.5728  1.5459  1.0762
25066SOL     OW80044   8.208   5.041   4.353 -0.2296 -0.3433 -0.1746
25066SOL    HW180045   8.167   5.005   4.274 -0.4663  1.1087 -0.7552
25066SOL    HW280046   8.283   4.984   4.369  0.6050  0.0804 -2.2492
25067SOL     OW80047   5.823   7.126   4.915 -0.0949  0.4543  0.6272
25067SOL    HW180048   5.767   7.143   4.990 -0.6729  0.0458  0.2990
25067SOL    HW280049   5.838   7.032   4.917 -1.2002  0.2203 -0.4931
25068SOL     OW80050   8.867   4.233   1.976 -0.7515  0.0803 -0.1611
25068SOL    HW180051   8.774   4.215   1.988 -0.8885  0.7572 -0.1509
25068SOL    HW280052   8.881   4.223   1.882 -1.1706  1.4069 -0.3921
25069SOL     OW80053   8.698   4.132   1.005 -0.2527  0.0643 -0.0277
25069SOL    HW180054   8.732   4.069   0.941 -0.3211  1.1097 -1.1456
25069SOL    HW280055   8.773   4.151   1.061  0.8770  1.6505 -1.9078
25070SOL     OW80056   8.313   6.335   1.715 -0.5061 -0.0732  0.1028
25070SOL    HW180057   8.286   6.423   1.742  0.3392 -0.0385  0.8692
25070SOL    HW280058   8.340   6.292   1.796  3.0009  0.3536 -0.6371
25071SOL     OW80059   8.334   3.670   2.961 -0.2303 -0.6087 -0.1133
25071SOL    HW180060   8.291   3.744   2.920 -0.2858 -1.4221 -1.6010
25071SOL    HW280061   8.333   3.690   3.055 -0.1457  1.2969 -0.4739
25072SOL     OW80062   9.712   4.472   2.368 -0.2795 -0.3368  0.3086
25072SOL    HW180063   9.641   4.507   2.314  0.9592 -0.2982 -1.3979
25072SOL    HW280064   9.783   4.535   2.356  0.5911 -1.2460  0.6044
25073SOL     OW80065   5.972   4.423   2.519 -0.2255  0.2226 -0.2590
25073SOL    HW180066   6.025   4.485   2.468 -0.3008  1.4692  1.1412
25073SOL    HW280067   6.032   4.350   2.538 -0.2139 -0.3173 -2.1381
25074SOL     OW80068   9.377   4.482   3.448 -0.0503  0.3705 -0.6466
25074SOL    HW180069   9.331   4.566   3.438  0.2745  0.6373  0.0789
25074SOL    HW280070   9.464   4.498   3.411 -0.0895  0.2582 -0.7902
25075SOL     OW80071   8.907   5.434   2.707 -0.2277 -0.1253  0.2176
25075SOL    HW180072   8.867   5.361   2.661  1.4586  0.1939 -1.9546
25075SOL    HW280073   8.895   5.509   2.648 -2.7051  1.6852  2.7650
25076SOL     OW80074   6.194   4.583   3.817  0.1091 -0.8788  0.1151
25076SOL    HW180075   6.165   4.671   3.842  0.6709 -0.9188  0.9929
25076SOL    HW280076   6.234   4.548   3.897  0.3535 -1.7369 -0.3674
25077SOL     OW80077   8.796   5.928   2.670  0.2142 -0.3268  0.2361
25077SOL    HW180078   8.828   5.839   2.651 -1.6941 -0.6284 -2.0960
25077SOL    HW280079   8.818   5.978   2.591 -0.8450  0.6320  0.5275
25078SOL     OW80080   5.884   3.062   2.073 -0.2073 -0.1304  0.4079
25078SOL    HW180081   5.898   3.146   2.031 -1.3429 -0.4842 -0.7459
25078SOL    HW280082   5.795   3.066   2.108  0.1835 -0.3969  1.5005
25079SOL     OW80083   9.375   5.922   2.849 -0.0503  0.2513  0.2166
25079SOL    HW180084   9.379   5.905   2.755  0.7713  2.5840 -0.2468
25079SOL    HW280085   9.415   5.845   2.890  0.6325 -0.3055 -1.4236
25080SOL     OW80086   6.705   4.458   2.186 -0.8139  0.2522  0.0589
25080SOL    HW180087   6.742   4.374   2.160 -0.7752  0.4859 -0.6910
25080SOL    HW280088   6.764   4.492   2.253  0.4116  0.6679 -1.1821
25081SOL     OW80089   0.695   2.678   3.439 -0.1955  0.3624 -0.1278
25081SOL    HW180090   0.626   2.619   3.409 -0.6862  1.1284 -0.5487
25081SOL    HW280091   0.670   2.763   3.403  0.8194  0.7042 -0.0373
25082SOL     OW80092   6.027   4.472   0.381 -0.3592 -0.4459 -0.6442
25082SOL    HW180093   5.933   4.471   0.362 -0.5736 -0.2170  0.3893
25082SOL    HW280094   6.062   4.540   0.324 -0.6888 -1.0436 -1.5884
25083SOL     OW80095   8.675   4.316   2.837  0.4793 -0.0587 -0.3476
25083SOL    HW180096   8.613   4.385   2.860  0.9330  0.0643  0.5273
25083SOL    HW280097   8.651   4.242   2.893  1.3252  0.1016  0.2343
25084SOL     OW80098   8.012   2.182   0.020  0.0893  0.8992  0.3241
25084SOL    HW180099   8.034   2.256  -0.037 -1.2844  0.9271 -0.2102
25084SOL    HW280100   7.959   2.221   0.090 -1.6318  0.2912 -0.5909
25085SOL     OW80101   7.489   4.481   1.878  0.3757 -0.0203 -0.2792
25085SOL    HW180102   7.570   4.431   1.870  0.1503 -0.9403  2.1537
25085SOL    HW280103   7.436   4.453   1.804  1.5325 -0.8564 -0.8321
25086SOL     OW80104   8.447   5.909   3.351 -0.0432 -0.0269  0.0152
25086SOL    HW180105   8.496   5.827   3.348  1.8660  1.0656 -1.0479
25086SOL    HW280106   8.423   5.927   3.260 -1.1492  0.2147  0.3376
25087SOL     OW80107   6.301   4.055   2.772  0.3090  0.7511  0.0057
25087SOL    HW180108   6.247   3.976   2.774  0.5340  0.5386 -1.2528
25087SOL    HW280109   6.391   4.023   2.781  0.4010  0.8588 -0.5097
25088SOL     OW80110   7.269   3.112   3.487 -0.8495  0.1492 -1.0761
25088SOL    HW180111   7.292   3.061   3.564  0.2357  0.6034 -1.0819
25088SOL    HW280112   7.288   3.053   3.413  0.3453  0.5045 -1.0800
25089SOL     OW80113   9.638   4.660   3.056  0.3723  0.0806  0.3006
25089SOL    HW180114   9.638   4.590   2.991  0.6319 -0.3346  0.7429
25089SOL    HW280115   9.607   4.737   3.008  0.2913 -0.2839 -0.2422
25090SOL     OW80116   8.099   2.977   2.911  0.0860 -0.7059 -0.1020
25090SOL    HW180117   8.149   3.047   2.869  0.3400  0.3982  1.9214
25090SOL    HW280118   8.027   3.022   2.955 -0.0170 -1.7674  0.8518
25091SOL     OW80119   7.263   5.365   0.323 -0.2157 -0.2872  0.3866
25091SOL    HW180120   7.283   5.286   0.271  0.0114 -1.1630  1.7458
25091SOL    HW280121   7.226   5.331   0.405 -1.4442  1.0901  0.4385
25092SOL     OW80122   7.406   3.753   2.192 -0.3366 -0.1918  0.3896
25092SOL    HW180123   7.495   3.729   2.219 -0.7973 -2.2064  0.3280
25092SOL    HW280124   7.418   3.825   2.131  1.0854  1.0409  1.9955
25093SOL     OW80125   8.529   4.476   3.430  0.0168  0.1806  0.0449
25093SOL    HW180126   8.451   4.433   3.394 -0.2166  1.7307 -1.4250
25093SOL    HW280127   8.602   4.432   3.387 -0.0072 -1.1678  1.3055
25094SOL     OW80128   7.247   7.300   5.729 -0.1117  0.2442 -0.2907
25094SOL    HW180129   7.159   7.336   5.740  0.3345  1.5017 -0.5957
25094SOL    HW280130   7.297   7.335   5.803 -0.0495 -1.1399  0.3498
25095SOL     OW80131   6.407   3.351   2.174  0.1620  0.0691 -0.2327
25095SOL    HW180132   6.350   3.278   2.197 -1.0156  0.9315 -0.3130
25095SOL    HW280133   6.426   3.338   2.081 -2.0262  1.1261 -0.8823
25096SOL     OW80134   7.665   4.309   4.750  0.3544 -0.1264  0.5156
25096SOL    HW180135   7.670   4.275   4.660  0.3331 -1.0469  0.8496
25096SOL    HW280136   7.756   4.317   4.777  0.3860  0.9994  0.1133
25097SOL     OW80137   8.312   4.621   5.081 -0.0542 -0.5890  0.1543
25097SOL    HW180138   8.405   4.644   5.087 -0.4231  1.2290 -0.4549
25097SOL    HW280139   8.292   4.580   5.164  0.8479  0.7973  1.0982
25098SOL     OW80140   2.954   6.661   5.561  0.7271 -0.1473 -0.0992
25098SOL    HW180141   2.969   6.727   5.628  1.9415  0.2322 -0.7235
25098SOL    HW280142   2.911   6.589   5.608 -0.3575  0.9435  0.6450
25099SOL     OW80143   8.712   4.295   6.834  0.6199 -0.1456  0.9084
25099SOL    HW180144   8.794   4.299   6.785 -1.5273 -1.8318 -3.2950
25099SOL    HW280145   8.726   4.225   6.898  2.5065 -0.2328  0.4603
25100SOL     OW80146   6.416   4.628   5.565  0.3932  0.1499  0.1819
25100SOL    HW180147   6.390   4.559   5.503  2.3160 -1.0298  0.5661
25100SOL    HW280148   6.496   4.665   5.527 -0.5472  2.1590  0.0407
25101SOL     OW80149   6.758   4.864   5.223 -0.0149 -0.1660 -0.4356
25101SOL    HW180150   6.806   4.882   5.304  0.2503 -0.4385 -0.5325
25101SOL    HW280151   6.825   4.862   5.155 -0.1322 -0.7656 -0.5399
25102SOL     OW80152   7.352   3.780   6.780  0.1454 -0.4134 -0.0494
25102SOL    HW180153   7.350   3.866   6.821 -0.5448 -0.3479 -0.2059
25102SOL    HW280154   7.364   3.798   6.686  1.5698 -0.5560  0.0899
25103SOL     OW80155   8.664   6.139   4.129  0.0457 -0.6887  0.3360
25103SOL    HW180156   8.601   6.211   4.134  0.0234 -0.7046  0.2882
25103SOL    HW280157   8.719   6.162   4.053  0.4758 -0.3680  0.7367
25104SOL     OW80158   5.968   5.969   6.752 -0.0125  0.2764  0.0782
25104SOL    HW180159   5.920   5.918   6.818  0.2803 -1.9224 -1.3195
25104SOL    HW280160   5.933   5.939   6.668  2.1858  0.2620 -0.9106
25105SOL     OW80161   0.377   1.980   4.311 -0.6145 -0.1232  0.1433
25105SOL    HW180162   0.383   1.993   4.406 -0.4940  0.0922  0.1066
25105SOL    HW280163   0.283   1.987   4.292 -0.6721 -0.4753  0.2888
25106SOL     OW80164   4.878   4.555   4.057 -0.4033 -0.5107  0.1605
25106SOL    HW180165   4.824   4.621   4.013  0.3443  0.0523  0.0786
25106SOL    HW280166   4.964   4.596   4.065 -0.0449 -1.3195  0.4897
25107SOL     OW80167   8.538   5.403   6.179 -0.4922 -0.1486  0.1863
25107SOL    HW180168   8.539   5.310   6.202 -0.3431 -0.4727 -1.0296
25107SOL    HW280169   8.458   5.437   6.220 -0.1923 -0.6488  1.2104
25108SOL     OW80170   7.381   5.609   5.769 -0.0325 -0.2523  0.7378
25108SOL    HW180171   7.421   5.691   5.738  2.4701 -1.4227  0.6638
25108SOL    HW280172   7.418   5.595   5.856 -0.5186 -1.2669  0.7915
25109SOL     OW80173   5.542   5.845   2.272  0.1316  0.0009  0.0936
25109SOL    HW180174   5.589   5.814   2.194 -0.5474 -2.3902  0.5638
25109SOL    HW280175   5.452   5.858   2.241 -0.3245 -1.7253  0.5982
25110SOL     OW80176   7.298   6.323   4.923  0.0063  0.3965 -0.0229
25110SOL    HW180177   7.202   6.317   4.928 -0.0462  0.4604 -0.9295
25110SOL    HW280178   7.326   6.324   5.015 -0.7686 -0.9616  0.2601
25111SOL     OW80179   8.622   4.090   3.028  0.5719  0.4549  0.3480
25111SOL    HW180180   8.536   4.102   3.069 -0.4795  1.7922 -2.0551
25111SOL    HW280181   8.679   4.063   3.100 -1.5773  0.6685  2.2510
25112SOL     OW80182   6.320   6.489   1.767 -0.2168  0.2045 -0.3511
25112SOL    HW180183   6.391   6.552   1.774 -0.4030  0.5058 -1.0548
25112SOL    HW280184   6.346   6.431   1.695 -0.2781 -0.2219 -0.0353
25113SOL     OW80185   2.182   6.855   3.353 -0.0961 -0.2729  0.6766
25113SOL    HW180186   2.136   6.786   3.402 -1.0214  0.8252  1.4283
25113SOL    HW280187   2.208   6.918   3.420  0.0614  0.4761 -0.0698
25114SOL     OW80188   7.031   5.583   2.742  0.3996  0.8758  0.2603
25114SOL    HW180189   6.945   5.555   2.712  0.1752 -0.2107  1.8399
25114SOL    HW280190   7.056   5.520   2.809  1.6396  2.2002  1.1142
25115SOL     OW80191   0.799   3.701   4.676  0.6558  0.0754  0.2376
25115SOL    HW180192   0.813   3.642   4.602 -0.0099  1.6285 -1.2145
25115SOL    HW280193   0.887   3.727   4.703  0.9799 -1.9449  1.2640
25116SOL     OW80194   9.224   3.036   5.255  0.1739 -0.5632 -0.3174
25116SOL    HW180195   9.298   3.051   5.314  0.6668  0.0943 -1.0860
25116SOL    HW280196   9.161   2.987   5.308  0.9388 -0.6882  0.5068
25117SOL     OW80197   6.286   2.811   5.378 -0.4254  0.6238  0.0896
25117SOL    HW180198   6.306   2.827   5.470 -0.8072  0.9223  0.1202
25117SOL    HW280199   6.361   2.848   5.331  0.6305 -1.0516  0.3471
25118SOL     OW80200   8.409   4.350   5.718 -0.0610 -0.4633  0.0928
25118SOL    HW180201   8.412   4.273   5.662  0.5413  0.4697 -1.2238
25118SOL    HW280202   8.316   4.365   5.736 -0.3191 -0.4142 -1.2157
25119SOL     OW80203   8.481   5.429   5.908  0.2712  0.3887  0.4007
25119SOL    HW180204   8.522   5.347   5.880 -0.6917 -0.2970  0.9232
25119SOL    HW280205   8.504   5.437   6.001  1.2061  1.2475  0.1082
25120SOL     OW80206   7.184   3.581   4.795 -0.4515 -0.3113  0.4095
25120SOL    HW180207   7.217   3.648   4.736  0.2674  0.5412  1.7361
25120SOL    HW280208   7.202   3.614   4.882  1.0353 -2.7700  1.1300
25121SOL     OW80209   7.777   3.149   3.375  0.3599 -0.2920  0.0188
25121SOL    HW180210   7.703   3.209   3.362  1.1979  0.7307 -0.1232
25121SOL    HW280211   7.801   3.160   3.467  2.8125  2.3832 -0.7970
25122SOL     OW80212   8.623   6.778   5.940  0.1189  0.3345  0.4388
25122SOL    HW180213   8.604   6.747   6.029  2.0040 -0.0258  0.7670
25122SOL    HW280214   8.718   6.767   5.931  0.1637  1.6255 -1.1479
25123SOL     OW80215   6.497   8.179   2.796 -0.2187 -0.1588 -0.0011
25123SOL    HW180216   6.492   8.108   2.859 -0.6670 -1.0091 -0.9646
25123SOL    HW280217   6.516   8.257   2.848  0.2222 -0.9732  1.0771
25124SOL     OW80218   1.243   4.737   4.881 -0.0129  0.0495 -0.3148
25124SOL    HW180219   1.175   4.803   4.866  0.0977  0.2321 -0.0189
25124SOL    HW280220   1.310   4.783   4.933 -1.0080 -0.9257  1.9448
25125SOL     OW80221   0.008   3.343   3.034  0.0225  0.0393 -0.1432
25125SOL    HW180222   0.029   3.252   3.014  0.2705  0.0155  0.2026
25125SOL    HW280223   0.045   3.393   2.962  2.5924  0.1320  1.1148
25126SOL     OW80224   8.366   4.610   5.540  0.8109 -0.1138  0.2563
25126SOL    HW180225   8.364   4.516   5.555 -0.0453 -0.1178  0.1686
25126SOL    HW280226   8.275   4.634   5.526  0.8562  0.9194  1.4966
25127SOL     OW80227   6.946   5.863   4.258 -0.0464  0.0242 -0.4458
25127SOL    HW180228   7.036   5.883   4.284 -0.3374  0.8314 -0.0370
25127SOL    HW280229   6.946   5.768   4.241  0.1880 -0.5727  2.4292
25128SOL     OW80230   9.161   3.803   6.290 -0.1237 -0.6601 -0.5344
25128SOL    HW180231   9.247   3.834   6.262  0.3261 -1.0214  0.3911
25128SOL    HW280232   9.168   3.707   6.285  0.2652 -0.7871  1.5232
25129SOL     OW80233   6.991   3.047   4.089  0.5639  0.6651  0.4027
25129SOL    HW180234   6.990   2.983   4.018 -1.1735 -0.2621  1.1806
25129SOL    HW280235   7.075   3.034   4.132  1.0083  0.2036 -0.5774
25130SOL     OW80236   7.577   2.448   3.206 -0.0254 -0.5320 -0.6743
25130SOL    HW180237   7.655   2.483   3.162 -0.6952 -0.6020 -1.9748
25130SOL    HW280238   7.535   2.393   3.139 -0.1865 -2.0328  0.6043
25131SOL     OW80239   9.626   4.837   4.512 -0.3576  0.4419 -0.4133
25131SOL    HW180240   9.544   4.791   4.530  0.5023 -0.3259  1.8617
25131SOL    HW280241   9.667   4.785   4.443 -0.8302 -0.4201 -0.0612
25132SOL     OW80242   0.357   2.838   6.047 -0.3502  0.2952  0.2102
25132SOL    HW180243   0.452   2.832   6.057 -0.4633  1.0578  2.0743
25132SOL    HW280244   0.341   2.928   6.021 -0.6738  0.7550  1.9107
25133SOL     OW80245   2.399   4.290   5.261 -0.2160  0.4989  0.5542
25133SOL    HW180246   2.313   4.287   5.219  0.1858 -1.6006 -0.2455
25133SOL    HW280247   2.389   4.238   5.341  0.5554 -0.6805 -0.0956
25134SOL     OW80248   0.353   3.873   4.655  0.3477 -0.7016  0.7342
25134SOL    HW180249   0.443   3.904   4.661  0.3226 -0.6133  0.6586
25134SOL    HW280250   0.360   3.783   4.622  0.2958  0.2357 -2.1785
25135SOL     OW80251   7.554   3.119   2.580 -0.1592  0.2293 -0.0161
25135SOL    HW180252   7.631   3.171   2.603  0.2783 -0.4666  0.0993
25135SOL    HW280253   7.494   3.182   2.540 -0.7316  1.3992  2.4695
25136SOL     OW80254   9.371   4.914   6.718  0.2541  0.1748 -0.1365
25136SOL    HW180255   9.440   4.849   6.711  0.1655 -0.1598  1.5625
25136SOL    HW280256   9.416   4.996   6.737  0.2777  0.2905 -0.6931
25137SOL     OW80257   6.787   7.138   5.083  0.3411  0.3457  0.3546
25137SOL    HW180258   6.815   7.062   5.032  0.0778  0.0589  0.6344
25137SOL    HW280259   6.868   7.177   5.115  0.4652  0.0883  0.3504
25138SOL     OW80260   8.437   5.657   2.976  0.2546  0.5295 -0.2660
25138SOL    HW180261   8.381   5.633   2.902  0.9991  0.7562 -0.9231
25138SOL    HW280262   8.403   5.741   3.006 -0.4602  0.1239  0.0783
25139SOL     OW80263   9.434   2.995   6.488 -0.6587 -0.2388 -0.0750
25139SOL    HW180264   9.463   2.933   6.421 -1.0617  0.3855 -0.8387
25139SOL    HW280265   9.513   3.013   6.539 -0.1377 -0.0367 -0.9411
25140SOL     OW80266   7.230   4.106   0.701  0.6982 -0.3049 -0.3025
25140SOL    HW180267   7.260   4.190   0.664 -0.4755  0.2502 -0.0431
25140SOL    HW280268   7.145   4.127   0.741  0.5959 -1.5333  0.1451
25141SOL     OW80269   6.145   3.585   5.650 -0.1937 -0.5525 -0.1186
25141SOL    HW180270   6.089   3.539   5.588 -0.5002 -0.4882  0.1047
25141SOL    HW280271   6.231   3.588   5.609 -0.0458 -1.7619  0.0673
25142SOL     OW80272   7.472   6.098   5.095 -0.8332  0.1245 -0.2746
25142SOL    HW180273   7.560   6.134   5.107 -1.2882  0.8836  0.9572
25142SOL    HW280274   7.439   6.141   5.016  0.9833 -2.4411 -2.6137
25143SOL     OW80275   5.368   4.292   3.428 -0.5551  0.3610  0.1586
25143SOL    HW180276   5.413   4.327   3.351 -0.1982  0.4682  0.4141
25143SOL    HW280277   5.427   4.224   3.461 -0.3270  0.8623  0.8024
25144SOL     OW80278   9.059   4.362   4.333 -0.1450  0.1005 -0.3194
25144SOL    HW180279   8.989   4.308   4.370  0.4368 -0.9463 -0.7254
25144SOL    HW280280   9.120   4.300   4.293  0.4989  1.0568 -0.8797
25145SOL     OW80281   9.160   5.018   3.144 -0.1341  0.1350  0.6807
25145SOL    HW180282   9.124   5.053   3.226 -1.2237 -0.7150  0.5876
25145SOL    HW280283   9.085   4.981   3.098  0.6226 -0.2987 -0.2513
25146SOL     OW80284   9.175   3.400   2.700  0.3908 -0.3363  0.1052
25146SOL    HW180285   9.209   3.368   2.616  0.0562 -2.9254  0.8405
25146SOL    HW280286   9.115   3.470   2.677  0.5302 -0.7965 -1.8128
25147SOL     OW80287   8.983   6.936   3.542  0.4903 -0.2072  0.1145
25147SOL    HW180288   8.932   6.895   3.612 -1.8672  0.2495 -1.2344
25147SOL    HW280289   9.033   7.004   3.586 -0.6189 -0.1938  1.4258
25148SOL     OW80290   7.012   6.246   5.933  0.3656  0.6913 -0.3946
25148SOL    HW180291   7.099   6.215   5.959 -0.5600 -0.3094  1.7808
25148SOL    HW280292   7.029   6.322   5.877  2.6256  0.6251  0.1134
25149SOL     OW80293   6.905   2.946   5.044  0.7112  0.0006 -0.5208
25149SOL    HW180294   6.822   2.925   4.999  0.9336 -0.6540 -0.6367
25149SOL    HW280295   6.970   2.946   4.974  1.0098 -0.7228 -0.2531
25150SOL     OW80296   8.779   5.693   6.259 -0.1628  0.2211 -1.0559
25150SOL    HW180297   8.727   5.613   6.254  1.1227 -0.7592  0.2823
25150SOL    HW280298   8.750   5.735   6.341 -0.8433  1.1560 -1.7588
25151SOL     OW80299   8.120   2.406   3.362  0.1759  0.7558 -0.2950
25151SOL    HW180300   8.129   2.455   3.443  2.4853 -0.9712  0.6167
25151SOL    HW280301   8.206   2.364   3.350 -1.1250 -1.7047 -1.8437
25152SOL     OW80302   8.550   4.396   4.066  0.0421 -0.4168  0.1746
25152SOL    HW180303   8.537   4.330   3.998 -1.1897 -0.2560  0.2371
25152SOL    HW280304   8.515   4.357   4.145 -1.1319  0.4564  0.1202
25153SOL     OW80305   8.606   4.245   4.640 -0.0521  0.4072 -0.6499
25153SOL    HW180306   8.643   4.158   4.656 -0.6162  0.1454 -0.7572
25153SOL    HW280307   8.539   4.230   4.573 -0.4132  0.8614 -0.3894
25154SOL     OW80308   8.138   6.383   4.194  0.3527  0.6811 -0.0310
25154SOL    HW180309   8.087   6.457   4.225  1.2066  1.3981 -0.2874
25154SOL    HW280310   8.202   6.421   4.134  1.0771 -0.1956  0.1540
25155SOL     OW80311   8.655   6.524   6.392 -0.1808 -0.1965  0.0825
25155SOL    HW180312   8.738   6.523   6.439  0.2877  0.7892 -0.6997
25155SOL    HW280313   8.612   6.443   6.419 -0.1923  0.5829  2.6306
25156SOL     OW80314   0.133   4.543   3.230  0.3844  0.0343  0.0164
25156SOL    HW180315   0.108   4.451   3.243  0.2311  0.0506 -0.1623
25156SOL    HW280316   0.228   4.543   3.236  0.3736 -0.1040  0.2235
25157SOL     OW80317   7.689   3.915   7.262 -0.2812  0.0993 -0.6667
25157SOL    HW180318   7.663   4.006   7.244  0.4297  0.1750 -1.3449
25157SOL    HW280319   7.622   3.862   7.221 -2.2620  0.2895  2.0644
25158SOL     OW80320   8.727   1.685   1.292 -0.0587 -0.6648 -0.0699
25158SOL    HW180321   8.637   1.684   1.324  0.0882  2.6310  0.7562
25158SOL    HW280322   8.780   1.659   1.368 -0.1347  0.7667  0.4991
25159SOL     OW80323   6.002   3.508   8.164  0.1095  0.2137 -0.1364
25159SOL    HW180324   5.951   3.581   8.129  1.9557  0.5963 -2.1636
25159SOL    HW280325   6.092   3.527   8.141  0.6893 -2.6734 -0.6974
25160SOL     OW80326   8.668   5.517   5.352  0.0825  0.0765 -0.4635
25160SOL    HW180327   8.618   5.519   5.270 -1.8455 -0.3560  0.6295
25160SOL    HW280328   8.667   5.608   5.382 -0.0510  0.0698 -0.4455
25161SOL     OW80329   8.129   3.629   2.413 -0.8420  0.2038 -0.2746
25161SOL    HW180330   8.187   3.553   2.424  0.0008  0.6267 -1.6270
25161SOL    HW280331   8.168   3.696   2.469 -1.0962 -0.0727  0.2482
25162SOL     OW80332   8.995   5.429   5.872  0.0482 -0.7378 -0.3695
25162SOL    HW180333   8.921   5.461   5.923  0.0554 -0.4353 -0.5454
25162SOL    HW280334   9.030   5.507   5.828  1.0190 -0.7180  0.3936
25163SOL     OW80335   7.602   4.462   3.197  0.2110 -0.3714  0.0965
25163SOL    HW180336   7.566   4.439   3.112  0.8969 -1.8766  0.1768
25163SOL    HW280337   7.628   4.554   3.189 -1.8041  0.1936 -0.5610
25164SOL     OW80338   8.485   2.919   4.498 -0.2340 -0.0232  0.1783
25164SOL    HW180339   8.488   2.882   4.586 -0.7524 -2.4368 -0.7319
25164SOL    HW280340   8.575   2.912   4.466 -0.3018 -0.3721  0.0611
25165SOL     OW80341   8.184   4.136   3.601  0.0952  0.1724 -0.2132
25165SOL    HW180342   8.112   4.081   3.631  0.4179 -0.1296  0.0127
25165SOL    HW280343   8.261   4.099   3.643  0.4726  0.1018 -0.9482
25166SOL     OW80344   0.229   4.340   4.078 -0.1652 -0.5077 -0.5083
25166SOL    HW180345   0.243   4.279   4.006 -1.0921 -1.9770  0.5135
25166SOL    HW280346   0.318   4.363   4.108  0.2024 -1.9093 -0.4683
25167SOL     OW80347   7.342   2.931   3.302  0.0135  0.0366 -0.0269
25167SOL    HW180348   7.381   2.845   3.288 -1.6841 -0.5747 -1.4769
25167SOL    HW280349   7.373   2.983   3.228 -1.7966 -0.4719 -1.2254
25168SOL     OW80350   7.829   4.469   4.221 -0.0582 -0.2336  0.3859
25168SOL    HW180351   7.794   4.487   4.134  0.0038 -2.4073 -0.1497
25168SOL    HW280352   7.919   4.440   4.206  1.1566  2.6332  1.5236
25169SOL     OW80353   8.492   4.654   3.816  0.7787 -0.1477 -0.8543
25169SOL    HW180354   8.430   4.727   3.819  2.5070  1.3711 -0.2268
25169SOL    HW280355   8.572   4.689   3.855  1.2781 -2.8036  0.7796
25170SOL     OW80356   9.454   3.774   3.514  0.0341  0.4224  0.0743
25170SOL    HW180357   9.376   3.763   3.568 -0.2616  0.4033 -0.3521
25170SOL    HW280358   9.451   3.866   3.487  0.2987  0.4882  0.2722
25171SOL     OW80359   9.156   1.221   3.574  0.7499  0.5620  0.8031
25171SOL    HW180360   9.084   1.177   3.530  1.1570 -0.8037  1.4539
25171SOL    HW280361   9.230   1.212   3.513  0.5778  1.2592  0.4867
25172SOL     OW80362   0.363   3.932   6.566  0.1031  0.4336 -0.3103
25172SOL    HW180363   0.289   3.875   6.545  0.1120 -0.3232  1.5394
25172SOL    HW280364   0.407   3.946   6.482  0.1899 -2.4221 -0.8329
25173SOL     OW80365   5.479   6.714   8.076 -0.1122  0.3152 -0.4926
25173SOL    HW180366   5.504   6.774   8.005 -0.0513  0.3043 -0.4803
25173SOL    HW280367   5.467   6.630   8.032  2.1665 -0.2311 -0.1439
25174SOL     OW80368   8.144   4.998   5.564  0.6338  0.9532 -0.0027
25174SOL    HW180369   8.161   4.949   5.484 -2.5916 -2.5776  1.1900
25174SOL    HW280370   8.084   5.068   5.537  1.6970  1.5170 -1.0074
25175SOL     OW80371   8.454   4.281   5.393  0.2240 -0.2302 -0.1231
25175SOL    HW180372   8.423   4.191   5.403  1.8162 -0.8429 -0.4293
25175SOL    HW280373   8.534   4.285   5.445  0.8781  0.6206 -1.1542
25176SOL     OW80374   9.441   5.066   4.538 -0.3141  0.4278  0.3920
25176SOL    HW180375   9.360   5.088   4.583 -0.3839  1.1529 -0.0712
25176SOL    HW280376   9.495   5.023   4.605 -1.2755 -0.5624  0.5526
25177SOL     OW80377   6.368   3.608   5.839 -0.0787 -0.4771  0.0438
25177SOL    HW180378   6.402   3.666   5.771 -0.9363  2.2637  1.7899
25177SOL    HW280379   6.288   3.651   5.869 -0.2389 -2.0822  2.1139
25178SOL     OW80380   9.112   4.004   4.911  0.1230 -0.8763 -0.4873
25178SOL    HW180381   9.144   4.083   4.954 -1.7704  0.3553 -1.2283
25178SOL    HW280382   9.190   3.951   4.896  1.9108  2.0539 -2.4703
25179SOL     OW80383   4.356   7.433   1.841 -0.6711 -0.2240  0.3713
25179SOL    HW180384   4.346   7.504   1.905 -0.0350  0.8911 -0.7167
25179SOL    HW280385   4.294   7.454   1.771  2.0265  1.4120 -1.7517
25180SOL     OW80386   8.505   4.099   5.154  1.3459  0.1515  0.6567
25180SOL    HW180387   8.495   4.161   5.226  0.9515  0.5970  0.2303
25180SOL    HW280388   8.599   4.101   5.133  1.4961 -0.1492  1.2995
25181SOL     OW80389   8.817   5.876   6.797  0.3835  0.0641 -0.8308
25181SOL    HW180390   8.906   5.862   6.765  0.9670  0.3007  0.6064
25181SOL    HW280391   8.782   5.787   6.809  1.4582 -0.1399  1.2615
25182SOL     OW80392   9.052   3.874   5.718 -0.5021  0.3832 -0.2828
25182SOL    HW180393   9.110   3.800   5.700 -0.2221  0.2972  0.8702
25182SOL    HW280394   9.091   3.916   5.795 -1.5196  0.8093  0.0109
25183SOL     OW80395   6.884   3.887   1.850 -0.0758 -0.2470 -0.1398
25183SOL    HW180396   6.916   3.959   1.904 -1.4324  1.4465 -1.4649
25183SOL    HW280397   6.792   3.878   1.874 -0.6442  0.3697 -1.8735
25184SOL     OW80398   7.462   4.782   3.839 -0.4037 -0.4445 -0.1021
25184SOL    HW180399   7.434   4.793   3.930 -1.3686  0.0539 -0.4514
25184SOL    HW280400   7.385   4.804   3.787 -0.0573 -1.3682 -1.0361
25185SOL     OW80401   6.748   4.626   4.921  0.0537  0.0667  0.5294
25185SOL    HW180402   6.798   4.703   4.948 -0.4576  0.4062  0.5186
25185SOL    HW280403   6.661   4.659   4.903  0.4284 -0.0895 -1.8195
25186SOL     OW80404   8.677   4.054   4.229  0.5182 -0.0419  0.6024
25186SOL    HW180405   8.641   3.967   4.215  0.8810 -0.2525  0.9808
25186SOL    HW280406   8.600   4.110   4.244  0.1418  0.0481 -1.3581
25187SOL     OW80407   7.001   3.248   6.151  0.2996  0.4718 -0.6677
25187SOL    HW180408   6.951   3.166   6.152 -0.9315  1.1615  1.3526
25187SOL    HW280409   6.959   3.301   6.083 -1.9106  1.0688  1.0399
25188SOL     OW80410   6.877   6.395   5.530 -0.2917  0.6689 -0.0808
25188SOL    HW180411   6.921   6.356   5.455  0.2251  0.7003  0.1953
25188SOL    HW280412   6.890   6.331   5.601 -0.2174  0.9282  0.1419
25189SOL     OW80413   0.775   6.089   7.310 -0.5011 -0.3211  0.0133
25189SOL    HW180414   0.840   6.155   7.336  0.5890 -0.7992 -1.3560
25189SOL    HW280415   0.741   6.121   7.226 -1.1870 -0.6785  0.1473
25190SOL     OW80416   7.460   4.896   7.916  0.2367  0.0080  0.1020
25190SOL    HW180417   7.389   4.897   7.851 -0.4487 -1.0409  0.8071
25190SOL    HW280418   7.423   4.850   7.991  0.6156  2.1806  1.7164
25191SOL     OW80419   9.091   5.297   2.879 -0.1704 -0.5906 -0.0350
25191SOL    HW180420   9.045   5.213   2.884  1.2502 -1.3572  0.6818
25191SOL    HW280421   9.073   5.330   2.791 -2.5332 -0.5757  0.3981
25192SOL     OW80422   6.669   4.038   6.194 -0.1304  0.2729  0.2081
25192SOL    HW180423   6.737   4.054   6.259 -0.0220  1.1323 -0.1051
25192SOL    HW280424   6.696   4.089   6.117 -1.3920  1.0718  0.2647
25193SOL     OW80425   7.223   2.551   4.940  0.6109  0.0907  0.2391
25193SOL    HW180426   7.277   2.477   4.914  1.9560  0.6856  1.2506
25193SOL    HW280427   7.254   2.575   5.027 -0.9120  0.8116  0.6185
25194SOL     OW80428   7.707   1.800   3.017  0.2404  0.1601  0.1925
25194SOL    HW180429   7.772   1.731   3.026  0.4277  0.0472 -1.6781
25194SOL    HW280430   7.753   1.871   2.973 -0.3343  0.9468  0.8103
25195SOL     OW80431   6.355   3.694   5.470  0.4077  0.3581  0.2995
25195SOL    HW180432   6.330   3.737   5.389  1.3124 -0.5807 -0.5092
25195SOL    HW280433   6.450   3.709   5.477  1.2386 -3.1464 -1.1537
25196SOL     OW80434   8.781   4.064   5.107  0.0934 -0.1440 -0.4092
25196SOL    HW180435   8.857   4.078   5.164 -0.5779 -1.4062  0.8333
25196SOL    HW280436   8.809   4.100   5.022  1.3021  1.3031  0.5438
25197SOL     OW80437   0.243   5.708   4.642 -0.4223 -0.6748 -0.3639
25197SOL    HW180438   0.162   5.657   4.649  0.1323 -1.3772  1.8126
25197SOL    HW280439   0.226   5.771   4.573 -2.8253 -0.8096  0.0235
25198SOL     OW80440   9.093   5.433   2.378  0.7229  0.2746 -0.7499
25198SOL    HW180441   9.155   5.365   2.405  1.3745  1.6810  1.6556
25198SOL    HW280442   9.143   5.515   2.386 -1.7155  1.6894  2.9675
25199SOL     OW80443   8.909   3.863   3.336  0.3486 -0.0249  0.1399
25199SOL    HW180444   8.900   3.807   3.413  4.7165 -0.3135  0.6835
25199SOL    HW280445   8.911   3.952   3.372 -0.0973  0.0364  0.0242
25200SOL     OW80446   8.552   6.061   4.818  0.2207  0.3550  0.0158
25200SOL    HW180447   8.637   6.067   4.862  0.0295  1.3177  0.2643
25200SOL    HW280448   8.573   6.040   4.727  0.5763 -4.7949  0.9695
25201SOL     OW80449   8.683   5.702   5.923 -0.3751  0.1674  0.5334
25201SOL    HW180450   8.706   5.764   5.854 -1.2274 -1.3592 -1.2063
25201SOL    HW280451   8.600   5.735   5.958 -1.3402 -0.4714 -1.0671
25202SOL     OW80452   2.825   5.457   5.597 -0.3651  0.5742  0.0938
25202SOL    HW180453   2.735   5.487   5.600 -1.3266 -1.9808 -0.5025
25202SOL    HW280454   2.821   5.365   5.624  1.9639  0.2235 -0.5044
25203SOL     OW80455   8.740   6.928   6.208 -0.4946 -0.2032  0.8143
25203SOL    HW180456   8.668   6.867   6.197 -0.9369  0.4477  0.0178
25203SOL    HW280457   8.699   7.008   6.241 -0.1139  0.1095  0.5374
25204SOL     OW80458   8.947   2.877   2.451  0.4020  0.1976  0.1353
25204SOL    HW180459   8.861   2.866   2.409  0.7892  0.4730 -0.7475
25204SOL    HW280460   8.940   2.826   2.531 -0.6085  0.2507  0.1013
25205SOL     OW80461   7.836   3.691   4.413 -0.1752  0.3541 -0.1725
25205SOL    HW180462   7.852   3.627   4.483 -1.1093  0.5355  0.2322
25205SOL    HW280463   7.805   3.638   4.339  0.0481  0.2426 -0.1894
25206SOL     OW80464   7.643   4.011   4.762  0.8750  0.2805  0.1897
25206SOL    HW180465   7.631   4.035   4.854 -0.6460  2.5648 -0.5015
25206SOL    HW280466   7.668   4.093   4.719 -1.4541  0.0122 -1.8859
25207SOL     OW80467   6.216   4.279   3.167 -0.1133  0.4034  0.0038
25207SOL    HW180468   6.302   4.287   3.207 -0.0324 -0.8945  0.1264
25207SOL    HW280469   6.188   4.369   3.152  0.6855  0.8796  1.1975
25208SOL     OW80470   6.276   3.944   5.766 -0.1226  0.4787 -0.8389
25208SOL    HW180471   6.226   3.918   5.689 -0.8260  2.1850 -1.0097
25208SOL    HW280472   6.232   3.902   5.840 -1.0728  0.9485 -1.1194
25209SOL     OW80473   9.544   4.797   5.796 -0.6486  0.2975 -0.1340
25209SOL    HW180474   9.458   4.791   5.837 -0.8668 -0.3746 -0.6738
25209SOL    HW280475   9.575   4.706   5.793  0.3592  0.5963  0.6361
25210SOL     OW80476   9.243   3.878   3.297  0.3835  0.2152 -0.1160
25210SOL    HW180477   9.267   3.969   3.316  1.8810 -0.0825 -0.4439
25210SOL    HW280478   9.189   3.853   3.372 -0.2564  1.4328 -0.1319
25211SOL     OW80479   6.620   3.774   5.467  0.9490  0.0935 -0.0587
25211SOL    HW180480   6.643   3.802   5.379  0.6617  0.3115 -0.0634
25211SOL    HW280481   6.700   3.733   5.500  0.6520 -1.2630 -0.9329
25212SOL     OW80482   8.217   6.497   3.926  0.0877 -0.1965 -0.2690
25212SOL    HW180483   8.146   6.451   3.881 -0.8371 -0.0294  0.9576
25212SOL    HW280484   8.264   6.543   3.857  0.6284 -2.3866 -1.4657
25213SOL     OW80485   6.550   8.686   4.341  0.0326 -0.5777 -0.2424
25213SOL    HW180486   6.636   8.691   4.299 -0.6926 -1.2571 -1.8704
25213SOL    HW280487   6.505   8.766   4.314  0.4919  0.3519  1.5306
25214SOL     OW80488   9.092   5.231   4.873  0.0802  0.2992  0.6818
25214SOL    HW180489   9.177   5.191   4.893  0.6376  2.0413  2.0984
25214SOL    HW280490   9.092   5.313   4.923 -1.9817  0.8946 -0.1902
25215SOL     OW80491   4.656   2.484   6.490 -0.8123 -0.0755  0.5781
25215SOL    HW180492   4.630   2.569   6.525 -1.4116  0.0588 -0.1523
25215SOL    HW280493   4.665   2.427   6.566 -3.1258 -0.0770  0.9119
25216SOL     OW80494   7.072   2.608   3.847 -0.0921 -0.4023 -0.4599
25216SOL    HW180495   7.042   2.595   3.757 -1.2311  2.8589 -0.6809
25216SOL    HW280496   6.996   2.585   3.901  0.2740 -1.4333 -0.3699
25217SOL     OW80497   8.473   4.784   6.122  0.2972 -0.7835 -0.0658
25217SOL    HW180498   8.558   4.756   6.154  0.5233 -0.8112 -0.6906
25217SOL    HW280499   8.414   4.769   6.196  0.3093 -3.3424 -0.4962
25218SOL     OW80500   9.037   3.572   5.632 -0.2445  0.0410 -0.7167
25218SOL    HW180501   9.066   3.552   5.543 -1.7106  0.3579 -1.2977
25218SOL    HW280502   9.118   3.592   5.680  0.7627 -1.8882 -1.4835
25219SOL     OW80503   9.643   3.786   6.039 -0.2295  0.3778 -0.4931
25219SOL    HW180504   9.630   3.852   6.108 -0.9365  1.8404 -1.9664
25219SOL    HW280505   9.557   3.776   5.999 -0.4524 -2.4119  0.4404
25220SOL     OW80506   6.571   7.286   5.589 -0.3915 -0.3622  0.1823
25220SOL    HW180507   6.587   7.380   5.593 -0.0964 -0.4463  2.6604
25220SOL    HW280508   6.523   7.266   5.670 -1.2726 -2.2075 -0.7270
25221SOL     OW80509   8.417   4.986   3.496 -0.1744 -0.2314 -0.0254
25221SOL    HW180510   8.324   4.966   3.492  0.1969 -2.9049  1.8565
25221SOL    HW280511   8.458   4.905   3.526  2.7834  0.8619 -0.7139
25222SOL     OW80512   9.210   3.862   4.223  0.1411 -0.5412  0.0290
25222SOL    HW180513   9.243   3.779   4.257 -0.2769 -0.3568  0.8961
25222SOL    HW280514   9.240   3.928   4.286  0.1761 -0.0726 -0.4678
25223SOL     OW80515   7.634   4.788   5.289 -0.2390  0.1384 -0.0186
25223SOL    HW180516   7.707   4.784   5.351 -1.2148 -1.8076  1.0908
25223SOL    HW280517   7.621   4.698   5.259 -1.1554  0.7034 -1.4515
25224SOL     OW80518   0.467   5.776   4.289  0.0353  0.5156 -0.5644
25224SOL    HW180519   0.469   5.793   4.384 -0.3792  0.0406 -0.4678
25224SOL    HW280520   0.542   5.824   4.255  0.6358  0.0895  0.1179
25225SOL     OW80521   8.376   5.232   3.742 -0.5961  0.1186  0.2397
25225SOL    HW180522   8.305   5.169   3.753 -1.0165  0.5884  0.2119
25225SOL    HW280523   8.333   5.313   3.713  0.0154  0.1914 -0.5188
25226SOL     OW80524   7.975   4.894   6.892  0.7824  0.2302 -0.0700
25226SOL    HW180525   7.947   4.984   6.873 -1.7340 -0.7903 -1.9297
25226SOL    HW280526   7.984   4.890   6.987  0.9869  2.4362  0.0453
25227SOL     OW80527   0.841   4.055   5.667 -0.4005 -0.0322  0.1190
25227SOL    HW180528   0.928   4.016   5.666 -0.2220  0.3642 -0.4448
25227SOL    HW280529   0.792   4.008   5.600 -1.5284 -2.1894  2.2816
25228SOL     OW80530   7.813   4.058   6.000  0.2671  0.4063 -0.5170
25228SOL    HW180531   7.890   4.063   6.058  1.0254 -1.4491 -1.2851
25228SOL    HW280532   7.838   4.110   5.923  0.6847 -0.0412 -0.6871
25229SOL     OW80533   7.205   4.876   5.483  0.4480  0.0909 -0.2016
25229SOL    HW180534   7.283   4.924   5.456  1.4399 -1.3016  0.0757
25229SOL    HW280535   7.139   4.944   5.501  0.9274  1.2299 -2.4000
25230SOL     OW80536   8.333   4.898   6.935 -0.0028  0.1142  0.3373
25230SOL    HW180537   8.355   4.973   6.880  1.2362  0.3582  1.1394
25230SOL    HW280538   8.272   4.847   6.882 -1.4112  1.9974  0.0111
25231SOL     OW80539   9.108   5.234   6.741  0.6520 -0.3262 -0.5201
25231SOL    HW180540   9.059   5.153   6.721  0.9931 -0.3686 -1.2296
25231SOL    HW280541   9.049   5.304   6.713  1.0461 -0.3814 -1.5299
25232SOL     OW80542   0.533   8.306   3.865 -0.4745  0.0249  0.1881
25232SOL    HW180543   0.449   8.289   3.822 -0.0210 -0.4281 -0.5338
25232SOL    HW280544   0.509   8.349   3.947 -1.3943  0.2565 -0.1819
25233SOL     OW80545   8.686   6.409   4.525  0.0142  0.5987 -0.0188
25233SOL    HW180546   8.591   6.406   4.522 -0.0577  0.1775  1.6661
25233SOL    HW280547   8.714   6.394   4.435 -1.4972  0.2899 -0.4586
25234SOL     OW80548   0.007   5.569   5.668 -0.0017 -0.4979 -0.3648
25234SOL    HW180549   0.016   5.602   5.579  1.2583 -0.1885 -0.1323
25234SOL    HW280550   0.081   5.510   5.680  0.0298 -0.2760  0.5964
25235SOL     OW80551   6.212   1.083   5.700 -0.3284 -0.6281  0.6742
25235SOL    HW180552   6.265   1.072   5.779 -0.8676 -3.1153  0.7564
25235SOL    HW280553   6.256   1.153   5.652  0.9102 -0.1263  2.4170
25236SOL     OW80554   8.946   4.358   3.504 -0.5623 -0.3523  0.5428
25236SOL    HW180555   8.875   4.294   3.516 -2.1878  0.9382 -1.4003
25236SOL    HW280556   8.906   4.442   3.526 -0.8874  0.8822 -3.8606
25237SOL     OW80557   8.033   4.699   5.142 -0.0928 -0.4521  0.0638
25237SOL    HW180558   7.980   4.734   5.071 -0.9120  1.6040  1.5982
25237SOL    HW280559   8.108   4.658   5.098 -1.2481 -0.4776 -1.9940
25238SOL     OW80560   8.055   4.876   4.176 -0.3104 -0.6449 -0.1037
25238SOL    HW180561   8.073   4.789   4.141  0.2634  0.2383 -2.1731
25238SOL    HW280562   8.064   4.935   4.101 -2.0053  1.0680  0.9265
25239SOL     OW80563   3.569   2.792   2.284 -0.2074  0.3313  0.3493
25239SOL    HW180564   3.488   2.841   2.270 -0.6423 -0.3169  0.5409
25239SOL    HW280565   3.540   2.703   2.305  0.5665 -0.0308 -0.0684
25240SOL     OW80566   8.516   5.442   7.324  0.1247  0.7657  0.6045
25240SOL    HW180567   8.427   5.456   7.291  0.5784  1.9624 -0.1721
25240SOL    HW280568   8.543   5.358   7.286 -0.6152  0.4509  0.7545
25241SOL     OW80569   9.315   4.230   5.672  0.0088 -0.2532 -0.4630
25241SOL    HW180570   9.245   4.294   5.683 -0.7828 -0.9027 -1.4215
25241SOL    HW280571   9.396   4.278   5.690 -0.5994  0.8625 -0.6299
25242SOL     OW80572   5.593   3.107   2.948  0.0973  1.0666  0.2763
25242SOL    HW180573   5.599   3.085   2.855 -1.4948 -0.6098  0.4978
25242SOL    HW280574   5.533   3.042   2.984 -0.0450  2.2275  2.3150
25243SOL     OW80575   6.262   8.049   4.129  0.7147 -0.6847 -0.5241
25243SOL    HW180576   6.334   7.986   4.116  1.0554  0.0900 -2.8511
25243SOL    HW280577   6.305   8.129   4.157  0.6584 -0.5346 -0.8575
25244SOL     OW80578   0.631   3.882   3.228  0.3827 -0.2229 -0.3019
25244SOL    HW180579   0.652   3.807   3.284 -1.1938 -0.4671  0.0128
25244SOL    HW280580   0.585   3.943   3.286 -2.0023 -0.8189 -1.4503
25245SOL     OW80581   6.186   7.371   3.380 -0.2116  0.0792  0.0982
25245SOL    HW180582   6.136   7.448   3.356 -0.3627  0.0734  0.3986
25245SOL    HW280583   6.244   7.356   3.305  2.1756  2.3918  1.2873
25246SOL     OW80584   6.367   1.967   4.718 -0.1539  0.0844 -0.4778
25246SOL    HW180585   6.456   1.971   4.684  0.6617 -1.3096  1.3206
25246SOL    HW280586   6.342   1.875   4.709 -0.6067  0.0533  0.8501
25247SOL     OW80587   8.110   3.667   4.904 -0.5082 -0.2388  0.2794
25247SOL    HW180588   8.016   3.676   4.916 -0.2895  1.8162  0.8665
25247SOL    HW280589   8.119   3.611   4.826 -2.3004  2.2909 -1.9332
25248SOL     OW80590   4.947   6.488   2.951  0.4633 -0.5305 -0.2144
25248SOL    HW180591   4.917   6.398   2.941  0.1578 -0.3774 -0.7341
25248SOL    HW280592   4.932   6.509   3.043 -2.5836  0.0549 -0.7302
25249SOL     OW80593   9.276   4.617   3.779 -0.9201 -0.4049  0.1636
25249SOL    HW180594   9.251   4.529   3.750 -0.6605 -0.8009  1.1232
25249SOL    HW280595   9.224   4.675   3.723  0.2925 -1.1052 -1.7960
25250SOL     OW80596   7.852   3.403   3.943  0.4303  0.6092  0.0278
25250SOL    HW180597   7.864   3.349   3.865 -0.1533 -0.4924  0.6755
25250SOL    HW280598   7.843   3.340   4.015  0.4057  1.5867  0.9069
25251SOL     OW80599   9.444   3.688   4.610  0.2925  0.5655  0.1225
25251SOL    HW180600   9.380   3.636   4.561  0.2054  0.7613  0.0281
25251SOL    HW280601   9.524   3.635   4.608  0.6201  1.0742 -1.1997
25252SOL     OW80602   5.956   3.814   7.150 -0.4034  0.3428  0.0948
25252SOL    HW180603   5.970   3.758   7.074  0.6841  0.6687  0.0409
25252SOL    HW280604   6.022   3.786   7.214 -0.8851  0.4997  0.6716
25253SOL     OW80605   8.710   4.982   4.608 -0.4690 -0.4816  0.4389
25253SOL    HW180606   8.710   5.006   4.516 -0.5971 -1.3826  0.1888
25253SOL    HW280607   8.692   4.888   4.608 -1.8265 -0.2489  1.4473
25254SOL     OW80608   8.768   4.182   7.611  0.0466  0.0168  0.5918
25254SOL    HW180609   8.692   4.176   7.669  0.6922  2.3058  1.7731
25254SOL    HW280610   8.745   4.251   7.549  1.2038  0.8056  1.0261
25255SOL     OW80611   7.538   8.104   6.814  0.2651  0.8551  0.6612
25255SOL    HW180612   7.489   8.061   6.884  1.4893 -2.0628 -0.1089
25255SOL    HW280613   7.479   8.103   6.739  0.6943 -0.7945  0.2966
25256SOL     OW80614   7.833   3.521   2.429 -0.3401  0.1358 -0.1510
25256SOL    HW180615   7.862   3.442   2.385  0.8097  0.5259 -0.1343
25256SOL    HW280616   7.894   3.589   2.400 -1.2523  1.0095 -0.1081
25257SOL     OW80617   7.261   4.530   3.621 -0.0815  0.0421 -0.1500
25257SOL    HW180618   7.299   4.452   3.662 -0.8077 -0.7600 -0.9515
25257SOL    HW280619   7.309   4.539   3.538 -0.0941  0.3631 -0.1235
25258SOL     OW80620   6.721   5.962   5.754 -0.2545 -0.3194 -0.7619
25258SOL    HW180621   6.747   6.029   5.692  0.4528 -0.0972 -0.2403
25258SOL    HW280622   6.727   5.880   5.706 -1.4930  0.0040 -1.5177
25259SOL     OW80623   8.146   2.872   6.853  0.4745  0.2925 -0.1316
25259SOL    HW180624   8.062   2.899   6.815  0.7596  0.8357 -0.3940
25259SOL    HW280625   8.178   2.804   6.793 -0.6138 -1.2403  0.9596
25260SOL     OW80626   1.252   5.148   5.958 -0.0171 -0.1081  0.5914
25260SOL    HW180627   1.246   5.133   5.864 -2.3360  0.8529  0.5106
25260SOL    HW280628   1.190   5.086   5.996  1.3572 -0.9372  1.5928
25261SOL     OW80629   9.123   5.197   5.630  0.4015 -0.5159  0.0641
25261SOL    HW180630   9.195   5.199   5.693  0.6148  0.2577 -0.1986
25261SOL    HW280631   9.166   5.192   5.544  0.1160 -1.4335 -0.0345
25262SOL     OW80632   9.670   5.579   4.057 -0.2564  0.2105 -0.4891
25262SOL    HW180633   9.576   5.562   4.061 -0.5907  2.0339  1.0622
25262SOL    HW280634   9.700   5.535   3.978 -1.9416 -2.5468  0.3025
25263SOL     OW80635   6.494   3.866   3.720  0.1415  0.0962  0.9709
25263SOL    HW180636   6.424   3.908   3.769  0.5391  1.0138  0.7763
25263SOL    HW280637   6.500   3.777   3.756 -1.9982 -0.4632  0.1023
25264SOL     OW80638   1.354   7.326   3.999 -0.1196  0.5355 -0.1935
25264SOL    HW180639   1.293   7.340   3.927 -2.5109  1.6648  1.8839
25264SOL    HW280640   1.300   7.292   4.070  2.0384 -0.0883  1.2500
25265SOL     OW80641   6.724   6.069   5.266 -0.5205  0.0877  0.9415
25265SOL    HW180642   6.797   6.038   5.213 -0.0530  0.5737  1.2800
25265SOL    HW280643   6.662   5.996   5.268  0.3111 -0.6313  1.2983
25266SOL     OW80644   6.231   7.024   5.216 -0.0830  0.4911  0.0189
25266SOL    HW180645   6.140   7.046   5.234  0.2206  0.9317  1.0898
25266SOL    HW280646   6.278   7.044   5.297  0.7481 -1.0631 -0.0211
25267SOL     OW80647   0.233   4.075   4.931 -0.7398 -0.2684  0.4305
25267SOL    HW180648   0.216   4.120   4.848 -1.8481 -0.1368  0.7151
25267SOL    HW280649   0.227   4.144   4.997  1.4691 -0.0984  0.5464
25268SOL     OW80650   8.088   4.345   5.820 -0.1158  0.5825  0.0301
25268SOL    HW180651   8.025   4.278   5.847  1.0016 -0.3875  0.3071
25268SOL    HW280652   8.146   4.355   5.895  1.0515  0.2316 -0.7932
25269SOL     OW80653   0.227   2.684   4.444  0.5753  0.2128 -0.3493
25269SOL    HW180654   0.176   2.765   4.437 -1.4449 -1.0063 -0.6684
25269SOL    HW280655   0.182   2.623   4.386  1.9993 -1.1746 -0.0470
25270SOL     OW80656   7.378   6.322   6.486  0.0473 -0.0073  0.0126
25270SOL    HW180657   7.430   6.402   6.491 -0.8523  0.5251  3.1715
25270SOL    HW280658   7.291   6.348   6.517 -0.8830 -1.7910 -0.9603
25271SOL     OW80659   5.952   6.252   3.628 -0.2530  0.2167 -0.1708
25271SOL    HW180660   5.918   6.228   3.541  1.7892  1.1241 -1.2852
25271SOL    HW280661   5.994   6.337   3.614  0.1671  0.3456  1.7248
25272SOL     OW80662   7.271   4.688   4.607 -0.1633 -0.2365  0.5916
25272SOL    HW180663   7.312   4.728   4.683 -0.1089  1.5545 -0.3326
25272SOL    HW280664   7.185   4.729   4.602 -0.2241 -0.4439 -0.2295
25273SOL     OW80665   8.294   3.298   4.983 -0.2405 -0.3392  0.2889
25273SOL    HW180666   8.361   3.250   4.934  0.2767  1.8999 -1.3766
25273SOL    HW280667   8.333   3.313   5.069  0.8953 -0.1520 -0.2464
25274SOL     OW80668   7.098   4.017   5.979  0.0145 -0.4363  0.7609
25274SOL    HW180669   7.096   3.923   5.995 -0.0982 -0.6380 -0.3299
25274SOL    HW280670   7.087   4.025   5.884  1.9149  0.5948  0.5940
25275SOL     OW80671   8.535   5.793   4.074  0.2661  0.2143 -0.3807
25275SOL    HW180672   8.495   5.850   4.008 -0.5354 -1.5374 -1.4891
25275SOL    HW280673   8.628   5.815   4.070  0.0674  0.9919 -1.2286
25276SOL     OW80674   7.825   3.478   4.686  0.4806  0.1215 -0.0540
25276SOL    HW180675   7.892   3.445   4.745  0.7268 -2.5180 -1.6586
25276SOL    HW280676   7.742   3.456   4.729  0.6621 -0.6462 -0.0784
25277SOL     OW80677   0.342   4.433   6.611 -0.3602  0.1793 -0.0324
25277SOL    HW180678   0.284   4.357   6.615  0.4284 -0.4114  0.4808
25277SOL    HW280679   0.430   4.396   6.618 -0.0028  1.2293  1.2415
25278SOL     OW80680   9.507   1.695   5.494 -0.1786  0.4256  0.3816
25278SOL    HW180681   9.445   1.766   5.481 -1.4415 -0.6888  0.0044
25278SOL    HW280682   9.593   1.733   5.475 -0.9635  1.4761 -1.2585
25279SOL     OW80683   7.494   4.403   2.933  0.0711 -0.0119 -0.6991
25279SOL    HW180684   7.487   4.451   2.851 -0.5943 -2.0854 -1.9276
25279SOL    HW280685   7.575   4.352   2.924  0.3050  0.1772  0.2062
25280SOL     OW80686   7.471   6.544   3.228  0.6313 -0.4048 -0.1305
25280SOL    HW180687   7.391   6.503   3.195  2.0935 -1.2637 -2.9919
25280SOL    HW280688   7.514   6.475   3.279  0.3420 -0.5095 -0.0266
25281SOL     OW80689   5.174   4.096   7.458  0.2419 -0.3566 -0.2193
25281SOL    HW180690   5.246   4.107   7.521 -0.5976 -0.4687  0.7806
25281SOL    HW280691   5.161   4.001   7.453 -0.5150 -0.2936  0.4020
25282SOL     OW80692   6.894   2.233   5.690 -0.6075 -0.0729  0.1540
25282SOL    HW180693   6.853   2.273   5.768  0.0991  1.2987 -0.1463
25282SOL    HW280694   6.838   2.158   5.670 -0.7313 -0.5657  2.0674
25283SOL     OW80695   6.384   3.274   3.591  0.5782 -0.0572  0.1701
25283SOL    HW180696   6.381   3.179   3.579  0.3106 -0.3668  2.3348
25283SOL    HW280697   6.292   3.301   3.594  0.6492  0.3793 -0.9755
25284SOL     OW80698   7.529   4.866   7.268 -0.0873  0.0548 -0.1380
25284SOL    HW180699   7.600   4.927   7.289  0.3714 -0.7655  0.8131
25284SOL    HW280700   7.542   4.793   7.329 -0.6035 -0.9981 -1.2504
25285SOL     OW80701   7.740   5.949   5.306  0.2010 -0.2339 -0.0835
25285SOL    HW180702   7.818   5.994   5.337  1.2013 -0.5511 -2.0202
25285SOL    HW280703   7.724   5.985   5.218 -0.0125 -2.3215 -0.9655
25286SOL     OW80704   7.384   4.711   5.637  0.5509 -0.0166 -0.2064
25286SOL    HW180705   7.297   4.746   5.616  0.2408 -0.5057  0.2238
25286SOL    HW280706   7.408   4.659   5.561  0.0335 -0.6659  0.0577
25287SOL     OW80707   9.416   4.061   4.868  0.2903 -0.4298 -0.4973
25287SOL    HW180708   9.358   3.985   4.860  1.2475 -1.3402  0.8172
25287SOL    HW280709   9.361   4.129   4.907 -0.0573 -1.1043  0.2126
25288SOL     OW80710   6.709   3.456   5.783  0.5634 -0.1522 -0.1145
25288SOL    HW180711   6.734   3.483   5.694  0.3309  0.3669 -0.0224
25288SOL    HW280712   6.614   3.454   5.782  0.5453  0.3504  0.2676
25289SOL     OW80713   7.604   6.389   8.497  0.1712  0.4442  0.4869
25289SOL    HW180714   7.534   6.449   8.521 -1.1405 -1.3595  1.4157
25289SOL    HW280715   7.609   6.327   8.570  0.6819 -1.2365 -0.8954
25290SOL     OW80716   7.634   4.539   7.222 -0.2291  0.3674  0.6155
25290SOL    HW180717   7.588   4.556   7.304  0.3440  0.3563  0.9440
25290SOL    HW280718   7.722   4.513   7.249  0.1244  0.8742 -0.0152
25291SOL     OW80719   0.570   4.496   8.376 -0.0529  0.2557  0.1594
25291SOL    HW180720   0.596   4.487   8.468  0.5461 -0.6253 -0.0827
25291SOL    HW280721   0.522   4.416   8.357  0.0212  0.3328 -0.3534
25292SOL     OW80722   8.697   5.329   8.303 -0.7843  0.3316 -0.2788
25292SOL    HW180723   8.679   5.257   8.363 -1.7178  0.7397 -0.0494
25292SOL    HW280724   8.755   5.292   8.237  1.4343  0.2297  1.6010
25293SOL     OW80725   7.203   6.288   6.242 -0.3895  0.2844 -0.2678
25293SOL    HW180726   7.248   6.217   6.195 -0.1967  1.2712 -1.6329
25293SOL    HW280727   7.270   6.324   6.300  0.2841  0.9704 -1.4239
25294SOL     OW80728   9.576   4.975   4.789  0.0424  0.1114  0.1287
25294SOL    HW180729   9.622   4.892   4.805 -1.9842 -1.1425 -0.0844
25294SOL    HW280730   9.624   5.039   4.842  1.7026 -1.1705  0.2817
25295SOL     OW80731   9.697   3.823   6.782 -0.1679  0.5585  0.2015
25295SOL    HW180732   9.713   3.811   6.876 -0.4436 -1.0407  0.0742
25295SOL    HW280733   9.741   3.748   6.742 -2.3550 -0.3006 -0.7096
25296SOL     OW80734   9.547   5.442   5.787 -0.3547  0.0972  0.2401
25296SOL    HW180735   9.601   5.479   5.857  1.0625 -0.2397 -0.6380
25296SOL    HW280736   9.457   5.457   5.816  0.1856  1.4037  1.3718
25297SOL     OW80737   5.122   3.225   6.143 -0.8367 -0.0934 -0.5654
25297SOL    HW180738   5.153   3.243   6.054 -0.1774 -1.0037 -0.5250
25297SOL    HW280739   5.041   3.276   6.150 -0.7207  0.2558 -1.5686
25298SOL     OW80740   8.432   6.062   5.525 -0.7398  0.0750 -0.5721
25298SOL    HW180741   8.443   6.072   5.431 -0.7272 -0.3940 -0.6224
25298SOL    HW280742   8.520   6.072   5.561 -0.3355 -2.1459 -0.8367
25299SOL     OW80743   9.012   5.923   4.769  0.2429 -0.2675  0.1435
25299SOL    HW180744   9.063   5.873   4.832 -0.7798  0.1725  1.3647
25299SOL    HW280745   9.073   5.940   4.697  1.1303 -1.6932  0.5129
25300SOL     OW80746   9.219   2.427   5.927  0.2052  0.2484 -0.2202
25300SOL    HW180747   9.197   2.446   5.836 -0.0305 -1.9174 -0.6730
25300SOL    HW280748   9.292   2.364   5.921 -0.1760 -0.3406  1.0572
25301SOL     OW80749   6.638   5.189   4.798 -0.0119 -0.1452  0.6673
25301SOL    HW180750   6.564   5.160   4.851 -1.3486 -0.4795 -1.2614
25301SOL    HW280751   6.636   5.132   4.721  2.0087  0.1319  0.3510
25302SOL     OW80752   8.151   5.162   8.441 -0.4304  0.2039 -0.3288
25302SOL    HW180753   8.058   5.180   8.460 -0.5349  0.6217 -1.1718
25302SOL    HW280754   8.180   5.240   8.394  0.2945 -0.0352 -0.2818
25303SOL     OW80755   9.303   4.430   4.470 -0.1538  0.3723  0.4842
25303SOL    HW180756   9.245   4.404   4.542  0.6729  1.7284  1.6916
25303SOL    HW280757   9.245   4.443   4.396 -1.3428  1.2145  1.5310
25304SOL     OW80758   7.341   2.422   6.508  0.5440  0.5235 -0.0275
25304SOL    HW180759   7.370   2.500   6.460  1.8678 -0.7669 -1.4588
25304SOL    HW280760   7.302   2.365   6.441 -1.4075  0.3755  1.1730
25305SOL     OW80761   7.159   4.518   5.610 -0.7523  0.1581  0.0945
25305SOL    HW180762   7.099   4.447   5.631  1.7552 -1.6774  1.5250
25305SOL    HW280763   7.230   4.511   5.674  2.3927  0.4330 -3.0258
25306SOL     OW80764   7.438   6.540   9.260 -0.1114  0.6440  0.2013
25306SOL    HW180765   7.406   6.490   9.335  0.9810  0.2083  0.3938
25306SOL    HW280766   7.533   6.534   9.266  0.0043 -0.4376 -1.9072
25307SOL     OW80767   0.713   5.282   7.250 -0.0443  0.0937 -0.1960
25307SOL    HW180768   0.667   5.272   7.167  1.6994  1.1125 -1.3499
25307SOL    HW280769   0.704   5.197   7.294 -1.5126 -0.2585 -1.1214
25308SOL     OW80770   9.255   4.498   6.904 -0.5177 -0.7391 -0.4706
25308SOL    HW180771   9.211   4.415   6.883  0.7644 -1.1696 -1.5974
25308SOL    HW280772   9.191   4.565   6.883 -1.4377 -1.4175  0.0698
25309SOL     OW80773   6.292   6.642   7.512  0.1354 -0.0405 -0.4212
25309SOL    HW180774   6.274   6.561   7.466 -1.3542  0.1616 -0.2400
25309SOL    HW280775   6.256   6.711   7.456 -1.8281  0.2021  1.0108
25310SOL     OW80776   2.604   5.993   6.794 -0.0524  0.4086  0.1317
25310SOL    HW180777   2.620   5.923   6.857  0.2398  0.5038  0.1644
25310SOL    HW280778   2.568   6.065   6.845  0.3519  0.5506  0.2258
25311SOL     OW80779   6.605   5.230   5.920  0.2617 -0.4135  0.2497
25311SOL    HW180780   6.565   5.189   5.843 -0.3131 -0.1089  0.3772
25311SOL    HW280781   6.596   5.163   5.989 -0.8271 -0.0359  0.5014
25312SOL     OW80782   7.912   3.211   8.218 -0.3598 -0.4249  0.0540
25312SOL    HW180783   7.941   3.302   8.213 -0.2450 -0.4440  0.3489
25312SOL    HW280784   7.869   3.195   8.134  0.8587 -0.5414 -0.5634
25313SOL     OW80785   6.735   5.535   5.458 -0.7203  0.1093 -0.2354
25313SOL    HW180786   6.820   5.506   5.426 -1.4942  0.1033 -2.4240
25313SOL    HW280787   6.680   5.457   5.455 -1.0946  0.3471  0.1925
25314SOL     OW80788   8.383   5.166   5.842 -0.4025  0.0867 -0.3469
25314SOL    HW180789   8.477   5.166   5.857 -0.3800  0.6418 -0.4609
25314SOL    HW280790   8.348   5.107   5.908  0.1021 -0.8019 -0.8528
25315SOL     OW80791   9.202   3.662   6.557  0.3017 -0.2666 -0.0984
25315SOL    HW180792   9.203   3.567   6.545 -1.1369 -0.0986 -1.9211
25315SOL    HW280793   9.292   3.683   6.584  0.8728 -2.0475 -0.4707
25316SOL     OW80794   6.957   4.259   6.822  0.0820  0.1615  0.1292
25316SOL    HW180795   7.016   4.252   6.748  0.5453 -0.4414  0.5448
25316SOL    HW280796   6.988   4.193   6.884  0.0355  1.0370  1.0971
25317SOL     OW80797   7.004   4.694   7.523 -0.7081 -0.3102  0.0921
25317SOL    HW180798   6.913   4.711   7.548 -0.4771  1.1420 -0.0093
25317SOL    HW280799   7.009   4.717   7.430 -0.0252  0.4998  0.3186
25318SOL     OW80800   9.319   3.080   7.278  0.3256 -0.1881  0.2219
25318SOL    HW180801   9.254   3.149   7.268  0.9088  0.0541 -2.8592
25318SOL    HW280802   9.403   3.126   7.271  0.7868 -0.8976  0.9382
25319SOL     OW80803   6.942   5.301   5.639  0.6858  0.5248  0.7209
25319SOL    HW180804   6.996   5.377   5.658 -1.3668  2.9099 -1.9959
25319SOL    HW280805   6.852   5.334   5.641 -0.2926 -1.7445 -0.7662
25320SOL     OW80806   8.685   4.648   7.497 -0.1058  0.0875 -0.7560
25320SOL    HW180807   8.682   4.558   7.464  0.2262  0.4312 -1.7739
25320SOL    HW280808   8.712   4.700   7.421  1.4002  0.8387  0.2597
25321SOL     OW80809   8.820   2.750   6.869 -0.1430 -0.4610 -0.1713
25321SOL    HW180810   8.823   2.663   6.830 -0.9485 -0.0835 -1.1346
25321SOL    HW280811   8.885   2.801   6.821  0.5334 -0.5949  0.5859
25322SOL     OW80812   8.379   7.330   6.618  0.2365  0.1458  0.3008
25322SOL    HW180813   8.310   7.391   6.592 -1.0325 -1.6725 -0.8104
25322SOL    HW280814   8.449   7.344   6.554  0.7592  1.6806  1.1627
25323SOL     OW80815   6.893   5.127   6.623  0.0222  0.2822 -0.0544
25323SOL    HW180816   6.926   5.037   6.623 -1.3055 -0.2383 -1.0340
25323SOL    HW280817   6.960   5.177   6.576  0.4469 -0.3289 -0.1146
25324SOL     OW80818   8.440   3.788   5.153 -0.0393  0.5140 -0.0233
25324SOL    HW180819   8.467   3.736   5.229  1.3258  1.3400  0.0867
25324SOL    HW280820   8.463   3.878   5.176 -0.2902  0.8766 -1.1250
25325SOL     OW80821   6.604   5.343   8.341 -0.2050  0.2902  0.1557
25325SOL    HW180822   6.654   5.353   8.422 -0.8098 -0.9406  0.6936
25325SOL    HW280823   6.574   5.432   8.320  1.3407  0.9015  0.3559
25326SOL     OW80824   6.723   6.395   7.407 -0.9954  0.0603 -0.1723
25326SOL    HW180825   6.788   6.415   7.474 -1.1684  2.7107 -0.7105
25326SOL    HW280826   6.761   6.322   7.358  0.6730  0.2920  0.7045
25327SOL     OW80827   8.236   5.919   6.570 -0.6990  0.2098 -0.0272
25327SOL    HW180828   8.155   5.889   6.610 -1.1784 -1.1693 -1.8791
25327SOL    HW280829   8.304   5.893   6.632 -1.5360 -0.2937  0.7001
25328SOL     OW80830   8.918   4.155   6.654  0.1649  0.2657 -0.1854
25328SOL    HW180831   8.843   4.190   6.606  0.7719  0.5946 -0.9133
25328SOL    HW280832   8.970   4.109   6.588 -0.4729 -1.8247  0.6889
25329SOL     OW80833   0.474   5.587   5.361  0.0445 -0.0869 -0.8468
25329SOL    HW180834   0.407   5.520   5.359  1.7400 -1.9100  0.3681
25329SOL    HW280835   0.547   5.550   5.311  0.5146  1.4603 -1.3723
25330SOL     OW80836   0.019   5.161   4.737 -0.2276  0.2069  0.4677
25330SOL    HW180837  -0.021   5.138   4.822  0.9281 -1.6987  0.5706
25330SOL    HW280838   0.068   5.242   4.754  0.2091 -0.2924  1.7283
25331SOL     OW80839   7.805   3.276   7.173  0.8057  0.0246 -0.4220
25331SOL    HW180840   7.834   3.359   7.135 -0.0635  0.3114 -0.4692
25331SOL    HW280841   7.829   3.283   7.266  1.4844 -0.0220 -0.5888
25332SOL     OW80842   6.006   4.136   7.764 -0.4539  0.2861  0.1679
25332SOL    HW180843   6.003   4.083   7.684  0.8394  0.6301 -0.1289
25332SOL    HW280844   5.921   4.181   7.766  0.1287  1.6505 -2.0037
25333SOL     OW80845   7.859   4.505   4.674  0.1043  0.2297 -0.0101
25333SOL    HW180846   7.942   4.541   4.642  1.0760 -1.4611  0.5283
25333SOL    HW280847   7.884   4.439   4.738 -1.6982  0.3392  0.8596
25334SOL     OW80848   9.730   3.549   7.102 -0.5744  0.1935  0.0131
25334SOL    HW180849   9.736   3.569   7.195 -1.9178 -0.6352  0.3057
25334SOL    HW280850   9.725   3.635   7.060  0.0010  0.5738  0.6986
25335SOL     OW80851   0.443   3.823   4.952 -0.2896 -0.1967 -0.0137
25335SOL    HW180852   0.398   3.897   4.911 -0.7263  0.0522  0.8695
25335SOL    HW280853   0.386   3.799   5.026  0.4307 -0.6620  0.4007
25336SOL     OW80854   0.208   4.084   4.417 -0.2444  0.3611  0.3011
25336SOL    HW180855   0.205   4.081   4.513 -0.5082  1.8278  0.3629
25336SOL    HW280856   0.259   4.163   4.397  1.4849 -0.9524 -0.7863
25337SOL     OW80857   0.135   3.658   5.514  0.0099  0.0129  0.1759
25337SOL    HW180858   0.124   3.718   5.441 -2.0619 -0.2446  0.2250
25337SOL    HW280859   0.099   3.575   5.483 -0.4958 -0.2165  1.3284
25338SOL     OW80860   7.016   4.115   8.906 -0.1379 -0.3790  0.3388
25338SOL    HW180861   7.061   4.097   8.823  1.6587 -1.9795  1.6107
25338SOL    HW280862   7.013   4.211   8.910 -1.6308 -0.1977 -2.2184
25339SOL     OW80863   8.685   6.974   4.715 -0.1279  0.4462  0.1014
25339SOL    HW180864   8.749   6.975   4.644  0.4463 -0.8377  0.5633
25339SOL    HW280865   8.735   6.944   4.791 -1.1287  0.0252  0.6132
25340SOL     OW80866   8.651   6.316   8.548 -0.0965 -0.1908 -0.0769
25340SOL    HW180867   8.737   6.314   8.590  0.1859  1.9604 -0.4707
25340SOL    HW280868   8.589   6.318   8.620  0.1374 -1.7239  0.2106
25341SOL     OW80869   8.905   3.838   6.141  0.5639 -0.0893 -0.3328
25341SOL    HW180870   8.932   3.755   6.101 -0.4516 -0.2680 -0.6717
25341SOL    HW280871   8.941   3.834   6.230 -1.4416 -1.9928  0.5028
25342SOL     OW80872   8.219   3.649   3.692 -0.1104 -0.0076 -0.3687
25342SOL    HW180873   8.226   3.739   3.722 -0.3308  0.5010 -1.7705
25342SOL    HW280874   8.187   3.601   3.768  0.8227  0.9245  0.6508
25343SOL     OW80875   0.684   3.068   8.341 -0.3651 -0.3023  0.3622
25343SOL    HW180876   0.684   3.085   8.435 -1.3504  1.4249  0.1001
25343SOL    HW280877   0.605   3.015   8.326  1.0295 -2.6353  0.7605
25344SOL     OW80878   9.846   4.729   7.541 -0.2972 -0.2137  0.0687
25344SOL    HW180879   9.863   4.675   7.464 -1.4466  2.0585 -1.9276
25344SOL    HW280880   9.932   4.761   7.568  0.2684 -2.0484  0.6151
25345SOL     OW80881   6.776   7.013   8.282  1.0511 -0.7954 -0.0488
25345SOL    HW180882   6.695   7.038   8.326  0.0835 -1.0935 -1.5875
25345SOL    HW280883   6.842   7.013   8.352 -0.0872  0.2403  1.0885
25346SOL     OW80884   7.800   2.430   7.354 -0.0075  0.6657  0.1218
25346SOL    HW180885   7.889   2.463   7.370  0.0419  1.0575 -0.8655
25346SOL    HW280886   7.800   2.405   7.262 -0.7836  0.2080  0.2382
25347SOL     OW80887   6.494   2.800   5.602 -0.2931  0.1560 -0.1066
25347SOL    HW180888   6.512   2.883   5.645 -1.4367  0.3380  0.0694
25347SOL    HW280889   6.567   2.787   5.542  1.1430  0.0976  1.5568
25348SOL     OW80890   7.488   5.434   6.523 -0.2606 -0.1601  0.2780
25348SOL    HW180891   7.495   5.405   6.614  2.5259 -1.1137 -0.1525
25348SOL    HW280892   7.514   5.358   6.471 -2.3616  0.1729 -1.4041
25349SOL     OW80893   7.985   3.992   4.987 -0.3793 -0.1068 -0.2652
25349SOL    HW180894   7.936   3.912   5.008  2.2228 -2.6573 -2.9246
25349SOL    HW280895   8.060   3.989   5.046  0.4934 -0.5366 -1.3513
25350SOL     OW80896   8.317   2.665   6.992 -0.5144 -0.0359  0.3100
25350SOL    HW180897   8.284   2.713   6.916 -0.5562 -0.2764  0.1776
25350SOL    HW280898   8.410   2.685   6.994 -0.0981 -1.6653 -1.0113
25351SOL     OW80899   6.437   6.163   7.250 -0.0184  0.1125 -0.4249
25351SOL    HW180900   6.428   6.068   7.259  1.8232  0.0087  0.7176
25351SOL    HW280901   6.496   6.176   7.176  1.1990  0.2722  0.5445
25352SOL     OW80902   7.037   3.671   5.288  1.2035 -0.1109  0.2214
25352SOL    HW180903   7.064   3.580   5.292 -0.6915 -0.7275  0.1484
25352SOL    HW280904   7.020   3.688   5.196 -0.6239 -0.4300  0.4524
25353SOL     OW80905   6.261   5.429   7.081 -0.5851 -0.0135 -0.4219
25353SOL    HW180906   6.240   5.520   7.059 -0.7826  0.3216  1.0711
25353SOL    HW280907   6.199   5.377   7.030 -1.7313  0.7732  0.1255
25354SOL     OW80908   9.756   4.545   5.192 -0.2263 -0.5540  0.1197
25354SOL    HW180909   9.767   4.623   5.246  2.2797  0.2767 -1.4006
25354SOL    HW280910   9.840   4.498   5.202 -1.3925 -2.7108  0.4116
25355SOL     OW80911   7.766   5.055   5.109 -0.3175  0.1200 -0.3788
25355SOL    HW180912   7.744   4.974   5.064 -0.1729  0.3146 -0.8105
25355SOL    HW280913   7.803   5.027   5.193  1.2553 -0.3377 -1.1697
25356SOL     OW80914   7.754   1.993   8.702 -0.7770 -0.5645 -0.6295
25356SOL    HW180915   7.718   1.972   8.787  0.6004  0.4762  0.2582
25356SOL    HW280916   7.745   1.913   8.651  1.3098 -2.3040  1.5413
25357SOL     OW80917   9.176   5.442   5.147 -0.1122  0.2456 -0.0274
25357SOL    HW180918   9.171   5.352   5.178 -0.8974  0.2147 -0.2164
25357SOL    HW280919   9.114   5.490   5.203  2.7076  1.3830  2.3736
25358SOL     OW80920   9.317   4.860   6.393 -0.0330  0.1425 -0.2234
25358SOL    HW180921   9.319   4.870   6.297  0.1665 -0.7622 -0.3192
25358SOL    HW280922   9.406   4.881   6.421 -0.2257  0.9295 -0.1719
25359SOL     OW80923   8.855   3.450   4.680  0.0067  0.4338 -0.3257
25359SOL    HW180924   8.839   3.435   4.774 -1.2874  0.5794 -0.5101
25359SOL    HW280925   8.820   3.537   4.663 -1.0301 -0.1425 -1.2333
25360SOL     OW80926   7.404   4.240   4.524  0.4508 -0.0082 -0.2472
25360SOL    HW180927   7.382   4.160   4.571 -0.0920  0.4113  0.2205
25360SOL    HW280928   7.352   4.308   4.566  1.1534  0.6510 -0.4230
25361SOL     OW80929   8.598   3.387   6.812  0.1880  0.1247 -1.0143
25361SOL    HW180930   8.612   3.318   6.747  0.9442 -1.9951  1.2447
25361SOL    HW280931   8.675   3.382   6.868  0.0741  2.6204 -0.5363
25362SOL     OW80932   7.292   7.143   4.978  0.0226 -0.5207  0.3197
25362SOL    HW180933   7.382   7.167   4.958  0.3695 -0.7714  1.4893
25362SOL    HW280934   7.276   7.181   5.065 -1.1126 -0.1930 -0.0148
25363SOL     OW80935   1.052   6.785   6.131  0.0131  0.1394 -0.4103
25363SOL    HW180936   1.085   6.871   6.107 -0.3113  0.3839  0.0176
25363SOL    HW280937   1.130   6.730   6.135  0.4406  0.8029  0.9774
25364SOL     OW80938   8.470   3.620   4.293 -0.2268  0.2156  0.4435
25364SOL    HW180939   8.404   3.611   4.363  1.7842 -0.8179  2.3111
25364SOL    HW280940   8.450   3.549   4.232 -1.0162  0.1063  0.8081
25365SOL     OW80941   5.592   4.130   7.235  0.1255  0.3224  0.3662
25365SOL    HW180942   5.548   4.077   7.169 -0.5973  1.8068 -0.3909
25365SOL    HW280943   5.545   4.214   7.234  2.8963  2.0132 -0.4964
25366SOL     OW80944   6.555   6.972   7.421  0.5977 -0.0217 -0.2985
25366SOL    HW180945   6.549   6.888   7.466 -0.8254 -0.2962 -0.9359
25366SOL    HW280946   6.469   6.984   7.382  1.3729  0.8344 -1.8375
25367SOL     OW80947   6.875   6.718   6.744  0.0605  0.0593 -0.5978
25367SOL    HW180948   6.785   6.715   6.713 -0.4250 -2.0980  0.7508
25367SOL    HW280949   6.928   6.727   6.665 -1.3121  1.9697 -1.3707
25368SOL     OW80950   9.424   3.216   5.998 -0.5523 -0.0074  0.0812
25368SOL    HW180951   9.342   3.265   6.005  0.8806  2.4274  1.2746
25368SOL    HW280952   9.485   3.264   6.053  1.4930 -2.2064 -0.1095
25369SOL     OW80953   8.619   4.299   8.177 -0.0334  0.8138  0.5678
25369SOL    HW180954   8.691   4.245   8.211  0.0726 -0.6623 -1.7905
25369SOL    HW280955   8.663   4.375   8.140  0.5024 -0.5288 -1.7157
25370SOL     OW80956   8.126   4.346   5.551 -0.0880  0.2317  0.1208
25370SOL    HW180957   8.070   4.269   5.536  1.4928 -0.7372 -1.0972
25370SOL    HW280958   8.145   4.343   5.645 -1.3808  0.1021  0.3966
25371SOL     OW80959   7.575   4.686   7.467 -0.2504 -0.6912  0.0602
25371SOL    HW180960   7.488   4.672   7.505 -0.2715  0.1990  0.3770
25371SOL    HW280961   7.630   4.709   7.542  0.2272 -1.1041 -0.1594
25372SOL     OW80962   8.331   3.695   6.674  0.1113 -0.4366 -0.4960
25372SOL    HW180963   8.357   3.624   6.616 -0.9817 -0.2247 -1.2807
25372SOL    HW280964   8.244   3.670   6.706  0.1628  0.0521  0.0372
25373SOL     OW80965   9.296   4.152   6.543 -0.2395  1.3338 -0.7912
25373SOL    HW180966   9.339   4.174   6.460  1.2001 -0.4068 -0.5649
25373SOL    HW280967   9.334   4.213   6.606 -0.9076  2.2766 -1.2773
25374SOL     OW80968   6.526   4.044   5.905  0.0029  0.2674  0.1860
25374SOL    HW180969   6.555   3.999   5.984  0.3987  0.6763  0.2769
25374SOL    HW280970   6.444   4.001   5.882  1.6021 -2.3271 -1.2246
25375SOL     OW80971   8.602   4.637   6.821 -0.6499 -0.1856  0.3585
25375SOL    HW180972   8.589   4.728   6.795  1.4553  0.3365  0.8907
25375SOL    HW280973   8.553   4.628   6.903 -3.9116 -0.6617 -1.4952
25376SOL     OW80974   9.158   3.410   6.924 -0.1031 -0.4358 -0.3035
25376SOL    HW180975   9.115   3.495   6.935  1.9946  0.5582  1.0242
25376SOL    HW280976   9.130   3.379   6.838 -0.1095  2.1335 -1.3175
25377SOL     OW80977   8.761   3.526   5.158 -0.1694  0.0701  0.0168
25377SOL    HW180978   8.747   3.610   5.202 -3.1709 -0.2918 -0.0805
25377SOL    HW280979   8.709   3.463   5.208  0.5739 -1.4132 -0.9829
25378SOL     OW80980   9.135   3.312   5.213 -0.1634  0.6613  0.1236
25378SOL    HW180981   9.114   3.261   5.134 -0.7301  0.4074  0.4359
25378SOL    HW280982   9.222   3.280   5.239 -1.2948 -1.5909  1.4367
25379SOL     OW80983   7.449   4.375   5.410 -0.5027  0.5496  0.0020
25379SOL    HW180984   7.490   4.291   5.390  2.3376  1.6644  0.7018
25379SOL    HW280985   7.457   4.383   5.505 -0.5995  1.6770 -0.0803
25380SOL     OW80986   9.029   2.445   9.602  0.3544 -0.6696 -0.1378
25380SOL    HW180987   9.101   2.507   9.605  2.1744 -2.6821  1.9834
25380SOL    HW280988   8.953   2.494   9.632  1.9845  0.3203  2.7125
25381SOL     OW80989   0.823   4.199   7.126 -0.2789 -0.1873 -0.2613
25381SOL    HW180990   0.821   4.280   7.177 -1.5192 -0.0870 -0.4302
25381SOL    HW280991   0.856   4.133   7.188 -1.4188  0.0025  0.5971
25382SOL     OW80992   9.274   3.467   8.544  0.4211 -0.3619 -0.1436
25382SOL    HW180993   9.301   3.487   8.634  0.3255  0.1563 -0.2228
25382SOL    HW280994   9.182   3.441   8.551  0.1311  0.6108 -0.1951
25383SOL     OW80995   7.641   6.777   9.100  0.3831 -0.0244  0.0531
25383SOL    HW180996   7.557   6.820   9.116  0.3377 -0.5523  1.3357
25383SOL    HW280997   7.695   6.801   9.174  0.7544 -1.1652  0.1658
25384SOL     OW80998   7.725   6.576   6.763 -0.1477 -0.1562  0.1379
25384SOL    HW180999   7.698   6.492   6.800  2.2924 -1.5535 -1.0145
25384SOL    HW281000   7.773   6.619   6.834 -0.0443 -0.4527  0.2513
25385SOL     OW81001   8.330   3.357   4.626 -0.0575  0.2305  0.3322
25385SOL    HW181002   8.378   3.301   4.687 -0.4617 -0.6057 -0.1125
25385SOL    HW281003   8.374   3.442   4.632 -0.5709  0.4071  2.3922
25386SOL     OW81004   7.969   4.586   6.622 -0.0791  0.4544  0.5380
25386SOL    HW181005   8.029   4.626   6.560 -0.0624 -1.9673 -1.1163
25386SOL    HW281006   7.887   4.634   6.609  0.1254  0.4793 -0.8326
25387SOL     OW81007   5.020   3.909   6.635  0.1360 -0.2828  0.1351
25387SOL    HW181008   4.934   3.947   6.616  0.2217  0.3904  1.0151
25387SOL    HW281009   5.065   3.909   6.550 -1.2920 -2.1950 -0.6898
25388SOL     OW81010   9.685   2.443   6.910 -0.3036 -0.5244  0.0706
25388SOL    HW181011   9.664   2.534   6.933 -2.5326 -1.1914  0.9908
25388SOL    HW281012   9.717   2.448   6.820 -2.6776  1.0034 -0.8064
25389SOL     OW81013   5.950   1.757   7.965  0.2789 -0.7134  0.1795
25389SOL    HW181014   5.893   1.700   8.017  0.5966 -2.1743 -1.0109
25389SOL    HW281015   6.024   1.702   7.940  2.0604  1.0307  1.3285
25390SOL     OW81016   9.447   3.149   5.396  0.0777 -0.2968 -0.1029
25390SOL    HW181017   9.530   3.134   5.352 -0.1490 -0.1646 -0.5801
25390SOL    HW281018   9.428   3.242   5.382  0.1863 -0.1670  0.5910
25391SOL     OW81019   7.701   4.446   9.176  0.1460  0.3806 -0.1648
25391SOL    HW181020   7.690   4.525   9.123  1.3648  0.8764  0.2915
25391SOL    HW281021   7.644   4.382   9.134 -1.6803  1.7645  0.0642
25392SOL     OW81022   8.410   6.577   7.751 -0.6508  0.1235  0.0943
25392SOL    HW181023   8.381   6.486   7.762 -2.4528  0.7474  0.9625
25392SOL    HW281024   8.505   6.572   7.754 -0.7064 -1.7394  0.1002
25393SOL     OW81025   7.176   4.167   5.427 -0.6094 -0.3806 -0.5497
25393SOL    HW181026   7.123   4.246   5.431  0.8548  0.7429 -2.1851
25393SOL    HW281027   7.185   4.149   5.333  1.9565 -0.4523 -0.3520
25394SOL     OW81028   6.135   3.240   5.297  0.1088  0.4104 -0.4603
25394SOL    HW181029   6.119   3.167   5.356  0.2187 -1.8049 -2.9535
25394SOL    HW281030   6.195   3.297   5.344 -0.5864 -0.6710  1.8972
25395SOL     OW81031   8.498   5.544   6.821 -0.1457  1.4120  0.2499
25395SOL    HW181032   8.485   5.619   6.763  2.2755  1.2023 -0.6928
25395SOL    HW281033   8.410   5.512   6.839 -1.1250  3.1455 -1.0965
25396SOL     OW81034   5.011   1.501   4.271  0.4827  0.0552 -0.2072
25396SOL    HW181035   5.046   1.557   4.202 -2.3085  0.1668 -1.6564
25396SOL    HW281036   5.009   1.413   4.232 -1.1994  0.1339 -0.3822
25397SOL     OW81037   7.824   3.617   5.700 -0.3107  0.0886 -0.0290
25397SOL    HW181038   7.903   3.574   5.666 -0.0290  0.1713  0.5157
25397SOL    HW281039   7.806   3.573   5.782 -1.8744 -1.1325 -0.9741
25398SOL     OW81040   9.101   4.463   6.635  0.9796 -0.0411  0.6042
25398SOL    HW181041   9.099   4.400   6.707  0.5491  0.0993  0.7163
25398SOL    HW281042   9.010   4.492   6.626  0.6145 -1.6584 -1.4315
25399SOL     OW81043   9.562   7.442   6.552  0.4758  0.5509  0.2407
25399SOL    HW181044   9.540   7.420   6.462  1.9596  0.8083 -0.2077
25399SOL    HW281045   9.557   7.359   6.599  0.2790  0.3150 -0.1983
25400SOL     OW81046   7.654   5.423   4.246 -0.2948 -0.3677 -0.1479
25400SOL    HW181047   7.618   5.394   4.163 -0.1364  0.5270 -0.5382
25400SOL    HW281048   7.710   5.351   4.275  1.0987  0.0237 -1.7192
25401SOL     OW81049   6.736   5.769   5.253 -0.4035 -0.0765 -0.6072
25401SOL    HW181050   6.718   5.692   5.306 -2.5908 -0.0099 -1.1513
25401SOL    HW281051   6.831   5.778   5.254 -0.3024 -0.4916  2.6582
25402SOL     OW81052   8.274   5.032   6.293  0.2358  0.2833 -0.4989
25402SOL    HW181053   8.277   4.938   6.305 -1.7662  0.4486  2.2246
25402SOL    HW281054   8.359   5.055   6.256  1.7008 -2.2803  1.0440
25403SOL     OW81055   8.832   3.216   9.296  0.0555  0.0068 -0.2706
25403SOL    HW181056   8.895   3.149   9.269  1.1475  0.8991 -0.0326
25403SOL    HW281057   8.851   3.231   9.389 -1.8368 -1.0869  0.3364
25404SOL     OW81058   3.003   4.940   8.775  0.3077  0.0967  0.3516
25404SOL    HW181059   2.958   4.856   8.773  3.5071 -1.7883  1.4217
25404SOL    HW281060   3.045   4.947   8.689  0.8418  0.1090  0.6102
25405SOL     OW81061   7.927   4.821   7.270 -0.0062  0.0239  0.5596
25405SOL    HW181062   8.022   4.822   7.284  0.6901 -2.1065 -2.7751
25405SOL    HW281063   7.905   4.728   7.271 -1.6624  0.3643 -0.6148
25406SOL     OW81064   7.248   5.166   5.608  0.2431 -0.2221 -0.3755
25406SOL    HW181065   7.278   5.252   5.639  1.3996 -0.0800 -1.7578
25406SOL    HW281066   7.153   5.171   5.612  0.3149  0.4990  1.1716
25407SOL     OW81067   8.411   4.817   8.062 -0.1570  0.0986 -0.4641
25407SOL    HW181068   8.482   4.878   8.039  0.1152  1.0725  2.5667
25407SOL    HW281069   8.456   4.735   8.084  0.1192  0.7297  1.5013
25408SOL     OW81070   6.755   2.021   8.740 -1.1075 -0.0014 -0.0030
25408SOL    HW181071   6.669   2.052   8.711 -1.6997  0.2161  1.8864
25408SOL    HW281072   6.751   1.926   8.728 -2.2828 -0.2012  1.6322
25409SOL     OW81073   7.773   7.284   5.569 -0.2012  0.1995 -0.3636
25409SOL    HW181074   7.868   7.286   5.557 -0.0096 -0.8064  0.7782
25409SOL    HW281075   7.742   7.226   5.499  0.1134 -0.0682 -0.2854
25410SOL     OW81076   6.287   5.284   6.379  0.3779  0.6194 -0.4188
25410SOL    HW181077   6.233   5.259   6.303  1.2619 -0.0379 -0.8592
25410SOL    HW281078   6.226   5.282   6.453 -0.2204 -0.0393 -0.9049
25411SOL     OW81079   8.768   6.112   6.186 -0.2504  0.1590 -0.1393
25411SOL    HW181080   8.832   6.180   6.165 -0.1515  0.3987  0.8525
25411SOL    HW281081   8.765   6.056   6.108  1.1758  0.1356 -0.2098
25412SOL     OW81082   8.183   4.873   5.308 -0.2614  0.1124 -0.7756
25412SOL    HW181083   8.165   4.931   5.235 -3.0989 -2.3703 -2.2865
25412SOL    HW281084   8.145   4.789   5.282 -2.2437 -0.7626  3.8067
25413SOL     OW81085   8.977   5.877   7.936  0.3065 -0.3852  0.0433
25413SOL    HW181086   9.018   5.932   7.869 -0.0410  0.3969  0.4507
25413SOL    HW281087   9.021   5.903   8.017  0.7316 -1.3308  0.1235
25414SOL     OW81088   9.427   7.530   6.772  0.3117  0.4534  0.5071
25414SOL    HW181089   9.483   7.517   6.695 -2.4673 -0.5718 -1.5003
25414SOL    HW281090   9.384   7.614   6.755 -2.0815 -0.8552 -0.3851
25415SOL     OW81091   8.107   3.835   5.182 -0.4243 -0.3862 -0.6108
25415SOL    HW181092   8.101   3.919   5.229  1.3376  0.4536 -1.8090
25415SOL    HW281093   8.029   3.787   5.210  0.4619  0.0342  3.1949
25416SOL     OW81094   8.452   6.210   7.492 -0.5382 -0.3140 -0.3591
25416SOL    HW181095   8.465   6.246   7.580  0.0425  0.4127 -0.7254
25416SOL    HW281096   8.488   6.121   7.496  1.6332  0.5006 -0.4460
25417SOL     OW81097   7.669   6.241   6.283 -0.0856  0.4078 -0.4465
25417SOL    HW181098   7.588   6.284   6.311 -1.7677 -2.4550 -0.5565
25417SOL    HW281099   7.655   6.220   6.191  1.5827  1.4873 -0.9823
25418SOL     OW81100   0.088   5.204   5.574  0.0932  0.1952 -0.0173
25418SOL    HW181101   0.040   5.128   5.608  0.5235 -2.2461 -4.2009
25418SOL    HW281102   0.027   5.245   5.512  0.4775  2.4399  0.9735
25419SOL     OW81103   6.519   7.641   8.541 -0.6361  0.2320 -0.1651
25419SOL    HW181104   6.442   7.584   8.535 -0.2443 -0.4473  0.9147
25419SOL    HW281105   6.485   7.729   8.524 -1.1886 -0.3288 -2.2801
25420SOL     OW81106   8.411   4.844   4.454  0.2746  0.0855  0.1459
25420SOL    HW181107   8.487   4.803   4.412 -0.7597 -0.1331 -1.6078
25420SOL    HW281108   8.348   4.772   4.464 -0.1042  0.4746  0.6220
25421SOL     OW81109   9.084   3.895   6.818  0.3515  0.5078 -0.1540
25421SOL    HW181110   9.040   3.822   6.861  1.3004  0.2385  0.3947
25421SOL    HW281111   9.062   3.885   6.725 -0.5506  0.2601  0.0792
25422SOL     OW81112   8.715   4.276   5.516 -0.7815  0.8810 -0.0031
25422SOL    HW181113   8.767   4.201   5.544 -0.1344  1.2010 -0.3194
25422SOL    HW281114   8.728   4.341   5.584  0.6457  1.5915 -0.8925
25423SOL     OW81115   8.795   4.718   5.444  0.5663 -0.2715 -0.5509
25423SOL    HW181116   8.718   4.662   5.436  0.9443 -0.8009 -0.5385
25423SOL    HW281117   8.850   4.674   5.510 -0.2090  1.3586  1.2634
25424SOL     OW81118   6.347   4.902   5.652 -0.8617  0.1930  0.2508
25424SOL    HW181119   6.379   4.934   5.567 -0.5462  0.9856  0.6634
25424SOL    HW281120   6.333   4.808   5.638 -0.1620  0.1863 -0.4816
25425SOL     OW81121   8.394   3.880   4.570  0.4682 -0.2767 -0.1999
25425SOL    HW181122   8.466   3.885   4.633 -0.1857  1.3606  0.4699
25425SOL    HW281123   8.434   3.904   4.487  0.9687 -0.7002 -0.0907
25426SOL     OW81124   8.652   6.238   5.905 -0.3182 -0.1918  1.2047
25426SOL    HW181125   8.556   6.233   5.906 -0.3031 -0.9491  0.3137
25426SOL    HW281126   8.671   6.330   5.923 -1.3772  0.8537 -2.1248
25427SOL     OW81127   7.764   4.543   6.966 -0.4968 -0.5908 -0.1110
25427SOL    HW181128   7.845   4.594   6.968 -0.5148 -0.3817 -2.3022
25427SOL    HW281129   7.738   4.537   7.058  2.7897 -1.9810  0.8928
25428SOL     OW81130   7.613   5.178   5.787  0.1872 -0.3917 -0.2585
25428SOL    HW181131   7.576   5.096   5.753  0.4322 -0.8807  0.6347
25428SOL    HW281132   7.573   5.246   5.733 -0.8324 -1.0205 -0.3117
25429SOL     OW81133   9.597   4.819   6.407 -0.0325 -0.1606 -0.4228
25429SOL    HW181134   9.623   4.753   6.472  1.5274  0.0266 -0.8074
25429SOL    HW281135   9.603   4.774   6.323  0.6940  0.3496 -0.6561
25430SOL     OW81136   8.239   5.279   0.326 -0.9612 -0.3811 -0.2184
25430SOL    HW181137   8.266   5.199   0.279  1.0977  1.7498 -3.0379
25430SOL    HW281138   8.321   5.317   0.356 -1.6856  1.5856 -0.6154
25431SOL     OW81139   9.062   5.811   6.998 -0.2256  0.5147 -0.1807
25431SOL    HW181140   9.114   5.732   7.018 -0.2862  0.1401 -1.4449
25431SOL    HW281141   9.127   5.882   6.997 -0.2330  0.5950  1.4165
25432SOL     OW81142   7.392   5.403   5.602 -0.1003  0.4388  0.0576
25432SOL    HW181143   7.477   5.416   5.561  0.5425  1.3422  1.6075
25432SOL    HW281144   7.388   5.467   5.673 -0.8007 -1.5471  1.9511
25433SOL     OW81145   8.449   4.922   7.447  0.0564 -0.5502 -0.1111
25433SOL    HW181146   8.512   4.959   7.510 -1.0091  0.6689  0.2964
25433SOL    HW281147   8.421   4.840   7.487 -0.0581 -0.1461  0.6744
25434SOL     OW81148   8.938   6.028   7.076  0.0883  0.0988 -0.5542
25434SOL    HW181149   9.021   6.071   7.055  0.3097  0.3067  0.6601
25434SOL    HW281150   8.958   5.935   7.076  1.1113  0.2013  2.5665
25435SOL     OW81151   9.265   0.279   9.124  0.0704 -0.2255 -0.1905
25435SOL    HW181152   9.319   0.204   9.150  0.5382  0.6952  1.7232
25435SOL    HW281153   9.314   0.355   9.154 -0.7011  0.8279 -1.5050
25436SOL     OW81154   6.425   7.672   4.442  0.3638 -0.6295 -0.6773
25436SOL    HW181155   6.333   7.696   4.452  0.6093 -0.1872  0.7804
25436SOL    HW281156   6.447   7.624   4.523  1.9317  1.0914  0.0022
25437SOL     OW81157   9.014   5.406   7.011 -0.6603 -0.0159 -0.1917
25437SOL    HW181158   9.078   5.477   7.007 -1.6985  0.8715 -1.6037
25437SOL    HW281159   9.066   5.326   7.000  0.2247  0.6841 -1.2196
25438SOL     OW81160   8.909   7.055   7.807  0.1369 -0.3013 -0.3601
25438SOL    HW181161   8.840   7.114   7.776  1.1726  0.6417 -0.9293
25438SOL    HW281162   8.927   6.999   7.731  0.4791 -0.0840 -0.4389
25439SOL     OW81163   6.314   3.443   5.349  0.1081  0.2295 -0.1270
25439SOL    HW181164   6.326   3.516   5.409  0.1382  1.0974 -1.1621
25439SOL    HW281165   6.398   3.433   5.304 -0.8266  1.8249 -2.4298
25440SOL     OW81166   6.990   4.781   7.254 -0.3114 -0.2364  0.8611
25440SOL    HW181167   6.940   4.723   7.197 -0.8765 -0.1148  1.2205
25440SOL    HW281168   7.080   4.775   7.222 -0.4030 -1.1370  0.7572
25441SOL     OW81169   7.732   4.766   6.746  0.1724  0.4592  0.4624
25441SOL    HW181170   7.697   4.723   6.824  0.9392 -3.3432 -1.0791
25441SOL    HW281171   7.813   4.807   6.775  0.9367 -1.6948  1.5668
25442SOL     OW81172   0.146   4.170   6.577  0.0986 -0.1176  0.2975
25442SOL    HW181173   0.171   4.174   6.484  1.4330  3.5298  0.6314
25442SOL    HW281174   0.061   4.125   6.576  0.6651 -1.3884 -2.4912
25443SOL     OW81175   6.457   4.366   5.389  0.2214  0.2782  0.0151
25443SOL    HW181176   6.492   4.326   5.469 -1.2380  0.4107  0.7544
25443SOL    HW281177   6.364   4.344   5.390 -0.4039  2.6435 -0.1716
25444SOL     OW81178   8.713   5.803   5.409  0.3229 -0.1497  0.0676
25444SOL    HW181179   8.715   5.858   5.330 -1.5880 -1.3544 -0.9090
25444SOL    HW281180   8.777   5.843   5.468 -0.6435  2.8532 -0.7402
25445SOL     OW81181   7.261   3.106   5.885  0.5490 -0.3015 -0.1631
25445SOL    HW181182   7.344   3.086   5.842  1.3976  1.8482  0.3541
25445SOL    HW281183   7.251   3.038   5.952  1.2350 -1.3199 -1.0696
25446SOL     OW81184   8.572   4.222   5.921  0.5743  0.1673 -0.4368
25446SOL    HW181185   8.624   4.143   5.903  1.0006  0.5389 -0.8539
25446SOL    HW281186   8.483   4.197   5.897  0.8088  0.0061 -1.1831
25447SOL     OW81187   6.508   4.853   6.257  0.7092 -0.2114  0.4408
25447SOL    HW181188   6.568   4.842   6.331  1.7499  1.1112 -0.1744
25447SOL    HW281189   6.491   4.763   6.228  1.6732 -0.6639  1.1921
25448SOL     OW81190   7.665   5.209   7.564  0.7522 -0.5373  0.4298
25448SOL    HW181191   7.730   5.141   7.581  0.6590 -0.8991 -0.5828
25448SOL    HW281192   7.716   5.284   7.534  0.8156 -0.3063  1.0941
25449SOL     OW81193   8.881   5.703   7.758  0.6800 -0.5556 -0.1790
25449SOL    HW181194   8.946   5.678   7.693  1.6657  1.2836  0.0265
25449SOL    HW281195   8.912   5.787   7.792 -1.3297 -0.0584  0.5894
25450SOL     OW81196   8.048   3.611   7.814 -0.2096 -0.4518  0.5192
25450SOL    HW181197   8.116   3.678   7.816  0.8990 -1.4728 -0.8892
25450SOL    HW281198   8.076   3.547   7.880 -0.1115 -0.5974  0.3359
25451SOL     OW81199   9.619   2.847   7.194  0.3536  0.4011 -0.0842
25451SOL    HW181200   9.617   2.809   7.106  0.1940  0.8231 -0.2679
25451SOL    HW281201   9.701   2.896   7.196 -0.2142  1.4113 -0.4486
25452SOL     OW81202   9.713   0.819   6.926 -0.5081  0.0148 -0.2918
25452SOL    HW181203   9.670   0.904   6.940 -0.7925  0.0784 -1.4130
25452SOL    HW281204   9.720   0.812   6.831  1.4402 -0.2701 -0.1767
25453SOL     OW81205   7.745   3.948   4.411  0.2255 -0.0745  0.4374
25453SOL    HW181206   7.816   3.986   4.359  0.0940 -0.0478  0.2755
25453SOL    HW281207   7.774   3.859   4.430 -0.8816 -1.0455 -1.9989
25454SOL     OW81208   8.269   5.481   5.405 -0.4475 -0.8694 -0.0388
25454SOL    HW181209   8.175   5.463   5.411 -0.7989  0.9395  0.5432
25454SOL    HW281210   8.278   5.570   5.438  1.1903 -0.1616 -2.1517
25455SOL     OW81211   8.244   4.305   6.048  0.3458 -0.1494 -0.5736
25455SOL    HW181212   8.287   4.219   6.043 -3.1046 -1.9785 -2.7086
25455SOL    HW281213   8.199   4.305   6.132 -1.1425 -1.3489 -1.3161
25456SOL     OW81214   0.398   6.905   6.356  0.7659  0.2299 -0.0070
25456SOL    HW181215   0.326   6.967   6.347  1.2028  0.5654 -1.6669
25456SOL    HW281216   0.426   6.912   6.447 -0.1715  1.3690  0.2097
25457SOL     OW81217   7.377   4.255   3.765 -0.7302 -0.2636  0.5841
25457SOL    HW181218   7.465   4.267   3.801  0.2383 -0.5414 -1.5454
25457SOL    HW281219   7.344   4.175   3.807  0.0476 -0.1757  1.3782
25458SOL     OW81220   7.424   6.741   6.731 -0.3245 -0.1915  0.1006
25458SOL    HW181221   7.478   6.779   6.799 -0.8308 -1.5204  1.3003
25458SOL    HW281222   7.484   6.685   6.681  0.3631  1.8595 -1.5062
25459SOL     OW81223   7.171   5.572   7.193  0.0484  0.1112 -0.1533
25459SOL    HW181224   7.143   5.480   7.193  0.6874 -0.1871  2.8481
25459SOL    HW281225   7.238   5.576   7.261  0.9257  2.5800 -1.0826
25460SOL     OW81226   9.061   3.134   5.623 -0.6995  0.1355 -0.0639
25460SOL    HW181227   9.056   3.074   5.697 -0.2783  0.6395  0.3858
25460SOL    HW281228   9.048   3.079   5.545 -1.8140 -0.3004  0.4111
25461SOL     OW81229   6.489   2.682   5.171  0.6056  0.7273 -0.0368
25461SOL    HW181230   6.431   2.657   5.099 -1.2996  2.1023  0.9719
25461SOL    HW281231   6.526   2.599   5.201  2.5521  0.1730 -3.3818
25462SOL     OW81232   6.973   4.264   6.383  0.5183 -0.0797  0.1765
25462SOL    HW181233   6.943   4.348   6.417 -1.4685 -1.3796  1.9024
25462SOL    HW281234   6.928   4.253   6.300  1.1669  0.7626 -0.2905
25463SOL     OW81235   7.160   4.828   7.015 -0.0663 -0.3167 -0.6965
25463SOL    HW181236   7.224   4.797   7.079  0.6631  0.6580 -0.9325
25463SOL    HW281237   7.186   4.785   6.933 -0.4074 -0.7962 -0.5596
25464SOL     OW81238   9.660   5.663   6.345  0.2130  0.5916 -0.3004
25464SOL    HW181239   9.657   5.572   6.315  0.0571  0.4715  0.0792
25464SOL    HW281240   9.644   5.714   6.266 -3.8165  0.2146  0.0927
25465SOL     OW81241   0.892   3.839   6.549 -0.3268  0.2841  0.9120
25465SOL    HW181242   0.828   3.873   6.487 -0.9901 -0.7381  1.0041
25465SOL    HW281243   0.875   3.745   6.551  1.0691  0.0188  1.0761
25466SOL     OW81244   8.048   4.092   6.121 -0.1099  0.0492  0.5419
25466SOL    HW181245   8.131   4.047   6.109  0.1675  1.1550 -2.3802
25466SOL    HW281246   8.069   4.169   6.174  1.2030  1.3485 -1.7289
25467SOL     OW81247   8.672   5.725   4.413  0.2592 -0.5177 -0.1564
25467SOL    HW181248   8.713   5.780   4.346 -1.5986 -0.2322 -1.1152
25467SOL    HW281249   8.745   5.697   4.468  1.2884  3.5241  0.9007
25468SOL     OW81250   9.159   6.997   5.276 -0.2986 -0.2502 -0.1980
25468SOL    HW181251   9.128   7.084   5.300  1.9083  0.7571 -0.7490
25468SOL    HW281252   9.104   6.971   5.203  0.2844  1.5947 -1.3609
25469SOL     OW81253   8.934   3.578   5.911 -0.2856 -0.0007 -0.1391
25469SOL    HW181254   8.929   3.627   5.829  0.2378  1.0260  0.4222
25469SOL    HW281255   8.997   3.508   5.893  1.0882  1.1904 -0.1583
25470SOL     OW81256   9.234   1.450   6.668  0.1265  0.1724 -0.2139
25470SOL    HW181257   9.162   1.392   6.641 -0.5970  0.9700 -0.0364
25470SOL    HW281258   9.296   1.446   6.596 -0.2505 -0.2641 -0.5259
25471SOL     OW81259   7.211   4.080   5.176  0.0815  0.3933  0.2139
25471SOL    HW181260   7.238   3.993   5.148 -0.8459 -0.0410  0.6028
25471SOL    HW281261   7.196   4.128   5.095  2.0062  0.6783 -0.0172
25472SOL     OW81262   9.057   3.818   5.125  0.0939 -0.5467 -0.0267
25472SOL    HW181263   8.963   3.800   5.127  0.2287 -1.2247  1.5794
25472SOL    HW281264   9.067   3.885   5.057 -1.4118 -1.1151 -0.8594
25473SOL     OW81265   6.475   3.790   8.091  0.3002 -0.3767 -0.4124
25473SOL    HW181266   6.552   3.739   8.116  2.0343  1.5742 -1.3835
25473SOL    HW281267   6.481   3.796   7.995  0.2779  1.7006 -0.3285
25474SOL     OW81268   4.617   5.096   7.915  0.4225 -0.3097  0.0839
25474SOL    HW181269   4.574   5.107   8.001  0.2602 -0.4239  0.0181
25474SOL    HW281270   4.574   5.162   7.860  1.3774  0.6079  0.4053
25475SOL     OW81271   8.493   5.692   8.708  0.5554 -0.4354  0.5758
25475SOL    HW181272   8.433   5.757   8.672  0.0112  0.2935  2.6681
25475SOL    HW281273   8.579   5.715   8.671 -0.0205  0.0154 -0.5234
25476SOL     OW81274   8.713   2.523   9.553  0.3034 -0.6880 -0.4337
25476SOL    HW181275   8.678   2.545   9.639  0.9231  0.1952 -0.3837
25476SOL    HW281276   8.649   2.560   9.491 -0.1168 -1.2798 -0.3526
25477SOL     OW81277   9.357   4.597   7.127  0.4394 -0.1316 -0.0545
25477SOL    HW181278   9.280   4.652   7.143  0.2832 -0.7616  1.5161
25477SOL    HW281279   9.341   4.557   7.041 -1.0857 -0.4303  0.3531
25478SOL     OW81280   8.145   5.225   8.924  0.2516 -0.2718 -0.1683
25478SOL    HW181281   8.208   5.255   8.859 -0.0695 -0.4407 -0.5667
25478SOL    HW281282   8.179   5.256   9.008  2.6384 -3.1583  0.0674
25479SOL     OW81283   9.317   3.923   6.693  0.4078  0.0083 -0.0266
25479SOL    HW181284   9.298   4.003   6.644  0.3870 -0.2835 -0.4942
25479SOL    HW281285   9.232   3.892   6.722  0.4216  0.1896  0.2119
25480SOL     OW81286   6.133   3.774   5.940 -0.4811 -0.8178 -0.1032
25480SOL    HW181287   6.169   3.717   6.007 -0.0733 -1.0731 -0.5353
25480SOL    HW281288   6.045   3.740   5.924 -0.2240 -1.3544 -0.3904
25481SOL     OW81289   5.016   5.890   1.256  0.1047 -0.2429 -0.1011
25481SOL    HW181290   5.074   5.814   1.258 -0.8259 -0.9571  0.9461
25481SOL    HW281291   5.045   5.944   1.329 -0.1166 -0.2561 -0.0054
25482SOL     OW81292   8.006   3.804   6.600 -0.1584 -0.1456 -0.4380
25482SOL    HW181293   7.948   3.776   6.529  0.7181  0.8715 -1.6038
25482SOL    HW281294   8.038   3.890   6.572  0.1815  0.2970  1.2252
25483SOL     OW81295   6.600   4.563   0.667  0.4405  0.1683 -0.0533
25483SOL    HW181296   6.561   4.624   0.604  0.7952  0.1516 -0.2964
25483SOL    HW281297   6.693   4.587   0.667  0.2017  1.2599  1.6846
25484SOL     OW81298   5.540   3.781   6.476  0.3119 -0.7372  0.1367
25484SOL    HW181299   5.546   3.741   6.562  0.0372  0.1975  0.6078
25484SOL    HW281300   5.631   3.789   6.446  0.4422 -0.6047  0.5643
25485SOL     OW81301   8.320   7.167   6.966  0.1488 -0.3312  0.2153
25485SOL    HW181302   8.384   7.231   7.000  0.0823 -0.9205  1.5369
25485SOL    HW281303   8.315   7.100   7.035 -1.2474 -0.7459 -0.2565
25486SOL     OW81304   7.410   4.782   2.087 -0.6149 -0.2405 -0.1787
25486SOL    HW181305   7.478   4.800   2.021 -0.4640  0.9845  0.2820
25486SOL    HW281306   7.415   4.688   2.101 -0.0521 -0.4012 -1.2759
25487SOL     OW81307   8.473   3.588   7.008  0.0393 -0.2729  0.5647
25487SOL    HW181308   8.477   3.533   6.929  0.8409  0.8071 -0.1707
25487SOL    HW281309   8.528   3.664   6.988 -0.7171  0.6176  1.7051
25488SOL     OW81310   8.478   5.696   7.811 -0.7609 -0.2766  0.6091
25488SOL    HW181311   8.435   5.643   7.744 -0.0891 -1.9475  1.4482
25488SOL    HW281312   8.563   5.654   7.823 -0.3898  0.7234  1.6644
25489SOL     OW81313   9.566   5.136   8.596  0.2533  0.3567 -0.2284
25489SOL    HW181314   9.569   5.227   8.567 -0.0966  1.1195  1.9471
25489SOL    HW281315   9.478   5.105   8.571  0.0656  0.8868 -0.2253
25490SOL     OW81316   9.053   5.971   6.667  0.3496 -0.1630  0.3397
25490SOL    HW181317   9.133   6.013   6.699 -0.6688  1.9381  0.3037
25490SOL    HW281318   9.077   5.879   6.656  2.7697  0.4112  0.2506
25491SOL     OW81319   8.897   3.049   0.223  0.3122  0.5213  0.1440
25491SOL    HW181320   8.810   3.084   0.205  0.3957  0.7209  0.1259
25491SOL    HW281321   8.948   3.069   0.145  0.3831  0.4316  0.1672
25492SOL     OW81322   7.644   5.996   0.828 -0.6773 -0.4473  0.1022
25492SOL    HW181323   7.669   6.069   0.772 -3.1258 -0.2851 -0.8919
25492SOL    HW281324   7.674   5.918   0.780  2.4027 -0.2045  1.4089
25493SOL     OW81325   9.645   5.042   9.292  0.6869 -0.0291  0.3952
25493SOL    HW181326   9.708   5.111   9.269 -1.1115  1.7006  0.3290
25493SOL    HW281327   9.637   4.990   9.212  1.6785  0.0161  0.2548
25494SOL     OW81328   1.407   1.562   0.048 -0.1022 -0.6006  0.5076
25494SOL    HW181329   1.360   1.624  -0.007  1.5911  1.4834  1.2952
25494SOL    HW281330   1.400   1.479   0.000 -0.3560  0.6736 -1.8430
25495SOL     OW81331   7.028   5.766   7.834  0.0856  0.5961  0.0378
25495SOL    HW181332   7.055   5.854   7.808 -2.1750  0.5856 -2.8976
25495SOL    HW281333   6.984   5.778   7.918  0.4447  2.1516  0.0218
25496SOL     OW81334   7.130   5.908   7.447  0.4007 -0.5532 -0.0924
25496SOL    HW181335   7.221   5.879   7.453  1.2598  1.7836 -0.5809
25496SOL    HW281336   7.136   5.996   7.410 -2.0229 -0.0618  0.5404
25497SOL     OW81337   8.967   5.841   6.040 -1.0178  0.3558  0.6547
25497SOL    HW181338   8.897   5.874   5.985 -2.9540 -2.1754  1.4186
25497SOL    HW281339   8.924   5.814   6.121  0.9826 -0.4155  1.5343
25498SOL     OW81340   0.036   5.229   6.455  0.0201  0.2527  0.2789
25498SOL    HW181341   0.112   5.217   6.397  1.0376 -0.0230  1.6159
25498SOL    HW281342   0.013   5.321   6.446  2.4231  1.1261  2.0133
25499SOL     OW81343   5.789   5.345   8.455  0.0979  0.0450 -0.1108
25499SOL    HW181344   5.809   5.254   8.477  1.3239  0.1920 -0.5098
25499SOL    HW281345   5.698   5.343   8.428 -0.2527 -0.8462  1.0235
25500SOL     OW81346   9.368   3.219   7.805  0.1847  0.0877 -0.9506
25500SOL    HW181347   9.295   3.239   7.864  0.9315 -0.1671  0.0886
25500SOL    HW281348   9.427   3.165   7.857  2.0229  1.7957 -1.1484
25501SOL     OW81349   9.514   3.013   7.932  0.0210 -0.2907  0.0033
25501SOL    HW181350   9.531   2.970   8.016  0.0934 -2.0999 -0.8789
25501SOL    HW281351   9.585   2.985   7.876 -1.3422 -1.2025 -1.3597
25502SOL     OW81352   7.442   4.076   8.558 -0.6249 -0.2386  0.0169
25502SOL    HW181353   7.482   4.014   8.497 -0.5365  1.0226 -1.2663
25502SOL    HW281354   7.505   4.082   8.630 -0.3247 -1.1456 -0.1580
25503SOL     OW81355   4.676   4.388   2.578  0.2194  0.8462  0.0732
25503SOL    HW181356   4.614   4.329   2.535  2.4471 -1.0685 -0.7762
25503SOL    HW281357   4.721   4.432   2.507  0.8154  1.0992  0.5943
25504SOL     OW81358   0.887   6.258   6.522  0.6301  0.3600 -0.1129
25504SOL    HW181359   0.905   6.168   6.550  2.5013  0.8461  0.3788
25504SOL    HW281360   0.837   6.249   6.441  0.8873 -1.1163 -0.1326
25505SOL     OW81361   6.232   5.240   2.369 -0.2529  0.0411  0.2999
25505SOL    HW181362   6.266   5.180   2.302  1.3627  1.5037 -0.2428
25505SOL    HW281363   6.309   5.272   2.415 -1.2621 -0.1432  2.2388
25506SOL     OW81364   8.692   7.360   8.345 -0.3711  0.1793  0.1670
25506SOL    HW181365   8.608   7.330   8.381 -0.3361 -0.0445  0.0686
25506SOL    HW281366   8.693   7.454   8.362  0.2449 -0.1094  1.9820
25507SOL     OW81367   8.388   6.724   8.676  0.0016 -0.1988  0.2539
25507SOL    HW181368   8.409   6.815   8.699 -0.3355  0.5077 -2.0396
25507SOL    HW281369   8.296   6.726   8.651  0.3238 -0.9095 -1.0466
25508SOL     OW81370   6.574   5.062   8.170 -0.0316  0.0222  0.2528
25508SOL    HW181371   6.637   5.095   8.105  1.2338 -2.3886  0.1451
25508SOL    HW281372   6.623   5.061   8.252 -1.3374  2.1551  1.1468
25509SOL     OW81373   8.626   3.511   8.276  0.5828 -0.0809  0.1861
25509SOL    HW181374   8.571   3.454   8.223 -1.2275  1.4489  0.3238
25509SOL    HW281375   8.664   3.574   8.214  0.6028  0.0790  0.3589
25510SOL     OW81376   9.759   7.211   7.041  0.0196  0.0065 -0.2284
25510SOL    HW181377   9.679   7.162   7.024  1.9220 -3.7555  0.6349
25510SOL    HW281378   9.778   7.255   6.958 -2.1791 -0.0743 -0.8447
25511SOL     OW81379   8.263   4.731   8.732 -0.1863  0.0969  0.2927
25511SOL    HW181380   8.261   4.646   8.776 -0.7038 -1.6394 -2.8137
25511SOL    HW281381   8.353   4.740   8.700 -0.6405 -0.3523 -1.1991
25512SOL     OW81382   7.593   2.830   8.710  0.4007  0.2618 -0.0962
25512SOL    HW181383   7.674   2.851   8.664 -0.3576  0.0463 -1.6158
25512SOL    HW281384   7.526   2.830   8.641 -0.6232 -1.1856  0.8441
25513SOL     OW81385   8.341   5.923   4.960  0.3795 -0.1216 -0.5263
25513SOL    HW181386   8.393   5.897   5.036 -3.9113  0.9112  3.1087
25513SOL    HW281387   8.359   6.016   4.949  0.7686 -0.2049 -0.6207
25514SOL     OW81388   8.908   4.196   7.892 -0.2696  0.2664  0.5379
25514SOL    HW181389   8.949   4.148   7.820  0.3733  2.0789 -0.3594
25514SOL    HW281390   8.816   4.169   7.890 -0.4502  0.8915 -1.5083
25515SOL     OW81391   6.272   3.535   8.095 -0.2607 -0.6424  0.8312
25515SOL    HW181392   6.312   3.493   8.171  0.6175  1.3468  1.5368
25515SOL    HW281393   6.328   3.611   8.077 -1.0404 -0.4776 -1.1744
25516SOL     OW81394   7.342   3.940   0.066  0.2050 -0.0280 -0.3133
25516SOL    HW181395   7.383   4.006   0.123  1.7385 -0.4203 -0.8944
25516SOL    HW281396   7.297   3.992  -0.001 -0.1812  0.4288  0.2897
25517SOL     OW81397   0.677   2.871   9.327 -0.1231  0.1303  0.0780
25517SOL    HW181398   0.679   2.966   9.314 -0.8146 -0.0206 -1.3342
25517SOL    HW281399   0.632   2.837   9.249 -0.5095 -1.3007  0.8889
25518SOL     OW81400   0.624   3.974   7.118  0.7226 -0.0739 -0.0586
25518SOL    HW181401   0.666   3.893   7.090  2.0701  0.7841 -0.6004
25518SOL    HW281402   0.677   4.044   7.080  0.2577  1.0935  1.3300
25519SOL     OW81403   0.749   5.395   0.435  0.6237  0.4208 -0.9502
25519SOL    HW181404   0.654   5.405   0.447  0.8642  0.7689  0.8986
25519SOL    HW281405   0.787   5.473   0.475  1.8193 -0.9543  0.7493
25520SOL     OW81406   6.616   4.758   8.274  0.4662  0.5791 -0.2795
25520SOL    HW181407   6.621   4.665   8.254 -2.0128  0.4630 -0.6846
25520SOL    HW281408   6.584   4.798   8.193 -2.3501  1.1700  1.0039
25521SOL     OW81409   4.689   4.196   0.246  0.2449  0.2094 -0.0190
25521SOL    HW181410   4.595   4.213   0.252  0.5363  2.6216 -1.2608
25521SOL    HW281411   4.697   4.102   0.262 -2.2941  0.0589  0.7793
25522SOL     OW81412   8.529   8.247   7.698 -0.1277  0.1236  0.4215
25522SOL    HW181413   8.610   8.272   7.742 -0.6419 -1.9208  2.8188
25522SOL    HW281414   8.461   8.261   7.765 -1.8460  1.9301 -1.5603
25523SOL     OW81415   9.235   6.290   9.315 -0.2892 -0.5328 -0.7567
25523SOL    HW181416   9.198   6.367   9.359 -1.2596 -2.8763  3.0186
25523SOL    HW281417   9.169   6.266   9.250 -0.7573  0.8442 -0.8225
25524SOL     OW81418   8.776   2.713   0.284  0.3182  0.2873 -0.0942
25524SOL    HW181419   8.707   2.648   0.272  0.1418  0.2437  1.0155
25524SOL    HW281420   8.854   2.673   0.246 -0.4913  0.8319 -2.4675
25525SOL     OW81421   8.555   5.867   7.446  0.5679  0.5897 -0.6763
25525SOL    HW181422   8.635   5.815   7.444  1.8882  2.4769  0.1102
25525SOL    HW281423   8.553   5.905   7.534 -1.1176  0.7374 -0.7392
25526SOL     OW81424   8.652   5.232   5.866 -0.6293  0.1239 -0.0543
25526SOL    HW181425   8.656   5.177   5.944 -1.1906  0.9889  0.6074
25526SOL    HW281426   8.725   5.202   5.812 -0.9107 -1.2387  0.2921
25527SOL     OW81427   2.128   6.455   6.229 -0.0971  0.0249  0.3353
25527SOL    HW181428   2.127   6.365   6.261  0.9281 -0.8955 -1.9840
25527SOL    HW281429   2.038   6.486   6.240 -0.9946 -2.0409 -0.7006
25528SOL     OW81430   7.267   4.664   8.116  0.5939 -0.7537 -0.1387
25528SOL    HW181431   7.268   4.667   8.211  2.4927 -1.0665 -0.1166
25528SOL    HW281432   7.278   4.571   8.095 -1.7198 -0.9772 -0.7163
25529SOL     OW81433   8.730   7.338   6.541  0.2871 -0.5119  0.5130
25529SOL    HW181434   8.776   7.345   6.625 -0.9694 -0.2344  1.1984
25529SOL    HW281435   8.758   7.415   6.492  3.3883 -2.1596 -0.5863
25530SOL     OW81436   9.108   3.327   9.392 -0.0450  0.4078  0.1898
25530SOL    HW181437   9.053   3.283   9.457 -1.0689  1.3554  0.0012
25530SOL    HW281438   9.085   3.419   9.400 -0.3316  0.5341 -1.6199
25531SOL     OW81439   8.431   4.524   6.027  0.3724 -0.1390 -0.3421
25531SOL    HW181440   8.412   4.601   6.080  1.0270 -0.1377 -0.0955
25531SOL    HW281441   8.365   4.460   6.051  0.7704 -0.2016  0.6082
25532SOL     OW81442   7.266   5.679   8.647  0.0172  0.4043  0.7290
25532SOL    HW181443   7.172   5.666   8.637  0.1113  0.0050  0.3249
25532SOL    HW281444   7.285   5.757   8.595 -0.1321  0.6334  1.0186
25533SOL     OW81445   0.651   3.633   6.503  0.4409 -0.1586  0.3823
25533SOL    HW181446   0.704   3.563   6.541 -0.6476 -0.3241  1.6956
25533SOL    HW281447   0.575   3.587   6.467  1.1115  0.0795 -1.4107
25534SOL     OW81448   8.080   5.321   7.973 -0.4540  0.3815 -0.5059
25534SOL    HW181449   8.169   5.289   7.958 -0.3595  0.7623 -0.8039
25534SOL    HW281450   8.079   5.353   8.063 -0.0519  1.1090 -0.7513
25535SOL     OW81451   9.002   4.700   5.993  0.5290 -0.0999  0.0464
25535SOL    HW181452   8.992   4.735   5.905  1.0394 -0.1912 -0.0487
25535SOL    HW281453   8.992   4.777   6.050  1.7184  0.2230 -0.1651
25536SOL     OW81454   6.270   3.973   6.787 -0.7850 -0.0666 -0.4867
25536SOL    HW181455   6.175   3.968   6.794 -0.8205 -0.0225 -0.9101
25536SOL    HW281456   6.301   3.976   6.878 -1.1906  0.0233 -0.3511
25537SOL     OW81457   9.800   3.836   7.940 -0.0825  0.3173 -0.6234
25537SOL    HW181458   9.824   3.921   7.975  1.3658 -0.0412 -0.6948
25537SOL    HW281459   9.883   3.792   7.922 -0.7856 -1.0957 -0.6299
25538SOL     OW81460   8.381   4.804   9.071  0.0144 -0.1021  0.0552
25538SOL    HW181461   8.459   4.808   9.015 -0.6150 -0.5626 -0.8775
25538SOL    HW281462   8.315   4.855   9.024 -1.0354 -1.8740 -0.4740
25539SOL     OW81463   8.546   4.058   8.848  0.0682 -0.5206 -0.2590
25539SOL    HW181464   8.498   4.053   8.931 -1.7790  1.8506 -1.0744
25539SOL    HW281465   8.637   4.036   8.872 -0.4638 -0.2579  2.3064
25540SOL     OW81466   5.581   6.659   6.795  0.0608  0.4131 -0.2737
25540SOL    HW181467   5.648   6.592   6.782 -0.3709 -0.2033  0.5910
25540SOL    HW281468   5.551   6.680   6.706  1.6714  1.0099 -0.7058
25541SOL     OW81469   8.399   3.942   9.072 -0.4472  0.7589  0.2565
25541SOL    HW181470   8.471   3.882   9.055  0.1460  1.5193  0.0381
25541SOL    HW281471   8.420   3.981   9.157 -1.6049 -0.4355  1.1285
25542SOL     OW81472   9.822   2.884   6.384 -0.0144 -0.4160  0.0112
25542SOL    HW181473   9.835   2.967   6.430  0.1092  0.3391 -1.3472
25542SOL    HW281474   9.875   2.891   6.305 -1.4147 -1.0437 -1.0313
25543SOL     OW81475   0.166   2.942   7.920 -0.0021 -0.0015  0.0446
25543SOL    HW181476   0.197   2.932   8.010  0.6456 -0.9830 -0.2687
25543SOL    HW281477   0.079   2.903   7.921 -0.5453  1.1688  0.5241
25544SOL     OW81478   5.935   3.768   0.657 -0.0047  0.1669  0.1461
25544SOL    HW181479   6.015   3.761   0.604 -1.2917  0.0878 -1.9016
25544SOL    HW281480   5.921   3.862   0.666 -0.3574  0.2018 -0.6374
25545SOL     OW81481   1.358   5.992   4.573  0.1627 -0.4494  0.3765
25545SOL    HW181482   1.310   5.971   4.493 -0.9542  0.0354  0.9007
25545SOL    HW281483   1.313   5.943   4.642  0.9522 -0.6539  0.7598
25546SOL     OW81484   0.014   4.602   8.383 -0.3720  0.1827 -0.2465
25546SOL    HW181485   0.095   4.631   8.426 -0.8628  0.8305  0.2617
25546SOL    HW281486  -0.049   4.593   8.454 -0.5500 -1.0890 -0.5333
25547SOL     OW81487   8.120   4.491   8.824  0.2673  0.3954  0.1032
25547SOL    HW181488   8.109   4.396   8.834 -0.6169  0.4872  0.1182
25547SOL    HW281489   8.062   4.529   8.891 -0.1163  0.9483 -0.5217
25548SOL     OW81490   7.109   3.678   7.735  0.4592 -0.3571  0.4064
25548SOL    HW181491   7.126   3.756   7.682  0.2210 -1.9040 -2.0858
25548SOL    HW281492   7.014   3.676   7.744  0.5205  0.1057  1.2810
25549SOL     OW81493   7.142   3.391   6.320  0.0514 -0.1803  0.3326
25549SOL    HW181494   7.085   3.363   6.248  0.6989  1.4928 -0.8751
25549SOL    HW281495   7.213   3.327   6.321  0.6639  0.4259 -1.3340
25550SOL     OW81496   7.230   4.668   1.168 -0.2521 -0.8329  0.2741
25550SOL    HW181497   7.303   4.606   1.175  2.0096  1.5265 -0.6781
25550SOL    HW281498   7.219   4.702   1.257  0.0867 -0.9389  0.3595
25551SOL     OW81499   5.320   4.632   9.666  0.6382 -0.7443 -0.0404
25551SOL    HW181500   5.358   4.709   9.708  0.4344 -1.5980  1.8327
25551SOL    HW281501   5.226   4.641   9.681  0.3631 -0.2901 -1.7743
25552SOL     OW81502   6.509   5.308   7.118 -0.1012 -0.3605  0.2140
25552SOL    HW181503   6.518   5.355   7.036  1.9733 -1.2615 -0.1540
25552SOL    HW281504   6.422   5.332   7.151 -0.8018  0.3649 -1.9931
25553SOL     OW81505   7.618   0.800   8.450  0.0811  0.4725  0.2591
25553SOL    HW181506   7.683   0.751   8.400 -1.1856 -0.3628 -0.6522
25553SOL    HW281507   7.660   0.882   8.471  0.7925  0.7535 -1.9806
25554SOL     OW81508   9.265   3.027   8.398  0.2133 -0.0118 -0.0252
25554SOL    HW181509   9.266   3.071   8.483  1.5285 -0.1598  0.0648
25554SOL    HW281510   9.320   2.950   8.410  1.5199  0.6632 -1.3372
25555SOL     OW81511   5.785   5.137   9.381 -0.4725  0.8568  0.6072
25555SOL    HW181512   5.764   5.227   9.406 -0.2857  0.5940  1.7944
25555SOL    HW281513   5.877   5.140   9.354 -0.9034  1.2988 -0.9266
25556SOL     OW81514   0.071   5.327   7.007 -0.0228  0.1782 -0.2365
25556SOL    HW181515   0.162   5.358   7.008 -0.3304  1.6315 -3.4189
25556SOL    HW281516   0.019   5.406   7.027 -0.6860 -0.8755  2.7502
25557SOL     OW81517   8.281   4.192   7.635 -0.0496 -0.2461  0.8765
25557SOL    HW181518   8.357   4.155   7.589 -0.0516  0.9644 -0.1396
25557SOL    HW281519   8.228   4.116   7.658  0.5662 -0.9762 -0.0289
25558SOL     OW81520   8.330   4.672   9.304 -0.3416 -0.4733  0.1533
25558SOL    HW181521   8.245   4.628   9.303 -0.6552  0.1070  0.8260
25558SOL    HW281522   8.345   4.697   9.213 -0.8476 -0.6564  0.0163
25559SOL     OW81523   7.129   5.803   6.497 -0.2264 -0.2851  0.5495
25559SOL    HW181524   7.161   5.883   6.538 -2.9551  1.6621 -0.8014
25559SOL    HW281525   7.185   5.734   6.532  1.9380  2.1114  2.1696
25560SOL     OW81526   6.058   3.963   5.602 -0.3154  0.0663 -0.4150
25560SOL    HW181527   6.045   4.033   5.667 -0.0374  0.8988 -1.2323
25560SOL    HW281528   5.977   3.961   5.552  0.5569  1.5677 -2.0170
25561SOL     OW81529   8.694   4.731   7.167 -0.4555  0.0361  0.2758
25561SOL    HW181530   8.602   4.709   7.153 -0.4352  0.7283 -1.2235
25561SOL    HW281531   8.693   4.824   7.191 -0.1682 -0.0560  0.6520
25562SOL     OW81532   7.822   2.903   8.862 -0.0612 -0.4570 -0.4832
25562SOL    HW181533   7.808   2.930   8.771  0.2290 -1.7987 -0.9555
25562SOL    HW281534   7.869   2.820   8.855  0.7165 -0.1635  0.9250
25563SOL     OW81535   8.301   5.534   1.657 -0.3859 -0.0730 -0.5914
25563SOL    HW181536   8.326   5.487   1.578 -0.8903  0.0342 -0.8194
25563SOL    HW281537   8.209   5.511   1.671 -1.6894  3.2825 -2.5313
25564SOL     OW81538   8.300   3.651   8.880 -0.3271 -0.8560  0.0250
25564SOL    HW181539   8.339   3.702   8.809  0.4802  0.3741  1.2815
25564SOL    HW281540   8.373   3.602   8.917 -0.3429 -0.0784  1.1379
25565SOL     OW81541   9.333   4.353   8.058  0.5389 -0.4227 -0.0456
25565SOL    HW181542   9.357   4.384   8.145 -0.0450  0.2386 -0.1190
25565SOL    HW281543   9.238   4.360   8.055  0.4342 -1.6262 -0.2942
25566SOL     OW81544   8.192   4.917   7.353 -0.7408 -0.3799  0.0679
25566SOL    HW181545   8.285   4.901   7.370 -0.3600  0.1444 -1.3612
25566SOL    HW281546   8.156   4.940   7.438  0.6849  0.4959  0.4708
25567SOL     OW81547   8.193   4.378   7.925  0.0850 -0.1384 -0.4526
25567SOL    HW181548   8.162   4.436   7.994 -0.1045  0.4307 -1.0083
25567SOL    HW281549   8.273   4.419   7.893  0.2755 -0.4996 -0.4480
25568SOL     OW81550   0.064   0.912   6.102  0.2475  0.4108  0.3057
25568SOL    HW181551   0.067   0.928   6.196  0.3002  0.9376  0.2195
25568SOL    HW281552  -0.029   0.898   6.082  0.3185 -0.4247  0.5479
25569SOL     OW81553   0.135   4.582   7.907  0.3814  0.0685  0.1229
25569SOL    HW181554   0.178   4.622   7.831 -1.3051  1.3763 -0.1918
25569SOL    HW281555   0.109   4.656   7.962 -3.6854 -0.3538 -0.9283
25570SOL     OW81556   7.557   5.118   8.226  0.0314  0.3390  0.2322
25570SOL    HW181557   7.477   5.066   8.222  0.9192 -1.0876  0.3899
25570SOL    HW281558   7.621   5.068   8.175  1.2980  0.5347  1.5600
25571SOL     OW81559   8.255   4.357   8.566 -0.0943  0.0209 -0.1797
25571SOL    HW181560   8.189   4.290   8.549  1.4864 -1.7493  0.2613
25571SOL    HW281561   8.214   4.439   8.540 -2.1170 -1.1111 -0.7490
25572SOL     OW81562   9.281   4.079   8.422 -0.1189  0.2266 -0.2587
25572SOL    HW181563   9.305   3.987   8.411 -0.8974 -0.2772  1.7701
25572SOL    HW281564   9.363   4.127   8.406  0.3522 -0.8326 -1.1169
25573SOL     OW81565   5.306   6.517   6.172  0.2819  0.0109 -0.2373
25573SOL    HW181566   5.241   6.554   6.113 -0.4045 -0.4257  0.2285
25573SOL    HW281567   5.390   6.532   6.128 -0.2110 -0.2951 -1.3089
25574SOL     OW81568   8.329   5.184   7.965 -0.3576  0.0615  0.1442
25574SOL    HW181569   8.383   5.250   8.009 -0.5816  0.5076 -0.2450
25574SOL    HW281570   8.386   5.108   7.957  0.5339  0.8249 -1.0902
25575SOL     OW81571   9.581   3.657   8.230  0.1228 -0.1124  0.2418
25575SOL    HW181572   9.673   3.649   8.205 -0.1803 -0.3677 -0.8093
25575SOL    HW281573   9.567   3.583   8.289  0.7173  0.2295  0.8336
25576SOL     OW81574   1.084   4.339   6.603  0.3018 -0.1856  0.0118
25576SOL    HW181575   0.995   4.374   6.601  0.4504  0.1965 -0.0425
25576SOL    HW281576   1.133   4.399   6.659  0.5032 -0.4504  0.1259
25577SOL     OW81577   5.196   6.820   9.646 -0.0475  0.1904  0.5462
25577SOL    HW181578   5.141   6.762   9.700  0.0541 -0.3387  0.0799
25577SOL    HW281579   5.248   6.762   9.592  0.1347  0.7171  0.1432
25578SOL     OW81580   9.529   4.361   8.777  0.2868  0.2325 -0.0599
25578SOL    HW181581   9.556   4.360   8.869  0.8933  0.3378 -0.2353
25578SOL    HW281582   9.495   4.272   8.762 -0.0769  0.2972  0.3368
25579SOL     OW81583   0.066   3.411   0.038 -0.5373 -0.1618 -0.2775
25579SOL    HW181584   0.092   3.501   0.054 -1.0467  0.0598 -0.6557
25579SOL    HW281585  -0.028   3.416   0.020 -1.0914 -1.0327  1.9976
25580SOL     OW81586   7.482   5.350   6.786  0.4705 -0.0739 -0.3687
25580SOL    HW181587   7.422   5.406   6.836 -1.3118 -2.6455  0.5863
25580SOL    HW281588   7.463   5.261   6.816  3.6937 -1.2019 -1.2418
25581SOL     OW81589   8.275   4.511   9.841 -0.0457  0.1692 -0.8365
25581SOL    HW181590   8.319   4.475   9.764 -1.7521 -0.8621 -1.3794
25581SOL    HW281591   8.342   4.507   9.910  1.1060 -0.1275 -1.9267
25582SOL     OW81592   6.477   3.056   7.726  0.1078 -0.0047 -0.3332
25582SOL    HW181593   6.392   3.018   7.706 -1.4771  3.0811 -0.0893
25582SOL    HW281594   6.474   3.144   7.687  3.2942  0.1598 -0.5103
25583SOL     OW81595   6.252   3.961   7.461 -0.7057 -0.1793  0.1263
25583SOL    HW181596   6.228   3.898   7.392 -0.5874 -0.1376  0.0469
25583SOL    HW281597   6.168   3.987   7.499 -1.0230  1.7689 -1.7221
25584SOL     OW81598   8.933   4.731   6.382  0.1158  0.2935 -0.0964
25584SOL    HW181599   8.976   4.788   6.445  1.3066 -2.2368  1.5558
25584SOL    HW281600   8.978   4.647   6.391 -0.4858 -0.5277 -3.5173
25585SOL     OW81601   7.746   2.871   9.742 -0.0057  0.1799  0.0351
25585SOL    HW181602   7.723   2.955   9.782 -1.2166  0.0325 -0.3125
25585SOL    HW281603   7.677   2.854   9.678 -1.9635 -2.8417  2.6337
25586SOL     OW81604   8.851   1.614   7.989 -0.7403 -0.8555  0.2033
25586SOL    HW181605   8.854   1.552   8.061 -0.0825 -1.5052 -0.3690
25586SOL    HW281606   8.836   1.560   7.911 -2.3592 -0.0885 -0.0635
25587SOL     OW81607   7.295   3.182   7.105  0.3797  0.2289  0.4152
25587SOL    HW181608   7.238   3.253   7.076  0.0873 -0.2172 -0.1217
25587SOL    HW281609   7.376   3.226   7.131  0.1219  0.7801  0.3067
25588SOL     OW81610   8.102   5.107   9.663 -0.0793 -0.0054 -0.3180
25588SOL    HW181611   8.071   5.016   9.658 -0.1550  0.0490 -0.8824
25588SOL    HW281612   8.056   5.152   9.592  2.0125 -0.1492 -1.8648
25589SOL     OW81613   5.928   3.988   6.800 -0.2929 -0.2998  0.6771
25589SOL    HW181614   5.882   3.954   6.724  1.1132  0.7297 -0.7040
25589SOL    HW281615   5.867   4.049   6.840 -0.6653 -0.0461 -0.2596
25590SOL     OW81616   9.075   5.349   0.022  0.1194 -0.7623  0.5627
25590SOL    HW181617   8.994   5.313   0.059 -0.7159 -0.6134 -1.0106
25590SOL    HW281618   9.099   5.288  -0.047  0.6412 -0.1397  0.1823
25591SOL     OW81619   8.406   3.599   9.778 -0.4192 -0.4691  0.3687
25591SOL    HW181620   8.496   3.589   9.809 -1.0531  0.2370  2.5583
25591SOL    HW281621   8.412   3.584   9.683  1.9552 -0.6012  0.4860
25592SOL     OW81622   7.060   4.538   6.579  0.6358 -0.0452  0.0013
25592SOL    HW181623   7.137   4.486   6.603  1.5044  0.7958 -0.8773
25592SOL    HW281624   7.094   4.606   6.521 -0.8853 -0.0789 -0.9875
25593SOL     OW81625   8.954   3.495   8.883  0.2220  0.0278  0.1819
25593SOL    HW181626   8.889   3.435   8.920  0.5382 -1.2855 -1.2926
25593SOL    HW281627   8.913   3.581   8.888 -1.4925 -0.7162 -0.3426
25594SOL     OW81628   7.368   3.479   0.325  0.1277 -0.6971  0.1611
25594SOL    HW181629   7.274   3.495   0.335  0.2022  0.5714 -0.8993
25594SOL    HW281630   7.374   3.389   0.295 -0.6906 -1.0630  1.0479
25595SOL     OW81631   8.717   5.666   6.969 -0.7101 -0.0820 -0.4765
25595SOL    HW181632   8.644   5.703   7.018 -1.3552 -1.1497 -0.5923
25595SOL    HW281633   8.686   5.579   6.942  0.9433 -0.9551  0.2924
25596SOL     OW81634   7.961   5.948   8.318 -0.5662  0.1543  0.5269
25596SOL    HW181635   8.029   6.013   8.339 -0.2231  0.0557 -0.2409
25596SOL    HW281636   7.948   5.957   8.224 -0.4103 -0.9821  0.3834
25597SOL     OW81637   8.802   5.295   9.790 -0.0152 -0.2245  0.5598
25597SOL    HW181638   8.770   5.209   9.765 -0.3295 -0.2462  1.0254
25597SOL    HW281639   8.828   5.285   9.882  3.0335 -0.7138 -0.2405
25598SOL     OW81640   9.824   6.941   7.785 -0.2727 -0.3325 -0.4320
25598SOL    HW181641   9.878   7.014   7.814 -1.0364  0.3727 -0.7454
25598SOL    HW281642   9.850   6.868   7.841  2.0812 -0.4565 -1.5446
25599SOL     OW81643   7.682   3.531   6.982  0.3566 -0.0829 -0.8637
25599SOL    HW181644   7.764   3.539   7.032 -0.2268 -1.1127  0.3034
25599SOL    HW281645   7.682   3.608   6.924  0.6926  1.6398  1.2787
25600SOL     OW81646   9.094   1.533   7.525 -0.1549  0.5098 -0.1884
25600SOL    HW181647   9.085   1.447   7.565 -0.7194  0.1587 -1.0298
25600SOL    HW281648   9.053   1.523   7.438 -0.7387  1.7736 -0.0798
25601SOL     OW81649   9.186   5.728   1.734 -0.4027  0.0311 -0.3345
25601SOL    HW181650   9.147   5.793   1.794  1.6443 -0.1266  1.2695
25601SOL    HW281651   9.132   5.650   1.746  0.1667 -0.1159  1.6794
25602SOL     OW81652   9.144   7.096   7.967 -0.0568  0.3554  0.0940
25602SOL    HW181653   9.090   7.059   7.898 -0.4041 -0.6063  0.8539
25602SOL    HW281654   9.088   7.095   8.045 -0.4549  3.4928 -0.0269
25603SOL     OW81655   9.732   5.033   8.821  0.3964 -0.3755 -0.0238
25603SOL    HW181656   9.691   5.078   8.747  0.2251  0.0535  0.3231
25603SOL    HW281657   9.715   5.090   8.896 -1.8851 -2.1121  0.8965
25604SOL     OW81658   6.878   5.606   7.677  0.4251 -0.2691  0.1611
25604SOL    HW181659   6.919   5.677   7.726  1.7181 -0.9441  0.0848
25604SOL    HW281660   6.909   5.618   7.587  1.8532 -1.7607  0.4156
25605SOL     OW81661   7.083   5.597   9.398 -0.0505  0.1102 -0.6128
25605SOL    HW181662   7.032   5.636   9.327  0.9424  1.2668 -0.7235
25605SOL    HW281663   7.052   5.640   9.477  1.4726  1.6744 -0.8021
25606SOL     OW81664   7.580   3.779   8.738  0.0960 -0.0517 -0.0351
25606SOL    HW181665   7.554   3.764   8.828 -2.8540  0.8414 -0.6454
25606SOL    HW281666   7.615   3.868   8.737 -1.8224  0.7490 -0.0673
25607SOL     OW81667   7.961   3.315   5.536  0.2833 -0.0114  0.0739
25607SOL    HW181668   7.923   3.317   5.624 -1.7890  1.2470 -0.7686
25607SOL    HW281669   7.988   3.405   5.519  2.4504 -0.6129  0.1023
25608SOL     OW81670   7.681   6.173   7.739  0.1134 -0.1976  0.2240
25608SOL    HW181671   7.756   6.206   7.689 -0.1956  1.1776  0.6319
25608SOL    HW281672   7.708   6.181   7.830 -0.8852  1.3045  0.4214
25609SOL     OW81673   8.263   1.534   1.814  0.0067  0.2977  0.0759
25609SOL    HW181674   8.306   1.449   1.822 -1.8262 -0.5213  1.7979
25609SOL    HW281675   8.276   1.576   1.899 -0.9971  0.7969 -0.0017
25610SOL     OW81676   0.474   2.248   0.291  0.5473 -0.0940  0.3859
25610SOL    HW181677   0.422   2.286   0.220 -0.7211 -0.7538  0.9312
25610SOL    HW281678   0.497   2.160   0.260  1.5993  0.2793  0.0428
25611SOL     OW81679   2.332   5.599   8.148  0.1260 -0.3611 -0.6889
25611SOL    HW181680   2.257   5.580   8.093 -0.0584 -0.7069 -0.3193
25611SOL    HW281681   2.362   5.514   8.180  0.6709 -0.2265 -0.8314
25612SOL     OW81682   6.952   4.398   8.095  0.2953  0.4999  0.0687
25612SOL    HW181683   7.045   4.392   8.118  0.4136  1.0596 -0.2383
25612SOL    HW281684   6.913   4.321   8.134  0.7988  0.5358  0.6596
25613SOL     OW81685   8.301   5.323   8.297 -0.4334  0.3021  0.6389
25613SOL    HW181686   8.240   5.384   8.256  0.0684  1.0089  0.9224
25613SOL    HW281687   8.384   5.371   8.300  0.4648 -1.0465 -0.8164
25614SOL     OW81688   9.636   4.720   0.890  0.1914  0.0337  0.1094
25614SOL    HW181689   9.619   4.627   0.902  0.5253 -0.0247  0.1342
25614SOL    HW281690   9.681   4.747   0.970 -1.3935  0.5912  0.8539
25615SOL     OW81691   5.489   6.318   9.644  0.7790 -0.5437  0.2902
25615SOL    HW181692   5.495   6.323   9.549  0.7458 -1.5633  0.2273
25615SOL    HW281693   5.480   6.409   9.672  2.7216 -0.0641 -0.5343
25616SOL     OW81694   7.698   5.863   7.491  0.0705  0.2910 -0.1958
25616SOL    HW181695   7.767   5.915   7.449 -0.1600  0.1017 -0.8299
25616SOL    HW281696   7.700   5.779   7.445  0.3190 -0.1959  0.6995
25617SOL     OW81697   7.246   6.103   5.986 -0.3884 -0.0717  0.4869
25617SOL    HW181698   7.233   6.052   5.906  1.7931  0.6381 -0.3942
25617SOL    HW281699   7.313   6.055   6.034  1.0152  1.4063  0.0920
25618SOL     OW81700   9.220   5.563   7.030 -0.4316  0.3446  0.4863
25618SOL    HW181701   9.284   5.582   6.962 -0.1079  2.4972  1.3259
25618SOL    HW281702   9.270   5.516   7.097 -0.7559 -1.7937 -0.6794
25619SOL     OW81703   1.464   4.838   0.323  0.1470  0.5739 -0.0790
25619SOL    HW181704   1.390   4.891   0.350 -0.6914 -1.3741  1.8157
25619SOL    HW281705   1.507   4.814   0.406  1.5512 -0.1766 -0.9799
25620SOL     OW81706   7.689   6.832   6.303 -0.0299  0.5812  0.1888
25620SOL    HW181707   7.666   6.920   6.331 -0.0640  0.6280  0.0109
25620SOL    HW281708   7.606   6.783   6.308  0.3269  0.0589  2.1507
25621SOL     OW81709   7.525   3.698   9.561 -0.3244 -0.4224 -0.1984
25621SOL    HW181710   7.491   3.655   9.640  0.0077 -1.1431 -0.4324
25621SOL    HW281711   7.473   3.662   9.489  0.1400 -0.6490 -0.4287
25622SOL     OW81712   7.873   2.667   6.156 -0.5444 -0.4351 -0.1358
25622SOL    HW181713   7.841   2.757   6.159  0.0697 -0.2041 -0.5158
25622SOL    HW281714   7.861   2.635   6.246 -1.8784 -0.3744 -0.2733
25623SOL     OW81715   0.720   5.947   5.619 -0.5952  0.1502 -0.2912
25623SOL    HW181716   0.655   5.960   5.550 -0.2375  0.0662 -0.6478
25623SOL    HW281717   0.801   5.981   5.581 -0.8092  2.0963  0.8589
25624SOL     OW81718   7.752   4.379   9.668 -0.4332  0.5448 -0.6927
25624SOL    HW181719   7.696   4.340   9.602  1.7874 -2.9546 -0.8211
25624SOL    HW281720   7.768   4.308   9.731  1.4955  2.2003  0.8599
25625SOL     OW81721   9.783   4.463   6.324 -0.1465  0.0101  0.1896
25625SOL    HW181722   9.778   4.367   6.323  1.4149 -0.1428  1.5372
25625SOL    HW281723   9.731   4.490   6.399 -0.4385  0.2085 -0.0816
25626SOL     OW81724   9.152   5.096   7.873  0.0046 -0.6630  0.1381
25626SOL    HW181725   9.179   5.099   7.965 -0.6239  2.6225  0.3173
25626SOL    HW281726   9.202   5.024   7.836  0.0000 -2.3462  3.1008
25627SOL     OW81727   5.515   6.084   8.555 -0.2039 -0.7272  0.3927
25627SOL    HW181728   5.546   6.170   8.527 -1.0918 -0.3326  0.5858
25627SOL    HW281729   5.543   6.077   8.646 -1.0646 -0.1767  0.7091
25628SOL     OW81730   7.634   5.493   6.967 -0.1256  0.4618  0.4105
25628SOL    HW181731   7.600   5.454   6.886  0.2960  4.3221 -1.9000
25628SOL    HW281732   7.728   5.477   6.964 -0.2382 -0.2895  0.7133
25629SOL     OW81733   0.254   3.869   9.318 -0.1252 -0.0074  0.0958
25629SOL    HW181734   0.341   3.902   9.343 -0.8103  2.0375 -0.0272
25629SOL    HW281735   0.193   3.925   9.365 -1.3826 -0.4192 -0.9968
25630SOL     OW81736   9.388   3.212   9.836  0.4022  0.3161  0.5042
25630SOL    HW181737   9.294   3.225   9.824 -0.0966 -0.9739  2.5945
25630SOL    HW281738   9.427   3.248   9.756 -1.8770  0.4072 -0.6569
25631SOL     OW81739   0.113   2.841   7.521 -0.6093 -0.2991 -0.3548
25631SOL    HW181740   0.119   2.770   7.458  0.7789 -1.6086  1.1678
25631SOL    HW281741   0.079   2.800   7.600  0.0217  0.7651  0.4931
25632SOL     OW81742   9.296   4.948   7.299 -0.6152  0.1580  0.2751
25632SOL    HW181743   9.362   4.982   7.359  0.3058 -1.2535  0.1279
25632SOL    HW281744   9.245   4.887   7.352 -1.5882  0.9676  0.2916
25633SOL     OW81745   8.906   4.855   5.787  0.0878  0.1675 -0.0708
25633SOL    HW181746   8.914   4.883   5.696  1.1536  0.4281  0.0843
25633SOL    HW281747   8.813   4.838   5.799  0.2672 -2.9996 -2.1232
25634SOL     OW81748   7.132   4.732   9.132  0.3005  0.2801 -0.5978
25634SOL    HW181749   7.102   4.671   9.199  1.6733  1.1383  0.8417
25634SOL    HW281750   7.171   4.804   9.180  1.9823  0.6030 -2.3334
25635SOL     OW81751   6.636   4.126   7.954  0.0218  0.0095 -0.5765
25635SOL    HW181752   6.611   4.101   7.865 -0.8862  0.3997 -0.4431
25635SOL    HW281753   6.725   4.093   7.964  0.0321 -0.2853 -1.5319
25636SOL     OW81754   1.441   4.039   8.460  0.0040  0.1174 -1.0230
25636SOL    HW181755   1.437   3.961   8.405 -2.0602 -0.3531 -0.2793
25636SOL    HW281756   1.506   4.018   8.527 -0.0255 -0.6694 -1.2350
25637SOL     OW81757   7.948   6.675   9.835  0.1934 -0.6014 -0.1390
25637SOL    HW181758   7.973   6.619   9.761 -0.5322 -0.7233 -0.2941
25637SOL    HW281759   8.031   6.700   9.875  0.7176  0.7935 -1.9480
25638SOL     OW81760   7.909   3.914   6.833  0.3928 -0.7901 -0.2575
25638SOL    HW181761   7.821   3.923   6.797  0.2912  1.4742  0.3766
25638SOL    HW281762   7.954   3.853   6.774 -0.7855  0.1195 -2.1801
25639SOL     OW81763   0.859   3.098   9.086  0.1993  0.0639  0.2891
25639SOL    HW181764   0.814   3.087   9.170 -1.2429  2.2791 -0.1296
25639SOL    HW281765   0.850   3.191   9.066  2.4007  0.0003 -1.3089
25640SOL     OW81766   8.622   6.932   7.617 -0.2469 -0.0617  0.1790
25640SOL    HW181767   8.670   6.856   7.585 -1.1193 -0.6512  0.2389
25640SOL    HW281768   8.650   7.004   7.559 -0.8058 -0.8265 -1.0984
25641SOL     OW81769   9.203   4.228   7.174  0.0631  0.0640  0.1126
25641SOL    HW181770   9.222   4.162   7.107  1.0520  0.8056 -0.3756
25641SOL    HW281771   9.279   4.287   7.171  0.7011 -0.4980  2.6756
25642SOL     OW81772   8.639   1.975   9.075 -0.2886 -0.1889 -0.2403
25642SOL    HW181773   8.605   2.029   9.004  1.6358  1.4974  0.0403
25642SOL    HW281774   8.565   1.965   9.135 -1.4666 -0.2683 -1.6632
25643SOL     OW81775   6.070   2.972   5.778 -0.5608  0.4068 -0.5333
25643SOL    HW181776   6.060   3.059   5.817 -0.2923 -0.0775  0.6809
25643SOL    HW281777   5.999   2.920   5.817 -1.7740  0.4702 -2.5235
25644SOL     OW81778   0.056   4.086   8.051 -0.1295  0.3181 -0.2762
25644SOL    HW181779   0.029   4.177   8.034 -0.0238  0.2354 -0.9317
25644SOL    HW281780   0.028   4.069   8.140  1.1388  1.4748  0.3882
25645SOL     OW81781   5.997   7.425   8.618 -0.0120 -0.3210  0.3248
25645SOL    HW181782   5.915   7.426   8.668 -0.1521 -3.4104  0.3355
25645SOL    HW281783   6.063   7.397   8.681  0.3103 -1.6139 -0.5623
25646SOL     OW81784   8.585   5.040   6.058  0.4903 -0.3345 -0.0607
25646SOL    HW181785   8.568   4.947   6.073  2.0283 -0.5064  0.8445
25646SOL    HW281786   8.575   5.081   6.144  0.3024  0.2512 -0.3559
25647SOL     OW81787   8.445   6.255   7.759  0.6214 -0.5054 -0.2937
25647SOL    HW181788   8.363   6.266   7.807  0.3101 -2.3925 -0.3285
25647SOL    HW281789   8.514   6.270   7.824  0.2184 -1.0801  0.2724
25648SOL     OW81790   9.843   6.310   0.577 -0.8628 -0.4120  0.1744
25648SOL    HW181791   9.901   6.360   0.635 -0.8445 -0.2495  0.0186
25648SOL    HW281792   9.813   6.375   0.513 -0.3325 -0.7286 -0.4108
25649SOL     OW81793   8.383   5.203   8.603 -0.3273 -0.2745 -0.1806
25649SOL    HW181794   8.390   5.295   8.631 -0.3242 -0.0886 -0.7703
25649SOL    HW281795   8.301   5.200   8.554  0.6142 -0.1152 -1.8542
25650SOL     OW81796   9.561   4.458   8.279  0.2300 -0.2961  0.0336
25650SOL    HW181797   9.564   4.533   8.221  1.1680  0.2455  0.7500
25650SOL    HW281798   9.507   4.486   8.353 -0.5342 -0.8013 -0.3239
25651SOL     OW81799   8.738   5.729   8.090 -0.0308  0.0508  0.4566
25651SOL    HW181800   8.706   5.755   8.176  3.8774 -0.8183  2.4206
25651SOL    HW281801   8.800   5.798   8.065 -0.1035 -0.3866 -1.0745
25652SOL     OW81802   7.265   4.137   9.076  1.0831  0.5200 -0.2029
25652SOL    HW181803   7.249   4.047   9.044 -0.7076  0.1270  1.5912
25652SOL    HW281804   7.187   4.186   9.048  1.1846  1.0434  0.4175
25653SOL     OW81805   9.229   6.745   8.074 -0.4225 -0.2126  0.5348
25653SOL    HW181806   9.147   6.761   8.122 -1.1642  1.9155 -1.2759
25653SOL    HW281807   9.203   6.698   7.995  0.2451 -0.4080  0.4207
25654SOL     OW81808   7.529   5.236   6.222 -0.3899 -0.0004  0.1635
25654SOL    HW181809   7.566   5.313   6.179 -0.6555 -1.0432 -2.1161
25654SOL    HW281810   7.584   5.222   6.298  3.9322 -1.2923 -2.8076
25655SOL     OW81811   9.459   4.368   0.250 -0.2289 -0.0789  0.1333
25655SOL    HW181812   9.437   4.366   0.344 -1.6912 -1.5937 -0.1783
25655SOL    HW281813   9.495   4.281   0.233 -1.7376 -0.5123 -1.0479
25656SOL     OW81814   0.827   4.115   8.826 -0.1173  0.4911 -0.3691
25656SOL    HW181815   0.853   4.033   8.784 -1.3244 -0.1546  0.0876
25656SOL    HW281816   0.772   4.087   8.900 -1.6529  1.7431 -0.9880
25657SOL     OW81817   8.509   4.380   6.998 -0.2019 -0.3437 -0.3197
25657SOL    HW181818   8.491   4.464   7.039 -0.8561 -0.1133 -1.0629
25657SOL    HW281819   8.593   4.393   6.954 -0.9341  0.3510 -1.5469
25658SOL     OW81820   9.664   5.778   6.963  0.2796  0.4376  0.0330
25658SOL    HW181821   9.730   5.846   6.947 -0.6908  1.6203  0.8675
25658SOL    HW281822   9.600   5.820   7.022 -1.8759 -0.2189 -1.7025
25659SOL     OW81823   6.992   4.717   5.388 -0.2207  0.0479 -0.3298
25659SOL    HW181824   7.075   4.765   5.394 -0.8181  1.2725 -1.3318
25659SOL    HW281825   6.983   4.697   5.295 -0.8755 -0.4181 -0.1716
25660SOL     OW81826   0.105   2.679   9.628  0.3698 -0.5427 -0.1993
25660SOL    HW181827   0.135   2.760   9.671 -1.0045  0.3114 -0.7673
25660SOL    HW281828   0.108   2.698   9.535 -2.5716 -0.0810 -0.2959
25661SOL     OW81829   0.070   5.304   6.175 -0.1223  0.6424 -0.3494
25661SOL    HW181830   0.096   5.281   6.085  0.6123  1.8371 -0.4690
25661SOL    HW281831   0.137   5.264   6.230 -0.0039  0.7446 -0.4165
25662SOL     OW81832   7.689   5.352   8.722  0.4201  0.2223 -0.1521
25662SOL    HW181833   7.646   5.414   8.664 -0.8291 -2.8471 -2.7598
25662SOL    HW281834   7.619   5.316   8.775  1.1094  0.8153  1.2279
25663SOL     OW81835   8.076   4.663   6.160 -0.0806 -0.4478  0.0717
25663SOL    HW181836   8.148   4.713   6.199  0.7901 -0.6705 -1.2045
25663SOL    HW281837   8.070   4.585   6.215  1.3212 -0.8972 -0.3707
25664SOL     OW81838   9.125   5.720   7.583  0.5684  0.0653 -0.1321
25664SOL    HW181839   9.177   5.652   7.625 -0.3803 -0.0024  1.0072
25664SOL    HW281840   9.146   5.713   7.490  1.8703 -0.5537  0.1876
25665SOL     OW81841   8.255   3.072   9.178  0.1668  0.3248 -0.9156
25665SOL    HW181842   8.267   2.982   9.210  1.5602  1.0346  0.7565
25665SOL    HW281843   8.215   3.062   9.092  1.4304 -1.9381 -1.3184
25666SOL     OW81844   7.223   5.229   7.977  0.5553 -0.3128  0.3698
25666SOL    HW181845   7.151   5.233   7.914 -0.1979 -0.5530  1.1989
25666SOL    HW281846   7.296   5.274   7.934 -0.4312  0.9336 -0.0219
25667SOL     OW81847   8.073   7.269   9.353 -0.1916  0.2839 -0.2853
25667SOL    HW181848   8.151   7.324   9.348 -0.5651  0.9246  0.6197
25667SOL    HW281849   8.074   7.233   9.442 -0.1236 -0.9398 -0.7594
25668SOL     OW81850   5.655   3.580   8.905 -0.3470 -0.8135 -0.0840
25668SOL    HW181851   5.585   3.516   8.922 -0.4859 -0.6427 -0.0058
25668SOL    HW281852   5.672   3.620   8.990 -0.5459 -0.4593 -0.2057
25669SOL     OW81853   6.142   5.220   8.041 -0.3545  0.0645 -0.0827
25669SOL    HW181854   6.164   5.286   8.107  0.5923  2.3791 -2.5442
25669SOL    HW281855   6.222   5.169   8.030 -1.0410 -1.5530  1.7068
25670SOL     OW81856   8.305   5.658   8.159 -0.6251 -0.7110  0.1897
25670SOL    HW181857   8.329   5.751   8.157 -3.2267  0.0234 -0.5114
25670SOL    HW281858   8.371   5.618   8.215  1.7213  1.1839 -0.9852
25671SOL     OW81859   8.823   2.439   8.425  0.0568 -0.3765  0.5178
25671SOL    HW181860   8.733   2.410   8.411  0.3936 -1.6771  0.9141
25671SOL    HW281861   8.877   2.379   8.373  0.7190  0.1741  0.5454
25672SOL     OW81862   1.332   6.994   6.868 -0.4102 -0.2134  0.3537
25672SOL    HW181863   1.341   7.085   6.895 -2.8523  1.1139 -2.7842
25672SOL    HW281864   1.390   6.985   6.792 -0.8058 -1.0296  0.1270
25673SOL     OW81865   7.326   3.631   7.896  0.4803  0.4161 -0.1159
25673SOL    HW181866   7.306   3.546   7.934  0.7617  0.2711 -0.2906
25673SOL    HW281867   7.271   3.637   7.818  2.9417 -1.1203 -2.1367
25674SOL     OW81868   9.366   3.414   7.113 -0.1443 -0.2749 -0.6882
25674SOL    HW181869   9.376   3.318   7.115 -1.4715 -0.4238  0.3870
25674SOL    HW281870   9.273   3.427   7.096  0.1934  0.8575 -1.7470
25675SOL     OW81871   6.445   1.742   6.808  0.2025 -0.5336  0.3997
25675SOL    HW181872   6.350   1.737   6.793 -0.0359  0.5753  1.3866
25675SOL    HW281873   6.458   1.826   6.851  1.6786 -0.5787  0.0946
25676SOL     OW81874   0.421   3.243   9.709  0.1177  0.1118 -0.3592
25676SOL    HW181875   0.429   3.324   9.658 -2.7023 -0.7262 -2.4151
25676SOL    HW281876   0.507   3.202   9.703  1.1894  2.2698 -0.4978
25677SOL     OW81877   8.535   6.251   6.378 -0.4904  0.5220  0.0854
25677SOL    HW181878   8.576   6.189   6.317 -0.6013  1.2615 -0.7610
25677SOL    HW281879   8.443   6.225   6.380 -0.2677 -0.2489  0.8805
25678SOL     OW81880   8.225   5.379   7.542 -0.0057 -0.1000  0.4374
25678SOL    HW181881   8.299   5.321   7.557 -0.2128 -0.6462 -0.5932
25678SOL    HW281882   8.254   5.465   7.573  1.4869 -0.0441 -1.0151
25679SOL     OW81883   8.374   5.086   3.079  0.3500  0.0511 -0.5420
25679SOL    HW181884   8.379   5.031   3.157  2.0000  0.2960 -0.4411
25679SOL    HW281885   8.280   5.094   3.061  0.0103 -1.3797  0.4295
25680SOL     OW81886   8.413   3.901   8.653 -0.1492 -0.2980 -0.1225
25680SOL    HW181887   8.372   3.984   8.628  1.1572  0.1557 -0.8776
25680SOL    HW281888   8.477   3.926   8.720  0.1958 -0.6955 -0.3015
25681SOL     OW81889   8.034   7.271   2.164  0.3825 -0.1389 -0.0932
25681SOL    HW181890   8.122   7.268   2.203  0.6272  2.3001 -0.2938
25681SOL    HW281891   7.980   7.314   2.229 -0.1664  0.2842 -0.8154
25682SOL     OW81892   6.277   5.685   2.311  0.5335 -0.0463  1.2381
25682SOL    HW181893   6.344   5.733   2.358 -0.0800  0.1532  1.9300
25682SOL    HW281894   6.325   5.620   2.260  1.2903  0.5204  1.2086
25683SOL     OW81895   8.646   4.876   1.170 -0.2194  0.4951  0.1486
25683SOL    HW181896   8.668   4.793   1.129  0.0575  1.4105 -1.6514
25683SOL    HW281897   8.727   4.907   1.210 -0.4063 -0.2429  1.1178
25684SOL     OW81898   6.433   5.242   0.837 -0.5163  0.0611  0.2870
25684SOL    HW181899   6.488   5.320   0.840 -0.2605 -0.1035 -0.0841
25684SOL    HW281900   6.345   5.274   0.858 -0.2803  0.3201  0.8963
25685SOL     OW81901   9.609   5.635   0.036 -0.6439  0.5893 -0.1407
25685SOL    HW181902   9.518   5.622   0.010 -0.2152 -3.1075 -0.4097
25685SOL    HW281903   9.611   5.610   0.129  0.3108 -1.4060 -0.6314
25686SOL     OW81904   9.452   5.128   8.147 -0.2859 -0.2071  0.4002
25686SOL    HW181905   9.415   5.068   8.082 -0.3596  0.9644 -0.6838
25686SOL    HW281906   9.546   5.129   8.127 -0.4538  0.9555 -0.3918
25687SOL     OW81907   0.093   6.379   9.612 -0.3329 -0.1190 -0.1625
25687SOL    HW181908   0.149   6.402   9.685  1.9588  1.3489 -2.2356
25687SOL    HW281909   0.034   6.454   9.602 -0.7137 -0.3630  0.1787
25688SOL     OW81910   8.243   4.905   1.334 -0.1322  0.7888 -0.6182
25688SOL    HW181911   8.177   4.972   1.351 -0.1767  1.0039 -1.5819
25688SOL    HW281912   8.230   4.841   1.404 -0.4019  1.5435  0.0384
25689SOL     OW81913   8.376   6.224   9.742  0.1530  0.0616  0.0493
25689SOL    HW181914   8.441   6.288   9.771  1.3898 -0.7811 -0.7518
25689SOL    HW281915   8.428   6.151   9.708 -1.2148 -1.1665  0.4971
25690SOL     OW81916   5.845   2.884   9.168 -0.3125  0.1445  0.1101
25690SOL    HW181917   5.786   2.885   9.244  1.2546  0.3759  1.3561
25690SOL    HW281918   5.920   2.936   9.195  1.4324 -1.8425 -0.6592
25691SOL     OW81919   8.761   6.939   0.174  0.4567 -0.2118 -0.0615
25691SOL    HW181920   8.809   7.022   0.182  1.9644 -0.9811 -0.6368
25691SOL    HW281921   8.671   6.961   0.198  0.3840  2.0030 -1.9450
25692SOL     OW81922   8.018   5.051   0.115 -0.0693 -0.0340 -0.8649
25692SOL    HW181923   8.113   5.064   0.105 -0.2086  0.3205 -1.8469
25692SOL    HW281924   7.991   5.119   0.178  0.1533  0.6344 -1.4724
25693SOL     OW81925   8.511   7.685   0.192  0.1824 -0.1242  0.1667
25693SOL    HW181926   8.504   7.601   0.239 -0.8509 -1.2276 -1.8326
25693SOL    HW281927   8.602   7.712   0.205  0.1951 -0.8455  1.9488
25694SOL     OW81928   7.685   4.129   0.591  0.2364 -0.2222 -0.3648
25694SOL    HW181929   7.734   4.165   0.665 -0.8405 -0.8048  0.6658
25694SOL    HW281930   7.689   4.197   0.523  1.5301  0.1779  0.0914
25695SOL     OW81931   5.507   1.727   8.796 -0.3421 -0.4994 -0.3471
25695SOL    HW181932   5.574   1.661   8.780 -1.4738 -1.6156 -0.6391
25695SOL    HW281933   5.464   1.698   8.876 -0.0143  0.6159  0.2589
25696SOL     OW81934   8.735   2.929   9.311  0.3139 -0.0277  0.1666
25696SOL    HW181935   8.698   3.015   9.292 -0.8108 -0.6728 -0.6859
25696SOL    HW281936   8.660   2.876   9.340  1.0535 -0.6271  1.0491
25697SOL     OW81937   1.308   2.734   0.144 -0.1246 -0.2678 -0.0182
25697SOL    HW181938   1.342   2.820   0.169  2.3318 -1.6924  2.0083
25697SOL    HW281939   1.219   2.732   0.179  0.3456  0.9027  1.3104
25698SOL     OW81940   8.610   6.764   1.264 -0.2946  0.4438  0.2034
25698SOL    HW181941   8.555   6.745   1.340 -0.6842 -2.1209 -0.6139
25698SOL    HW281942   8.561   6.829   1.214 -1.5978 -0.2517  0.5466
25699SOL     OW81943   6.905   6.602   9.010  0.1829 -0.6252  0.2581
25699SOL    HW181944   6.973   6.615   8.944 -0.7338  1.0928 -0.4027
25699SOL    HW281945   6.926   6.517   9.049  1.1503 -1.3944 -1.7658
25700SOL     OW81946   7.329   5.014   1.841 -0.2624  0.3540 -0.1344
25700SOL    HW181947   7.387   4.940   1.823 -0.8870 -0.4083  0.8875
25700SOL    HW281948   7.243   4.985   1.810 -0.6736  0.3214  0.9915
25701SOL     OW81949   8.605   6.872   0.969 -0.2050  0.6596 -0.1702
25701SOL    HW181950   8.627   6.915   0.887 -1.7154  2.7609  0.4094
25701SOL    HW281951   8.623   6.780   0.955 -0.7969  0.8988 -3.0063
25702SOL     OW81952   5.754   4.226   1.105 -0.7299 -0.0331 -0.2009
25702SOL    HW181953   5.793   4.296   1.052  0.4149  0.8971  1.7742
25702SOL    HW281954   5.770   4.146   1.055  0.7214  0.7506 -1.0370
25703SOL     OW81955   7.400   3.711   0.827 -0.5907  0.2109 -0.0392
25703SOL    HW181956   7.422   3.802   0.807  1.4373 -0.2751 -0.1816
25703SOL    HW281957   7.401   3.667   0.743 -2.5527  0.2006 -0.1012
25704SOL     OW81958   0.108   3.567   8.621 -0.2811  0.1380  0.7117
25704SOL    HW181959   0.130   3.509   8.548 -1.7100  1.0406 -0.5007
25704SOL    HW281960   0.183   3.625   8.630  0.5106 -0.8869  0.9321
25705SOL     OW81961   8.642   3.283   1.328 -0.3456 -0.1653 -0.4001
25705SOL    HW181962   8.685   3.351   1.276  1.0816 -1.6918 -1.2928
25705SOL    HW281963   8.633   3.209   1.269 -2.3842 -0.6240  0.3889
25706SOL     OW81964   7.471   5.990   5.455 -0.4327 -0.1957  0.1195
25706SOL    HW181965   7.417   6.069   5.460 -1.4557 -0.7826 -0.8925
25706SOL    HW281966   7.542   6.013   5.396 -0.2400  0.2241  0.5120
25707SOL     OW81967   8.060   4.315   0.578  0.1472  0.7849 -0.1831
25707SOL    HW181968   8.017   4.309   0.663 -2.2138  1.9066 -1.2062
25707SOL    HW281969   7.991   4.345   0.518  2.3449  2.6025 -1.9850
25708SOL     OW81970   0.296   4.598   9.603  0.1659  0.1250  0.0606
25708SOL    HW181971   0.257   4.587   9.690  0.2629 -0.7125  0.0017
25708SOL    HW281972   0.349   4.677   9.611  0.1199  0.0964  0.7478
25709SOL     OW81973   7.353   4.326   9.709 -0.0310  0.2397 -0.4517
25709SOL    HW181974   7.328   4.336   9.618 -0.6642  1.6694 -0.1440
25709SOL    HW281975   7.275   4.289   9.751  0.5853 -1.3750 -0.6312
25710SOL     OW81976   8.776   4.490   8.425  0.1227 -0.4172  0.4843
25710SOL    HW181977   8.685   4.486   8.455 -0.2878  0.4143 -0.5766
25710SOL    HW281978   8.774   4.551   8.352  1.1873 -1.9339 -0.8797
25711SOL     OW81979   9.097   4.404   0.389 -0.1490 -0.2933  0.4317
25711SOL    HW181980   9.095   4.485   0.338  0.5756 -1.5983 -1.7975
25711SOL    HW281981   9.019   4.409   0.445 -1.4674  0.8644 -1.3982
25712SOL     OW81982   9.318   4.535   8.718  0.3619 -0.2858  0.4329
25712SOL    HW181983   9.379   4.483   8.770  0.3937 -0.7278 -0.0355
25712SOL    HW281984   9.314   4.619   8.763  0.9981 -0.3900  0.7017
25713SOL     OW81985   0.851   3.589   1.281  0.2934 -0.0804  0.2087
25713SOL    HW181986   0.796   3.531   1.229  0.1732 -0.4480  0.7397
25713SOL    HW281987   0.927   3.608   1.225  0.1979 -0.5246 -0.0700
25714SOL     OW81988   8.804   4.427   0.966 -0.3580  0.0416  0.0583
25714SOL    HW181989   8.788   4.383   0.883  0.7382  0.4110 -0.3653
25714SOL    HW281990   8.849   4.362   1.020 -1.1119 -0.2142  0.3958
25715SOL     OW81991   8.704   3.720   9.557 -0.1617  0.1442  0.8237
25715SOL    HW181992   8.716   3.659   9.485  3.5652  0.7701  0.6893
25715SOL    HW281993   8.669   3.799   9.516  0.2355 -0.0978 -0.0117
25716SOL     OW81994   6.235   4.720   0.015 -0.4984  0.2572 -0.1357
25716SOL    HW181995   6.165   4.728   0.079 -0.4963  1.1072 -0.2215
25716SOL    HW281996   6.291   4.796   0.031  1.6353 -1.5029  1.3822
25717SOL     OW81997   5.626   3.035   9.609 -0.4018  0.0028 -0.0035
25717SOL    HW181998   5.533   3.050   9.592 -0.0187  0.8235 -1.5655
25717SOL    HW281999   5.639   3.062   9.700 -1.5996  0.2273  0.1164
25718SOL     OW82000   6.920   4.324   0.517 -0.0578  0.5045  0.7255
25718SOL    HW182001   6.895   4.243   0.562  1.3677 -0.8906 -0.8472
25718SOL    HW282002   6.839   4.353   0.474 -0.4863 -0.3439  0.9429
25719SOL     OW82003   8.583   2.318   8.380  0.2224  0.3216 -0.5776
25719SOL    HW182004   8.585   2.242   8.322  0.1120 -0.5095  0.4665
25719SOL    HW282005   8.503   2.364   8.356  1.4967  1.4791 -2.8652
25720SOL     OW82006   0.239   4.751   0.188  0.8443 -0.1582 -0.0065
25720SOL    HW182007   0.185   4.719   0.260 -0.6355  1.3421 -0.3992
25720SOL    HW282008   0.303   4.809   0.229 -2.0939  3.4684 -0.0360
25721SOL     OW82009   6.838   2.358   9.560 -0.0126 -0.3474 -0.2474
25721SOL    HW182010   6.844   2.341   9.654 -1.1973 -0.4843 -0.1837
25721SOL    HW282011   6.745   2.374   9.544  0.5552  3.5930 -0.7171
25722SOL     OW82012   6.810   4.268   7.442  0.3142  0.1996  0.2710
25722SOL    HW182013   6.847   4.305   7.522  1.6610 -1.2682  0.3649
25722SOL    HW282014   6.824   4.174   7.449 -2.1557 -0.2991 -0.4083
25723SOL     OW82015   8.874   4.214   9.496 -0.4834  0.0479 -0.4906
25723SOL    HW182016   8.801   4.191   9.552 -1.3044 -1.0178 -1.9333
25723SOL    HW282017   8.834   4.257   9.420  0.4476  0.0992 -0.9729
25724SOL     OW82018   9.419   6.314   7.641  0.6446  0.1859  0.5519
25724SOL    HW182019   9.445   6.295   7.551  0.8233 -1.0610  0.8451
25724SOL    HW282020   9.455   6.401   7.659 -1.4009  1.5434 -1.3401
25725SOL     OW82021   9.217   6.297   8.650 -0.4470  0.6371  0.2557
25725SOL    HW182022   9.281   6.344   8.704  1.8487 -0.4211 -1.3907
25725SOL    HW282023   9.149   6.362   8.633  0.1209  1.8073  2.0858
25726SOL     OW82024   9.497   4.229   8.376  0.6744 -0.1720 -0.0226
25726SOL    HW182025   9.568   4.212   8.438  2.3686  0.6399 -1.6451
25726SOL    HW282026   9.512   4.319   8.347  0.2573 -0.6967 -1.9888
25727SOL     OW82027   8.927   4.681   7.948  0.0083 -0.4691 -0.0825
25727SOL    HW182028   9.012   4.699   7.909  0.0187 -0.3700 -0.0160
25727SOL    HW282029   8.887   4.767   7.959 -0.2441 -0.5433 -0.4338
25728SOL     OW82030   9.577   5.411   8.601 -0.3197 -0.0575  0.2350
25728SOL    HW182031   9.611   5.414   8.512 -0.9516  0.3015 -0.0039
25728SOL    HW282032   9.612   5.489   8.643 -0.3776  0.0073  0.1635
25729SOL     OW82033   8.683   3.852   0.034 -0.5119  0.2621 -0.0846
25729SOL    HW182034   8.652   3.857   0.125 -1.0370 -0.2675 -0.2313
25729SOL    HW282035   8.658   3.765   0.005 -2.3437  1.1667 -1.4455
25730SOL     OW82036   8.977   4.077   9.059  0.5202 -0.2889  0.0302
25730SOL    HW182037   8.923   4.007   9.024 -1.7913  0.9964  0.7925
25730SOL    HW282038   9.052   4.033   9.100  0.1824 -2.1280 -1.2598
25731SOL     OW82039   7.299   5.968   2.439  0.2842 -0.8294  0.0906
25731SOL    HW182040   7.217   6.015   2.453  0.2312 -1.2231  1.1999
25731SOL    HW282041   7.360   6.035   2.408  0.5894  0.3310  2.9009
25732SOL     OW82042   8.973   4.996   0.020  0.1765  0.8130 -0.4427
25732SOL    HW182043   9.017   5.002   0.105  0.8421  2.2283 -0.8563
25732SOL    HW282044   9.041   4.966  -0.040 -0.0884  0.5648 -0.6220
25733SOL     OW82045   5.216   4.405   8.219 -0.0224 -0.3211 -0.2314
25733SOL    HW182046   5.232   4.351   8.142  2.3999 -2.7439  1.7720
25733SOL    HW282047   5.301   4.414   8.261 -1.4618 -0.6712  3.1246
25734SOL     OW82048   7.729   4.652   8.634  0.3828  0.2580 -0.4780
25734SOL    HW182049   7.765   4.699   8.559  1.5910 -0.8321 -0.6126
25734SOL    HW282050   7.783   4.681   8.708 -0.9654  1.5270  0.0603
25735SOL     OW82051   0.511   3.421   8.511 -0.3846 -0.0298  0.3530
25735SOL    HW182052   0.585   3.450   8.566 -0.1304 -1.4170  0.8026
25735SOL    HW282053   0.434   3.441   8.563 -0.7595  4.6188 -1.4937
25736SOL     OW82054   6.498   3.640   8.568  0.1045  0.0177 -0.5371
25736SOL    HW182055   6.534   3.615   8.483 -0.3693  1.2428 -1.1256
25736SOL    HW282056   6.404   3.624   8.560  0.0528  0.1716 -0.2481
25737SOL     OW82057   5.114   7.212   7.622 -0.2257 -0.0423  0.7234
25737SOL    HW182058   5.204   7.185   7.637 -0.3739 -0.8001  0.2969
25737SOL    HW282059   5.089   7.259   7.701  0.3802 -0.2751  1.0524
25738SOL     OW82060   4.112   4.793   9.679  0.3454  0.0763 -0.0302
25738SOL    HW182061   4.201   4.815   9.705  0.8312 -0.6815 -0.9591
25738SOL    HW282062   4.118   4.704   9.644 -0.6232  0.2878 -0.8067
25739SOL     OW82063   7.645   5.396   5.519 -0.0659  0.2895  0.7099
25739SOL    HW182064   7.709   5.438   5.576 -1.5382  3.6231  0.1715
25739SOL    HW282065   7.670   5.423   5.430 -2.1675  1.8529  0.5030
25740SOL     OW82066   8.476   3.123   9.848 -0.0919 -0.0511  0.2843
25740SOL    HW182067   8.409   3.108   9.781  2.0176 -3.7176 -1.3652
25740SOL    HW282068   8.514   3.207   9.825 -1.2526  0.0539 -1.4723
25741SOL     OW82069   7.994   3.395   9.548 -0.5369  0.0530  0.4511
25741SOL    HW182070   8.064   3.367   9.489 -1.5002 -0.8163 -0.3111
25741SOL    HW282071   8.025   3.478   9.584  1.5215 -1.0039  1.2584
25742SOL     OW82072   8.778   5.273   7.813 -0.0914 -0.0833  0.3751
25742SOL    HW182073   8.743   5.279   7.724 -1.3459 -2.3302  0.6375
25742SOL    HW282074   8.751   5.354   7.856 -1.0624  0.2156 -0.7541
25743SOL     OW82075   7.945   3.964   9.681 -0.3567 -0.2098  0.2500
25743SOL    HW182076   8.026   3.921   9.708 -0.1548 -0.8110 -1.2512
25743SOL    HW282077   7.920   3.920   9.600 -1.6460  0.6493  0.1560
25744SOL     OW82078   5.749   4.356   0.100  0.8602  0.2800 -0.0910
25744SOL    HW182079   5.675   4.406   0.064  0.9371  0.1477 -0.4288
25744SOL    HW282080   5.731   4.266   0.076  0.4844  0.0674  0.9171
25745SOL     OW82081   6.894   4.067   2.330 -0.1673 -0.0304 -0.5290
25745SOL    HW182082   6.969   4.007   2.327 -0.1134 -0.0318  0.4789
25745SOL    HW282083   6.855   4.052   2.416 -2.0787 -0.9169 -1.4909
25746SOL     OW82084   8.907   4.302   9.206 -0.4367  0.4676  0.4894
25746SOL    HW182085   8.815   4.308   9.180  0.1468 -2.3796 -2.9353
25746SOL    HW282086   8.937   4.218   9.171  4.0068  2.1709 -0.4619
25747SOL     OW82087   8.276   4.536   9.555 -0.0623  0.4410  1.0110
25747SOL    HW182088   8.313   4.624   9.568  0.5837  0.7531 -2.0118
25747SOL    HW282089   8.182   4.547   9.570  0.2300  1.1541  2.5378
25748SOL     OW82090   0.307   3.974   9.031  0.0385  0.4561  0.0977
25748SOL    HW182091   0.401   3.955   9.028 -0.4261 -2.8746  1.5806
25748SOL    HW282092   0.286   3.978   9.124 -1.5518 -1.0265 -0.1305
25749SOL     OW82093   7.375   4.062   1.208  0.5418  0.3845  0.1187
25749SOL    HW182094   7.319   4.130   1.171  0.2871 -0.3932 -0.9847
25749SOL    HW282095   7.358   4.066   1.302 -0.2156  1.1749 -0.0345
25750SOL     OW82096   8.114   5.447   0.805 -0.0870 -0.1926 -0.0005
25750SOL    HW182097   8.207   5.465   0.813  0.0204 -0.4775 -0.5540
25750SOL    HW282098   8.099   5.439   0.710 -0.5149 -0.9730  0.1256
25751SOL     OW82099   6.082   4.316   9.709  0.0435 -0.6051  0.2197
25751SOL    HW182100   6.016   4.385   9.704  0.3746 -0.1500  1.5881
25751SOL    HW282101   6.051   4.248   9.649 -2.9628 -1.4634  2.5004
25752SOL     OW82102   8.626   6.886   8.580  0.2664 -0.0344 -0.4572
25752SOL    HW182103   8.548   6.920   8.624  0.5754  0.0654  0.0098
25752SOL    HW282104   8.599   6.800   8.547 -0.3149  0.3699 -1.0774
25753SOL     OW82105   7.788   7.835   0.790  0.3127 -0.0986  0.0968
25753SOL    HW182106   7.823   7.864   0.706  0.1675  0.0465  0.0853
25753SOL    HW282107   7.761   7.744   0.775 -4.1802  1.1788 -1.4736
25754SOL     OW82108   6.969   6.861   9.115 -0.2789  0.1896  0.2355
25754SOL    HW182109   6.976   6.775   9.073 -2.4058  0.2659 -0.3698
25754SOL    HW282110   6.935   6.919   9.048 -2.4793  0.6199  1.6031
25755SOL     OW82111   0.369   4.673   8.285  0.8819  0.3451 -0.1703
25755SOL    HW182112   0.317   4.594   8.274  2.2604 -0.4358 -1.3965
25755SOL    HW282113   0.429   4.653   8.356  0.5132  0.7001  0.2470
25756SOL     OW82114   8.496   5.549   9.781  0.3307 -0.7455 -0.1827
25756SOL    HW182115   8.437   5.533   9.707 -0.6010  1.2410  0.0732
25756SOL    HW282116   8.581   5.565   9.741 -0.3299  1.1187 -0.9539
25757SOL     OW82117   9.179   5.908   3.216  0.1362  0.3261 -0.5003
25757SOL    HW182118   9.241   5.836   3.214  2.5386  2.2690 -0.0077
25757SOL    HW282119   9.152   5.920   3.125 -0.7917 -1.4898 -0.5217
25758SOL     OW82120   7.994   5.644   1.898 -0.7782  0.3588  0.0619
25758SOL    HW182121   8.043   5.597   1.830 -0.1009  0.4530  0.4783
25758SOL    HW282122   7.930   5.580   1.929 -1.6581  0.5739 -1.2344
25759SOL     OW82123   9.202   8.452   1.809 -0.1517 -0.9180  0.5857
25759SOL    HW182124   9.220   8.405   1.890 -1.5593  1.2340  2.2955
25759SOL    HW282125   9.114   8.424   1.784  0.1527 -1.3376 -0.0347
25760SOL     OW82126   6.815   8.208   1.811 -0.0031 -0.0464  0.2943
25760SOL    HW182127   6.864   8.282   1.845 -1.2642  0.2376  1.6137
25760SOL    HW282128   6.784   8.162   1.890 -1.5373 -0.3866 -0.4681
25761SOL     OW82129   7.918   6.509   0.224  0.3568  0.0351  0.0659
25761SOL    HW182130   7.990   6.570   0.244  1.6125 -0.6857 -1.9833
25761SOL    HW282131   7.887   6.537   0.138 -0.9593 -0.5059  0.3489
25762SOL     OW82132   5.678   7.836   2.349  0.7206  0.4401 -0.1068
25762SOL    HW182133   5.704   7.795   2.431  1.1052 -1.4769 -1.1419
25762SOL    HW282134   5.582   7.839   2.353  0.6827 -0.6114 -0.0235
25763SOL     OW82135   7.317   1.933   0.665  0.1911 -0.0100 -0.2370
25763SOL    HW182136   7.284   1.882   0.591 -0.3230 -1.6661  1.0416
25763SOL    HW282137   7.393   1.979   0.631  0.7621 -1.7555 -1.4812
25764SOL     OW82138   7.261   9.466   9.097  0.0360 -0.1982 -0.5894
25764SOL    HW182139   7.219   9.524   9.033 -0.8696 -1.6532 -1.3772
25764SOL    HW282140   7.348   9.504   9.110  0.7221 -0.4965 -3.6338
25765SOL     OW82141   9.748   7.078   3.390 -0.4105 -0.0789  0.2317
25765SOL    HW182142   9.727   7.072   3.297  0.9857 -0.6434 -0.0590
25765SOL    HW282143   9.671   7.041   3.434 -1.1397  0.3082 -0.6649
25766SOL     OW82144   8.614   5.397   0.157 -0.1370 -0.4117  0.2040
25766SOL    HW182145   8.705   5.425   0.164  0.1856 -1.0705 -1.1347
25766SOL    HW282146   8.576   5.453   0.089  0.0994 -2.0858 -1.3853
25767SOL     OW82147   5.855   5.589   1.931 -0.2430 -0.5080  0.6624
25767SOL    HW182148   5.907   5.509   1.918 -0.2804 -1.0864  3.5378
25767SOL    HW282149   5.805   5.598   1.849  1.6109 -1.9875 -0.7359
25768SOL     OW82150   6.076   2.804   8.098  0.1801  0.7258 -0.1858
25768SOL    HW182151   6.052   2.714   8.076  0.0959  1.4390 -3.5213
25768SOL    HW282152   6.008   2.833   8.159  0.5771 -1.6150  1.4563
25769SOL     OW82153   5.887   7.254   0.921 -0.0217  0.1374  0.2917
25769SOL    HW182154   5.845   7.221   1.000 -1.2592 -0.2073 -0.4755
25769SOL    HW282155   5.829   7.226   0.850  1.0355  0.4728 -0.7360
25770SOL     OW82156   7.541   9.163   0.937  0.1826 -0.0138 -0.1274
25770SOL    HW182157   7.503   9.232   0.991  2.3011  1.7941 -0.8169
25770SOL    HW282158   7.634   9.166   0.955  0.4937 -1.9667 -1.0595
25771SOL     OW82159   4.274   6.967   9.098 -0.5165  0.2537  0.5217
25771SOL    HW182160   4.345   7.021   9.132  1.0646 -0.2224 -1.7480
25771SOL    HW282161   4.313   6.881   9.085 -0.9950  0.3444 -2.1739
25772SOL     OW82162   8.895   6.348   8.680 -0.5592 -0.2786  0.3850
25772SOL    HW182163   8.873   6.433   8.718 -3.2877 -1.2448  1.1631
25772SOL    HW282164   8.930   6.297   8.753 -0.8576 -0.4848  0.3834
25773SOL     OW82165   8.510   6.043   2.666 -0.0855  0.1953 -0.1126
25773SOL    HW182166   8.600   6.011   2.677 -0.2866  0.3093  2.5331
25773SOL    HW282167   8.516   6.136   2.685 -0.7428  0.2240 -0.0336
25774SOL     OW82168   6.392   5.341   9.697 -0.3935 -0.0187  0.6298
25774SOL    HW182169   6.432   5.366   9.780 -1.9376  0.6821  1.2052
25774SOL    HW282170   6.298   5.346   9.713 -0.7512 -1.8011 -0.5972
25775SOL     OW82171   8.178   6.777   1.952 -0.0889  0.0476  0.3506
25775SOL    HW182172   8.140   6.848   2.005 -2.3774 -0.1041 -0.9482
25775SOL    HW282173   8.124   6.701   1.973  0.1094 -0.4346 -0.8400
25776SOL     OW82174   7.266   4.761   0.050 -0.5001 -0.7899  0.0709
25776SOL    HW182175   7.325   4.794   0.117 -0.5820  0.9816 -0.6779
25776SOL    HW282176   7.324   4.724  -0.017 -0.2641 -0.0947 -0.1213
25777SOL     OW82177   8.896   5.968   1.311 -1.2236 -0.2798  0.1575
25777SOL    HW182178   8.897   6.058   1.342 -0.0977  0.2679 -1.3685
25777SOL    HW282179   8.957   5.921   1.369  0.7767  0.6995 -1.0572
25778SOL     OW82180   7.426   6.990   3.109 -1.0538  0.0547 -0.0202
25778SOL    HW182181   7.458   6.924   3.047 -1.2332 -1.4015  1.3809
25778SOL    HW282182   7.455   6.959   3.195 -0.9254  1.9557  0.6685
25779SOL     OW82183   8.283   6.188   0.176 -0.4860 -0.4971 -0.0599
25779SOL    HW182184   8.244   6.166   0.260 -0.8468  2.4173  0.6662
25779SOL    HW282185   8.377   6.172   0.187 -0.7145 -1.6320  0.3271
25780SOL     OW82186   7.021   6.722   1.267  0.1090  0.3761  0.4069
25780SOL    HW182187   7.067   6.731   1.350 -0.0579 -0.5740  0.6158
25780SOL    HW282188   6.940   6.772   1.279  1.6292  3.2618 -0.4562
25781SOL     OW82189   7.775   7.939   2.097  0.0486  0.1921  0.5765
25781SOL    HW182190   7.720   7.963   2.023  1.1405 -0.7065 -0.5715
25781SOL    HW282191   7.736   7.859   2.132 -0.4734  0.6233  0.9950
25782SOL     OW82192   7.944   5.813   2.797 -0.4356 -0.4207 -0.1823
25782SOL    HW182193   8.012   5.779   2.854  1.7842 -0.0165 -2.4393
25782SOL    HW282194   7.947   5.758   2.719 -2.3542 -0.0472 -0.5814
25783SOL     OW82195   9.205   8.825   0.896 -0.4352 -0.6150  0.0916
25783SOL    HW182196   9.121   8.859   0.927 -0.6567 -1.1056  0.0304
25783SOL    HW282197   9.269   8.859   0.958 -0.7387 -0.6468  0.4216
25784SOL     OW82198   7.419   6.099   4.188 -0.4478  0.1079 -0.7582
25784SOL    HW182199   7.338   6.151   4.191 -1.5216 -1.5187  0.1972
25784SOL    HW282200   7.489   6.162   4.206 -1.7020  1.1854  0.5858
25785SOL     OW82201   9.398   6.136   1.758  0.4874 -0.5995  0.5873
25785SOL    HW182202   9.375   6.064   1.700  2.4032 -0.6814 -0.1390
25785SOL    HW282203   9.492   6.149   1.745  0.9135 -0.3096  3.3438
25786SOL     OW82204   8.975   6.416   2.040 -0.6012  0.2593  0.6084
25786SOL    HW182205   9.009   6.448   2.124 -1.6892  1.3292  0.6718
25786SOL    HW282206   9.018   6.471   1.975  1.0499 -1.2585  0.3361
25787SOL     OW82207   6.964   5.877   1.285 -0.8137 -0.3767  0.8484
25787SOL    HW182208   7.023   5.942   1.245 -1.3951  0.1064  0.7652
25787SOL    HW282209   7.009   5.850   1.365 -0.6110  0.2134  0.9423
25788SOL     OW82210   0.471   4.983   0.642 -0.5917  0.2118 -0.4086
25788SOL    HW182211   0.521   4.978   0.724 -0.4851 -2.2542 -0.5644
25788SOL    HW282212   0.515   5.052   0.592  1.1422 -0.2035  0.4708
25789SOL     OW82213   8.096   5.929   1.025  0.2466  0.4849 -0.2793
25789SOL    HW182214   8.053   5.938   1.109 -0.1300 -0.8775 -0.3125
25789SOL    HW282215   8.188   5.949   1.043  0.1183  0.4918  0.3905
25790SOL     OW82216   8.008   3.640   9.711 -0.5677  0.1359  0.2130
25790SOL    HW182217   8.084   3.696   9.704 -0.4372 -0.0012  0.4810
25790SOL    HW282218   7.933   3.698   9.701 -0.4327  0.0453 -1.6627
25791SOL     OW82219   9.650   6.978   0.380  0.3956 -0.3806 -0.3535
25791SOL    HW182220   9.563   6.953   0.412  1.6771 -1.3748  2.7994
25791SOL    HW282221   9.696   6.895   0.370  1.0548  0.1471 -1.8716
25792SOL     OW82222   7.766   9.377   1.720  0.0849  0.0791  0.4551
25792SOL    HW182223   7.737   9.425   1.798 -0.6539  0.5236 -0.0829
25792SOL    HW282224   7.686   9.364   1.669  0.8879  2.0507 -1.4815
25793SOL     OW82225   8.273   4.055   0.700  0.0179 -0.0268  0.3256
25793SOL    HW182226   8.213   4.023   0.633  1.2834  2.9991 -2.5515
25793SOL    HW282227   8.357   4.013   0.680  0.6541  1.6595 -0.8008
25794SOL     OW82228   0.086   6.908   2.081 -0.0542  0.5176  0.2610
25794SOL    HW182229   0.178   6.903   2.057  0.0159 -0.7450  0.7151
25794SOL    HW282230   0.039   6.913   1.997  0.4402  2.1463  0.0465
25795SOL     OW82231   9.646   6.830   0.095 -0.4303  0.3375  0.1332
25795SOL    HW182232   9.610   6.750   0.132  1.2715  0.3275  1.8884
25795SOL    HW282233   9.592   6.900   0.132 -1.0309  0.1230 -0.3061
25796SOL     OW82234   7.761   6.036   9.343 -0.9669 -0.6484 -0.2781
25796SOL    HW182235   7.716   6.100   9.397 -0.6811 -0.4451 -0.2794
25796SOL    HW282236   7.805   6.088   9.275  0.6975 -0.6797  0.7191
25797SOL     OW82237   7.217   7.221   2.478  0.2736  0.0156 -0.1056
25797SOL    HW182238   7.174   7.227   2.392 -0.5277 -1.5377  0.1409
25797SOL    HW282239   7.296   7.171   2.460  0.8468  0.9356 -0.1724
25798SOL     OW82240   6.519   4.789   0.518 -0.0510  0.2345  0.0881
25798SOL    HW182241   6.501   4.855   0.585 -0.9890 -0.1935  0.2735
25798SOL    HW282242   6.604   4.814   0.483  0.8628 -0.0140  2.0094
25799SOL     OW82243   8.432   7.142   1.912  0.4676 -0.1430  0.2613
25799SOL    HW182244   8.396   7.231   1.912  0.6348 -0.0659 -0.5054
25799SOL    HW282245   8.393   7.101   1.834  1.2576 -0.3819 -0.0130
25800SOL     OW82246   6.633   2.569   8.073  0.0814 -0.6095 -0.0216
25800SOL    HW182247   6.599   2.479   8.074  1.6686 -1.4678 -4.1561
25800SOL    HW282248   6.722   2.561   8.110  0.3891 -0.8649 -0.8000
25801SOL     OW82249   7.609   6.214   1.536  0.5936  0.2324 -0.1888
25801SOL    HW182250   7.652   6.209   1.621  0.7524 -0.2772 -0.2925
25801SOL    HW282251   7.626   6.128   1.496 -0.3175  0.1157 -0.3292
25802SOL     OW82252   4.813   5.920   2.639 -0.0767  0.0104  0.8078
25802SOL    HW182253   4.824   5.927   2.545  0.8235 -2.3236  0.6593
25802SOL    HW282254   4.725   5.955   2.656 -1.3214 -1.8175 -1.2857
25803SOL     OW82255   6.685   3.949   8.723 -0.8309  0.9393  0.0752
25803SOL    HW182256   6.699   4.031   8.675  0.4850  0.2400 -0.8109
25803SOL    HW282257   6.737   3.960   8.803 -0.7405  1.0173  0.0067
25804SOL     OW82258   0.261   8.270   0.963  0.3787 -0.3509 -0.1535
25804SOL    HW182259   0.345   8.227   0.946  1.0883  0.9891 -0.1763
25804SOL    HW282260   0.214   8.208   1.018  1.0912 -1.4397 -0.7166
25805SOL     OW82261   7.773   5.718   1.382  0.0053  0.0872  0.6053
25805SOL    HW182262   7.846   5.768   1.418  0.0063  0.3518  0.2389
25805SOL    HW282263   7.703   5.730   1.447  0.1583  0.1644  0.7587
25806SOL     OW82264   9.212   6.852   9.789  0.0209  0.1730 -0.0176
25806SOL    HW182265   9.132   6.860   9.735  0.1333  0.5143 -0.1413
25806SOL    HW282266   9.220   6.759   9.806 -0.0453  0.0607 -0.5597
25807SOL     OW82267   6.067   5.047   9.543 -0.2019  0.0764  0.6284
25807SOL    HW182268   6.057   4.952   9.557  0.6708 -0.0105  0.6716
25807SOL    HW282269   5.978   5.081   9.552 -0.6606 -0.8431 -0.1721
25808SOL     OW82270   0.027   5.187   9.775 -0.5385  0.0380 -0.3487
25808SOL    HW182271   0.062   5.200   9.863 -0.3865 -0.7508 -0.2896
25808SOL    HW282272   0.066   5.105   9.745  0.6901  1.0716 -1.7805
25809SOL     OW82273   7.702   5.460   9.284 -1.0090  0.1927 -0.0879
25809SOL    HW182274   7.723   5.474   9.191 -1.3892  0.1176 -0.1890
25809SOL    HW282275   7.714   5.366   9.297 -1.0632  0.1854 -0.0909
25810SOL     OW82276   9.650   5.972   1.347 -0.3560 -0.2562  0.2646
25810SOL    HW182277   9.623   5.925   1.426 -0.3775 -1.3062 -0.3492
25810SOL    HW282278   9.673   6.059   1.378 -0.0508 -0.7467  1.4848
25811SOL     OW82279   8.542   7.357   8.686 -0.3910  0.5323  0.0200
25811SOL    HW182280   8.506   7.334   8.772  2.7791 -1.4606  0.9835
25811SOL    HW282281   8.490   7.306   8.624 -1.4207  0.4250  0.9314
25812SOL     OW82282   8.525   5.357   2.177 -0.0325 -0.3286 -0.0388
25812SOL    HW182283   8.434   5.382   2.190 -0.4561 -1.0121 -1.5095
25812SOL    HW282284   8.574   5.439   2.188 -0.9260  0.2411 -0.2012
25813SOL     OW82285   7.468   7.797   0.346  0.3517 -0.3876 -0.4600
25813SOL    HW182286   7.497   7.819   0.257  0.9705  1.0724  0.0801
25813SOL    HW282287   7.543   7.751   0.384  0.4263 -0.2267 -0.4101
25814SOL     OW82288   9.599   8.647   1.066 -0.2418  0.1384 -0.0883
25814SOL    HW182289   9.641   8.714   1.011 -1.7721  1.2900  0.0850
25814SOL    HW282290   9.600   8.568   1.011 -1.2107  1.1115 -1.5795
25815SOL     OW82291   6.477   6.479   9.019 -0.2937 -0.3372  0.0234
25815SOL    HW182292   6.418   6.554   9.024  0.9037  0.6320  0.1431
25815SOL    HW282293   6.457   6.437   8.936 -0.9253  0.1557 -0.0780
25816SOL     OW82294   9.049   6.242   8.915 -0.5960  0.0156  0.5113
25816SOL    HW182295   9.138   6.207   8.919  0.8914  3.5224  2.5372
25816SOL    HW282296   9.060   6.335   8.895 -3.8430  0.6025  0.7885
25817SOL     OW82297   8.340   4.273   9.274 -0.3737 -0.3830  0.2408
25817SOL    HW182298   8.291   4.206   9.322  1.6966 -1.5300  0.8815
25817SOL    HW282299   8.296   4.355   9.295 -2.0676 -1.3657  0.6611
25818SOL     OW82300   9.562   5.261   0.375 -0.7279 -0.5312  0.2361
25818SOL    HW182301   9.513   5.265   0.457 -0.5246 -0.6584  0.3629
25818SOL    HW282302   9.634   5.200   0.393  0.1101  0.4851  0.3841
25819SOL     OW82303   6.309   7.165   0.426  0.3074 -0.1757  0.5033
25819SOL    HW182304   6.294   7.189   0.335 -0.1523  1.6029  0.9954
25819SOL    HW282305   6.404   7.159   0.435  0.3220 -2.1260 -0.4611
25820SOL     OW82306   8.410   6.409   3.652  0.3013 -0.5358  0.2539
25820SOL    HW182307   8.452   6.490   3.626  1.8028 -1.6553 -0.9659
25820SOL    HW282308   8.453   6.341   3.600  0.2545 -2.3306  2.4005
25821SOL     OW82309   8.607   5.574   0.563 -0.3937  0.1963 -0.1530
25821SOL    HW182310   8.559   5.656   0.555 -0.0227  0.5078  0.6990
25821SOL    HW282311   8.681   5.583   0.504 -0.0698  0.6904  0.3226
25822SOL     OW82312   8.152   6.095   7.717  0.2210 -0.2311  0.3598
25822SOL    HW182313   8.102   6.039   7.777 -2.6105 -0.5980 -2.1484
25822SOL    HW282314   8.152   6.181   7.759 -2.1045 -0.3522  0.7124
25823SOL     OW82315   7.453   6.182   0.411  0.1303  0.4886 -0.2045
25823SOL    HW182316   7.487   6.271   0.420  0.0299  0.4282  0.8404
25823SOL    HW282317   7.528   6.126   0.429 -0.4740  0.3538  2.1575
25824SOL     OW82318   9.514   3.717   0.916  0.6842  0.3605  0.0220
25824SOL    HW182319   9.561   3.653   0.863 -1.9079 -1.5854 -0.1005
25824SOL    HW282320   9.512   3.679   1.004 -1.1587  0.0499 -0.1206
25825SOL     OW82321   7.970   5.716   0.576  0.2914  0.2994  0.1172
25825SOL    HW182322   7.918   5.795   0.559  1.7187  1.1801 -0.2975
25825SOL    HW282323   8.025   5.739   0.651  0.2447 -0.5433  0.4186
25826SOL     OW82324   7.796   4.622   0.401 -0.1649 -0.0153 -0.1812
25826SOL    HW182325   7.850   4.605   0.323  0.9023 -1.0636  0.7403
25826SOL    HW282326   7.859   4.644   0.469 -0.9718 -0.4741  0.7340
25827SOL     OW82327   8.032   4.567   9.262  0.4536  0.3130  0.1283
25827SOL    HW182328   7.996   4.573   9.351  0.1260 -0.5036  0.0605
25827SOL    HW282329   8.013   4.477   9.235  1.7411  0.1451 -0.2629
25828SOL     OW82330   6.385   6.338   1.563  0.2652  0.3094  0.1737
25828SOL    HW182331   6.398   6.249   1.596 -0.5046 -0.5418 -1.6575
25828SOL    HW282332   6.439   6.342   1.484  0.7186  1.6769  0.5149
25829SOL     OW82333   8.796   6.581   0.541 -0.3607 -0.1048 -0.1041
25829SOL    HW182334   8.816   6.530   0.463  0.4039  3.0233 -2.1432
25829SOL    HW282335   8.879   6.624   0.564 -1.0412  0.5526  1.2626
25830SOL     OW82336   7.465   7.167   0.304  0.2797 -0.3329 -0.7562
25830SOL    HW182337   7.387   7.129   0.343 -0.5799 -0.6515 -2.7077
25830SOL    HW282338   7.514   7.202   0.379 -3.0072  2.3844  0.3838
25831SOL     OW82339   2.202   9.739   1.555 -0.0481 -0.5801  0.0318
25831SOL    HW182340   2.115   9.769   1.529  0.3641  1.8415  1.1336
25831SOL    HW282341   2.228   9.799   1.625  2.4878 -1.2398 -0.2339
25832SOL     OW82342   7.131   5.009   3.522  0.1076 -0.1424 -0.4062
25832SOL    HW182343   7.177   5.038   3.444 -0.2507  0.9417 -0.2331
25832SOL    HW282344   7.088   5.088   3.556 -0.6313 -0.8113  0.2748
25833SOL     OW82345   5.030   7.205   1.373  0.7051  0.0736  0.2374
25833SOL    HW182346   5.080   7.127   1.397 -0.3655 -0.3384  1.2564
25833SOL    HW282347   4.985   7.180   1.292 -0.0846 -0.6003  0.8616
25834SOL     OW82348   0.457   5.549   3.739  0.1758 -0.2829 -0.0904
25834SOL    HW182349   0.390   5.492   3.778  0.0549 -0.5311 -0.6586
25834SOL    HW282350   0.487   5.502   3.661  3.0263 -1.5642  1.5872
25835SOL     OW82351   8.206   5.981   2.567 -1.1954 -0.3463  0.1888
25835SOL    HW182352   8.220   5.906   2.508  1.2958  0.4881 -0.4265
25835SOL    HW282353   8.144   6.037   2.520 -1.2096 -0.8895 -0.4570
25836SOL     OW82354   6.595   7.374   2.935  0.7918 -0.1810 -0.4413
25836SOL    HW182355   6.679   7.328   2.925  1.1483  0.5176 -0.8222
25836SOL    HW282356   6.539   7.312   2.981  1.4070 -0.8027 -0.4961
25837SOL     OW82357   9.080   6.124   0.973  0.1717  0.1100  0.1787
25837SOL    HW182358   9.138   6.067   1.022  0.5338 -0.0938 -0.4734
25837SOL    HW282359   9.138   6.173   0.914 -0.2476  0.3779 -0.0216
25838SOL     OW82360   7.307   5.305   0.983 -0.6086  0.1891  0.7473
25838SOL    HW182361   7.324   5.323   1.075  0.5569 -0.0258  0.5807
25838SOL    HW282362   7.343   5.380   0.936 -0.6176 -0.0108  0.4161
25839SOL     OW82363   9.321   6.792   1.346 -0.0962  0.4053 -0.3573
25839SOL    HW182364   9.321   6.812   1.439 -2.0617  1.2258 -0.4671
25839SOL    HW282365   9.336   6.697   1.341 -0.0544  0.3435  0.7888
25840SOL     OW82366   7.216   6.102   8.515  0.5364 -0.2463  0.5063
25840SOL    HW182367   7.139   6.154   8.538  0.3507 -0.7073  0.9489
25840SOL    HW282368   7.260   6.152   8.446 -0.8999 -0.6437 -0.7449
25841SOL     OW82369   8.375   7.374   9.693 -0.3579 -0.4218  0.2230
25841SOL    HW182370   8.420   7.316   9.755 -0.3570 -0.0311  0.5944
25841SOL    HW282371   8.292   7.395   9.736 -0.0563  0.4147  0.4129
25842SOL     OW82372   9.449   6.322   0.201 -0.5707 -0.2209  0.0313
25842SOL    HW182373   9.484   6.291   0.284 -1.8927  1.4003  1.2662
25842SOL    HW282374   9.436   6.416   0.214 -0.6835  0.0960 -2.0616
25843SOL     OW82375   7.644   8.801   1.549 -0.2892  0.0632 -0.2975
25843SOL    HW182376   7.605   8.881   1.513  1.9289  0.9906 -0.7930
25843SOL    HW282377   7.727   8.791   1.502  0.0323 -1.9013  0.5782
25844SOL     OW82378   7.245   7.070   9.859  0.2673  0.3074 -0.3456
25844SOL    HW182379   7.173   7.015   9.892 -0.0817 -0.4486 -2.2104
25844SOL    HW282380   7.324   7.031   9.896 -0.1413 -0.1616  0.0483
25845SOL     OW82381   7.407   4.524   8.954 -0.1192  0.2931  0.6015
25845SOL    HW182382   7.369   4.472   9.025  0.2805  0.9558  1.3101
25845SOL    HW282383   7.496   4.543   8.983 -0.2915  1.4614  0.4032
25846SOL     OW82384   9.740   5.356   8.166  0.3455 -0.2701 -0.0840
25846SOL    HW182385   9.691   5.275   8.180  0.2105 -0.4451 -1.4924
25846SOL    HW282386   9.827   5.327   8.138  0.2293  0.0717 -0.8152
25847SOL     OW82387   1.199   6.672   1.310  0.5148  0.1099 -0.5976
25847SOL    HW182388   1.223   6.590   1.267  0.7600  0.9770 -2.2033
25847SOL    HW282389   1.274   6.693   1.366  0.3816 -0.8339 -0.0619
25848SOL     OW82390   0.272   4.742   1.021 -0.5442 -0.0683  0.1807
25848SOL    HW182391   0.195   4.691   0.999 -1.5666  2.3673 -2.6069
25848SOL    HW282392   0.332   4.728   0.948  0.5094  0.2018  0.9641
25849SOL     OW82393   0.059   7.753   7.907 -0.1808  0.4240 -0.2732
25849SOL    HW182394  -0.000   7.695   7.956 -0.1524 -1.0782 -1.9084
25849SOL    HW282395   0.132   7.768   7.966  0.2140 -1.9417 -0.0544
25850SOL     OW82396   7.202   4.432   1.375 -0.1388  0.2488 -0.8078
25850SOL    HW182397   7.165   4.464   1.293  0.1991 -0.7075 -1.3559
25850SOL    HW282398   7.293   4.409   1.352  0.6919  2.1359  0.3895
25851SOL     OW82399   8.673   5.132   2.013 -0.5509  0.4465 -0.1685
25851SOL    HW182400   8.583   5.097   2.007 -0.1709 -0.6283  0.1215
25851SOL    HW282401   8.726   5.068   1.965 -0.0933  1.7395 -1.4593
25852SOL     OW82402   9.300   6.845   3.799  0.2687  0.2770  0.3601
25852SOL    HW182403   9.343   6.930   3.800 -0.2928  0.5813 -0.2651
25852SOL    HW282404   9.339   6.799   3.725  0.9117 -0.2036  0.9807
25853SOL     OW82405   8.084   5.734   8.419 -0.1273  0.3027  0.1379
25853SOL    HW182406   8.152   5.745   8.486  0.1585 -1.2218  0.1509
25853SOL    HW282407   8.061   5.823   8.393 -0.4833  0.9622  2.4848
25854SOL     OW82408   9.408   6.922   1.700  0.0912  0.9390 -0.3166
25854SOL    HW182409   9.425   6.829   1.688 -0.3207  0.8033  0.1232
25854SOL    HW282410   9.488   6.966   1.670  0.5830  0.4086  0.2066
25855SOL     OW82411   6.981   6.882   1.767 -0.2021  0.4379  0.4949
25855SOL    HW182412   7.063   6.878   1.817 -0.4373 -1.8808  0.7569
25855SOL    HW282413   6.913   6.895   1.832 -0.3143 -0.5104  0.5660
25856SOL     OW82414   8.668   6.600   0.893  0.7368  0.0991  0.3059
25856SOL    HW182415   8.646   6.549   0.971  1.8495 -0.6877  0.1173
25856SOL    HW282416   8.736   6.550   0.849  0.7770  0.9945 -0.6935
25857SOL     OW82417   5.694   5.642   1.698 -0.3419  0.6495  0.5070
25857SOL    HW182418   5.700   5.556   1.656 -0.5945  0.0145  1.7174
25857SOL    HW282419   5.649   5.697   1.634 -0.9371 -0.3502  0.0398
25858SOL     OW82420   8.003   6.647   2.707 -0.4323 -0.1931 -0.0591
25858SOL    HW182421   7.996   6.579   2.775 -1.8965 -0.4610 -0.4351
25858SOL    HW282422   7.961   6.608   2.631 -2.0113  1.4032 -0.0661
25859SOL     OW82423   8.858   6.679   0.173 -0.0201  0.2326 -0.8695
25859SOL    HW182424   8.806   6.757   0.192  1.5418  1.3018 -0.8276
25859SOL    HW282425   8.949   6.706   0.189  0.6559 -1.2607 -1.9438
25860SOL     OW82426   6.458   3.918   2.027  0.1227 -0.3252 -0.0305
25860SOL    HW182427   6.522   3.874   2.082  0.9231 -0.6822 -1.2172
25860SOL    HW282428   6.485   3.899   1.938 -0.9886  0.4672 -0.5677
25861SOL     OW82429   8.339   5.314   0.031 -0.1335 -0.2741 -0.0835
25861SOL    HW182430   8.250   5.329   0.065  0.7039 -0.8362  2.6373
25861SOL    HW282431   8.383   5.398   0.039  0.2389 -0.5425  0.9275
25862SOL     OW82432   8.451   4.185   0.851 -0.1015 -0.5449 -0.2792
25862SOL    HW182433   8.508   4.110   0.867  0.8448 -0.0118 -1.0711
25862SOL    HW282434   8.382   4.151   0.793 -1.2194 -1.4483  1.4810
25863SOL     OW82435   7.353   6.603   1.378  0.3859  0.0476 -0.0645
25863SOL    HW182436   7.365   6.584   1.471 -0.4243  1.2426  0.2944
25863SOL    HW282437   7.270   6.650   1.373  0.1608 -0.4533 -1.4621
25864SOL     OW82438   8.435   6.275   2.458 -0.0579  0.4797 -0.0808
25864SOL    HW182439   8.473   6.316   2.536  0.0330  1.5803 -0.6840
25864SOL    HW282440   8.351   6.240   2.488  0.3997  0.0362  0.7302
25865SOL     OW82441   8.762   5.579   1.372  0.3865  0.4625 -0.1074
25865SOL    HW182442   8.783   5.616   1.458  0.5569 -0.4357  0.2444
25865SOL    HW282443   8.804   5.493   1.372 -1.5191 -0.5310 -0.1840
25866SOL     OW82444   9.427   5.770   8.203  0.6621 -0.8909 -0.7200
25866SOL    HW182445   9.500   5.833   8.209 -0.2418  0.4457 -2.4850
25866SOL    HW282446   9.456   5.707   8.137  0.8248 -1.2504 -0.3064
25867SOL     OW82447   0.501   8.432   1.250 -0.7228  0.1352  0.6201
25867SOL    HW182448   0.494   8.459   1.159  1.2028 -2.3531 -0.3998
25867SOL    HW282449   0.578   8.480   1.283 -0.5213 -0.0803  0.4664
25868SOL     OW82450   9.146   7.352   9.263 -0.0529  0.0176 -0.0532
25868SOL    HW182451   9.132   7.409   9.339  0.3324 -0.1719  0.1657
25868SOL    HW282452   9.151   7.264   9.300 -0.1449 -0.1055 -0.3320
25869SOL     OW82453   9.326   5.636   2.393  0.3833 -0.1921  0.1933
25869SOL    HW182454   9.387   5.572   2.356  0.6242  0.2531 -0.2044
25869SOL    HW282455   9.371   5.669   2.471  0.1915 -0.6141  0.4837
25870SOL     OW82456   7.229   5.101   2.690  0.0405 -0.6600 -0.0808
25870SOL    HW182457   7.311   5.106   2.641  0.0601  3.2000  0.0518
25870SOL    HW282458   7.164   5.138   2.631 -0.6975  0.4392  1.3699
25871SOL     OW82459   0.177   4.768   1.837  0.5887 -0.1254 -0.1986
25871SOL    HW182460   0.217   4.744   1.753 -0.0388 -1.1636 -0.2193
25871SOL    HW282461   0.159   4.684   1.880  0.5090  0.3825  0.7965
25872SOL     OW82462   7.415   7.044   1.326 -0.4963  0.4019 -0.3694
25872SOL    HW182463   7.391   7.123   1.375 -1.3484 -0.5013  0.6879
25872SOL    HW282464   7.335   6.993   1.320  0.1421 -0.5983 -0.6639
25873SOL     OW82465   8.323   6.974   0.675 -0.4722  0.1699 -0.5197
25873SOL    HW182466   8.356   6.889   0.703  1.5976  0.8664 -0.6710
25873SOL    HW282467   8.314   6.966   0.580 -0.9049 -0.0663 -0.4620
25874SOL     OW82468   8.439   6.658   2.045 -0.6347 -0.1790 -0.2363
25874SOL    HW182469   8.427   6.610   2.127 -0.9898  0.7448  0.2620
25874SOL    HW282470   8.358   6.708   2.034 -0.2646  0.3273 -0.7267
25875SOL     OW82471   6.753   5.611   1.901  0.6389  0.1555  0.2906
25875SOL    HW182472   6.824   5.674   1.887  0.3945  0.3464 -0.1180
25875SOL    HW282473   6.706   5.610   1.817  0.9067 -0.9040  0.1404
25876SOL     OW82474   8.759   5.551   9.715  0.1861 -0.3327  0.1370
25876SOL    HW182475   8.756   5.559   9.619  2.3076  1.2889  0.1411
25876SOL    HW282476   8.780   5.459   9.731  3.1626  0.0165 -1.1410
25877SOL     OW82477   7.408   3.755   0.385 -0.0231 -0.0307  0.0780
25877SOL    HW182478   7.329   3.799   0.419  0.4548 -0.5298  1.9898
25877SOL    HW282479   7.378   3.666   0.364  0.2098 -0.6537  2.0717
25878SOL     OW82480   7.865   7.595   2.126 -0.5281  0.4742  0.5855
25878SOL    HW182481   7.788   7.639   2.160 -1.1609  1.2639 -1.6980
25878SOL    HW282482   7.872   7.625   2.035  0.7329 -1.8728 -0.1824
25879SOL     OW82483   9.050   6.143   0.272  0.3820 -0.3121  0.1101
25879SOL    HW182484   9.071   6.225   0.228 -2.0403 -0.7526 -2.1187
25879SOL    HW282485   8.978   6.166   0.331  1.9696 -0.2279  2.1007
25880SOL     OW82486   0.066   4.416   0.541 -0.3649 -0.0843  0.0427
25880SOL    HW182487  -0.002   4.452   0.484  0.1253 -0.4020 -0.7503
25880SOL    HW282488   0.069   4.476   0.616 -2.2141 -0.6112  0.5943
25881SOL     OW82489   7.738   7.899   2.990  0.4908  0.0888  0.5078
25881SOL    HW182490   7.757   7.879   2.898 -0.8291  2.0996 -0.2687
25881SOL    HW282491   7.644   7.915   2.992  0.4868  0.0827  2.2452
25882SOL     OW82492   7.209   5.964   2.101  0.3077  0.0700 -0.2060
25882SOL    HW182493   7.302   5.981   2.084  0.0542  2.0026  0.1189
25882SOL    HW282494   7.209   5.890   2.161  1.5163 -1.4727 -1.9891
25883SOL     OW82495   8.986   5.143   0.819  0.3245 -0.3474 -0.5509
25883SOL    HW182496   9.056   5.200   0.852  0.6552 -0.8242 -0.4171
25883SOL    HW282497   8.909   5.199   0.815  0.6970  0.1640 -0.6205
25884SOL     OW82498   7.877   7.705   2.623 -0.0276  0.1105 -0.0209
25884SOL    HW182499   7.955   7.759   2.637  0.1143  0.4398 -1.8258
25884SOL    HW282500   7.830   7.749   2.552 -2.3649  0.4221  1.6023
25885SOL     OW82501   7.469   6.551   1.976  0.3085  0.3533 -0.0165
25885SOL    HW182502   7.483   6.463   1.942  0.1689  0.4057 -0.2097
25885SOL    HW282503   7.495   6.546   2.068 -0.4963 -0.1008  0.1896
25886SOL     OW82504   8.505   5.796   0.410 -0.7406  0.0906  0.2461
25886SOL    HW182505   8.486   5.790   0.317  1.4797 -1.3805 -0.1884
25886SOL    HW282506   8.541   5.885   0.421 -0.5230  0.0904 -0.4071
25887SOL     OW82507   9.603   7.812   0.606 -0.5797  0.3594 -0.2827
25887SOL    HW182508   9.591   7.724   0.569 -0.3347 -0.8811  2.3512
25887SOL    HW282509   9.517   7.835   0.641 -0.1820  0.3001  0.7555
25888SOL     OW82510   6.819   8.884   0.779 -0.2748  0.1704  0.1527
25888SOL    HW182511   6.886   8.949   0.758  0.2065 -0.3434  0.0399
25888SOL    HW282512   6.738   8.920   0.742  0.2610  0.0215 -1.2504
25889SOL     OW82513   0.685   7.302   8.813 -0.2333  0.4896 -0.3485
25889SOL    HW182514   0.620   7.370   8.829  0.9388  1.5468  0.1519
25889SOL    HW282515   0.769   7.344   8.834  0.6172 -0.8042 -1.0174
25890SOL     OW82516   6.355   5.395   3.073 -0.7144  0.2944 -0.4113
25890SOL    HW182517   6.295   5.436   3.011  0.4505  0.7010 -1.2860
25890SOL    HW282518   6.438   5.441   3.062 -0.6057  0.7732  1.8703
25891SOL     OW82519   0.041   2.353   1.377  0.2236 -0.4028 -0.1321
25891SOL    HW182520   0.025   2.440   1.342  1.0789  0.2860  1.1234
25891SOL    HW282521   0.129   2.330   1.347 -0.7221 -1.7226 -2.1336
25892SOL     OW82522   9.225   5.996   0.088  0.3330 -0.8060  0.6874
25892SOL    HW182523   9.303   6.026   0.133  1.4753  1.3215 -2.3312
25892SOL    HW282524   9.153   6.044   0.129  0.9024 -0.9744  1.9236
25893SOL     OW82525   0.146   6.889   0.730  0.3709 -0.3313  0.2493
25893SOL    HW182526   0.133   6.800   0.698 -2.1958 -0.1100  0.4413
25893SOL    HW282527   0.073   6.939   0.693  0.8321  1.3281  1.4320
25894SOL     OW82528   6.278   6.053   1.632  0.0286 -0.1857 -0.1733
25894SOL    HW182529   6.215   5.982   1.642  0.2372 -0.6507 -1.9288
25894SOL    HW282530   6.360   6.011   1.607  0.7934  0.5079  1.0359
25895SOL     OW82531   8.160   7.989   0.205  0.1308  0.1384 -0.4831
25895SOL    HW182532   8.183   8.047   0.133 -0.0813  1.0119  0.1229
25895SOL    HW282533   8.112   7.917   0.165 -2.7020  2.1033 -0.9484
25896SOL     OW82534   0.812   8.438   0.359 -0.3295  0.2176 -0.4765
25896SOL    HW182535   0.804   8.390   0.276  1.1791 -0.5158 -0.2430
25896SOL    HW282536   0.865   8.381   0.414 -0.7036  1.0217  0.7530
25897SOL     OW82537   7.649   7.012   9.625  0.0904  0.2913  0.3646
25897SOL    HW182538   7.646   6.923   9.589 -0.4956  0.3579  0.2459
25897SOL    HW282539   7.558   7.034   9.644  0.1959  0.9873  0.0931
25898SOL     OW82540   9.618   6.858   8.681  0.1116 -0.8694  0.7067
25898SOL    HW182541   9.657   6.912   8.749 -1.1905  0.1711  0.6827
25898SOL    HW282542   9.532   6.835   8.716 -1.2211  0.9363 -1.1047
25899SOL     OW82543   9.068   7.097   3.034  0.2153 -0.2414  0.3060
25899SOL    HW182544   9.016   7.149   2.973 -2.2922 -0.5570  2.0075
25899SOL    HW282545   9.127   7.160   3.075 -0.4670  0.6412 -0.0319
25900SOL     OW82546   6.386   5.084   7.990 -0.1590  0.3938 -0.2210
25900SOL    HW182547   6.461   5.079   8.051  1.0495  1.7501 -1.4976
25900SOL    HW282548   6.426   5.088   7.904 -1.7975 -0.1522 -1.0420
25901SOL     OW82549   6.940   6.331   1.826  0.4596 -0.4428  0.0149
25901SOL    HW182550   6.889   6.399   1.871 -0.6891  0.8213 -2.9323
25901SOL    HW282551   6.892   6.314   1.745  2.4833 -2.4085 -0.8864
25902SOL     OW82552   5.660   7.477   1.072 -0.5606  0.0123  0.2680
25902SOL    HW182553   5.590   7.540   1.085 -0.7616 -0.5238  2.0563
25902SOL    HW282554   5.737   7.518   1.112 -1.2616 -1.8203  3.8733
25903SOL     OW82555   7.488   8.333   0.320  0.2446 -0.0340  1.0239
25903SOL    HW182556   7.438   8.394   0.374  0.4322  0.3559  0.7555
25903SOL    HW282557   7.452   8.247   0.342 -1.2537  0.3260  0.0610
25904SOL     OW82558   0.270   8.093   2.397 -0.5164 -0.1137  0.0243
25904SOL    HW182559   0.274   8.185   2.371  0.9383 -0.5145 -1.3239
25904SOL    HW282560   0.271   8.044   2.315 -0.8242 -1.3493  0.7321
25905SOL     OW82561   8.390   5.182   2.019  0.0844 -0.3816  0.1932
25905SOL    HW182562   8.333   5.245   1.974 -0.0287 -0.1164  0.7048
25905SOL    HW282563   8.443   5.236   2.077  0.0159 -0.7622  0.6094
25906SOL     OW82564   8.810   7.441   0.995  0.8093  0.1040  0.6590
25906SOL    HW182565   8.863   7.409   0.923 -1.0955 -0.4183 -0.5903
25906SOL    HW282566   8.780   7.362   1.040 -2.1228  0.0548 -1.1164
25907SOL     OW82567   8.399   7.347   0.599 -0.0448 -0.2342  1.0490
25907SOL    HW182568   8.363   7.423   0.645 -0.3301 -0.3966  1.0952
25907SOL    HW282569   8.493   7.354   0.613  0.1344  1.1619 -0.5431
25908SOL     OW82570   6.211   5.953   2.181 -0.2314 -0.0723 -0.6387
25908SOL    HW182571   6.245   5.883   2.236 -2.0610  1.4766  2.8465
25908SOL    HW282572   6.167   5.908   2.109  1.2563 -2.3301 -0.2323
25909SOL     OW82573   6.860   7.650   3.712  0.0644  0.4336  0.2735
25909SOL    HW182574   6.936   7.613   3.666 -0.5694 -1.8287  0.8768
25909SOL    HW282575   6.797   7.578   3.713 -2.3196  2.3781 -0.6080
25910SOL     OW82576   7.025   4.879   0.650 -0.1449 -0.0169  0.6133
25910SOL    HW182577   7.000   4.968   0.674 -1.2472 -0.4136  0.9912
25910SOL    HW282578   7.092   4.891   0.582  0.4620  1.0929  1.3708
25911SOL     OW82579   8.441   4.912   0.847 -0.1202  0.4439  0.6457
25911SOL    HW182580   8.349   4.887   0.842 -0.1569  0.7573 -0.4562
25911SOL    HW282581   8.475   4.864   0.923 -0.9125 -0.5414  0.3917
25912SOL     OW82582   1.254   3.945   7.691  0.6535 -0.3358 -0.1715
25912SOL    HW182583   1.162   3.937   7.667  0.5534 -1.6407  0.5638
25912SOL    HW282584   1.256   4.014   7.758 -0.3037 -2.3800  2.1220
25913SOL     OW82585   9.052   7.374   2.501  0.2931 -0.0697 -0.2951
25913SOL    HW182586   8.984   7.438   2.481  1.8021  1.9411  0.6859
25913SOL    HW282587   9.004   7.295   2.527 -1.6385  1.0122 -0.3918
25914SOL     OW82588   6.054   5.459   9.592  0.1756  0.0770 -0.1230
25914SOL    HW182589   5.966   5.484   9.565  0.6713 -0.6740 -2.8011
25914SOL    HW282590   6.044   5.374   9.634 -0.2907 -0.5408 -1.4436
25915SOL     OW82591   9.142   5.542   9.678  0.0777  0.0699  0.1529
25915SOL    HW182592   9.232   5.563   9.704  0.7862 -0.9107 -1.4247
25915SOL    HW282593   9.111   5.483   9.747 -0.0887  1.9218  1.7622
25916SOL     OW82594   8.862   6.400   0.164 -0.7244  0.1737 -0.2129
25916SOL    HW182595   8.879   6.495   0.163  0.2515  0.0216  0.4276
25916SOL    HW282596   8.864   6.376   0.256 -2.2972 -0.2682 -0.2647
25917SOL     OW82597   8.611   3.105   0.230  0.0746 -0.0015  0.0168
25917SOL    HW182598   8.571   3.033   0.278  1.4598 -2.2001 -1.9168
25917SOL    HW282599   8.562   3.109   0.148  0.6779  0.5705 -0.3258
25918SOL     OW82600   6.809   6.892   1.306 -0.4759  0.4255  0.2195
25918SOL    HW182601   6.724   6.907   1.265 -0.5530 -0.7647 -0.1032
25918SOL    HW282602   6.790   6.839   1.383  0.2465 -3.3993 -1.9877
25919SOL     OW82603   8.223   7.511   3.047  0.3704 -0.7231 -0.3139
25919SOL    HW182604   8.263   7.425   3.057  1.4683 -0.2241 -0.3310
25919SOL    HW282605   8.272   7.553   2.976  0.9884  0.5498  0.8112
25920SOL     OW82606   9.089   7.479   0.412 -0.1289 -0.1675 -0.4408
25920SOL    HW182607   9.100   7.386   0.389  2.6889 -0.0939  0.2000
25920SOL    HW282608   9.156   7.524   0.361 -0.8653  1.4196 -0.0628
25921SOL     OW82609   7.122   5.097   0.948  0.0310 -0.4047 -0.1567
25921SOL    HW182610   7.191   5.036   0.923  0.1444 -0.2934 -0.1156
25921SOL    HW282611   7.168   5.177   0.973 -0.1616 -0.0235 -0.9907
25922SOL     OW82612   9.291   6.514   3.717  0.0963 -0.0164 -0.3309
25922SOL    HW182613   9.276   6.429   3.677 -1.8719 -0.4561  1.1611
25922SOL    HW282614   9.363   6.500   3.778 -1.3063 -1.1551  1.1721
25923SOL     OW82615   0.163   7.510   1.571  0.0543 -0.3598 -0.4503
25923SOL    HW182616   0.078   7.471   1.553  0.1259 -0.8916  0.3546
25923SOL    HW282617   0.146   7.575   1.639  0.4075 -1.0046  0.2711
25924SOL     OW82618   7.502   6.152   2.445 -0.5232  0.6572  0.0648
25924SOL    HW182619   7.543   6.139   2.531 -0.7752 -2.0697 -0.1392
25924SOL    HW282620   7.469   6.242   2.448  1.0437  1.2526  2.1201
25925SOL     OW82621   7.908   6.901   0.789 -0.0025 -0.1472 -0.3594
25925SOL    HW182622   7.881   6.936   0.704  0.5712  1.0135 -0.0868
25925SOL    HW282623   7.986   6.848   0.770  0.4743  0.5839 -0.5004
25926SOL     OW82624   7.589   8.107   9.371  0.2888  0.2541 -0.1106
25926SOL    HW182625   7.590   8.183   9.430 -0.0194  0.0836  0.1101
25926SOL    HW282626   7.609   8.145   9.285  1.7352  0.3667  0.2529
25927SOL     OW82627   8.211   6.880   1.086  0.4370 -0.3320 -0.2280
25927SOL    HW182628   8.172   6.933   1.017  2.4013 -0.4408 -1.5289
25927SOL    HW282629   8.283   6.933   1.119  0.6230 -1.0082  0.4895
25928SOL     OW82630   9.158   5.065   0.575  0.0906 -0.3365 -0.0662
25928SOL    HW182631   9.239   5.106   0.604 -0.4001  3.0931 -2.8432
25928SOL    HW282632   9.093   5.093   0.640  0.4748 -0.0259  0.1905
25929SOL     OW82633   8.303   6.019   1.836  0.3285  0.3568  0.0621
25929SOL    HW182634   8.358   5.942   1.831 -0.0664  0.0747  0.0033
25929SOL    HW282635   8.349   6.079   1.894  2.8357  1.8801 -3.1537
25930SOL     OW82636   8.245   6.708   1.319  0.2423  0.4700 -0.8184
25930SOL    HW182637   8.216   6.621   1.291 -0.8125  0.3179  0.6350
25930SOL    HW282638   8.236   6.762   1.241 -1.2551 -0.2335 -1.1854
25931SOL     OW82639   8.646   5.658   1.149 -0.7451  0.4923  0.8516
25931SOL    HW182640   8.705   5.665   1.074 -1.7554 -1.0758 -0.1507
25931SOL    HW282641   8.704   5.658   1.226  0.3061  2.1356  0.0947
25932SOL     OW82642   7.356   5.198   2.040 -0.0058  0.5247 -0.0006
25932SOL    HW182643   7.323   5.135   2.104  0.6067  1.5886  1.4077
25932SOL    HW282644   7.331   5.161   1.955  1.3052 -2.1650  0.6946
25933SOL     OW82645   2.293   6.335   7.742 -0.1768  0.0525 -0.1904
25933SOL    HW182646   2.310   6.256   7.793 -1.2266  1.0905  1.8924
25933SOL    HW282647   2.379   6.374   7.728  0.2338 -0.8552 -0.2350
25934SOL     OW82648   8.630   5.408   1.633 -0.0494  0.7799 -0.0784
25934SOL    HW182649   8.601   5.439   1.548 -1.4566 -1.3647 -0.4640
25934SOL    HW282650   8.696   5.341   1.613  0.7661  1.3739  0.5799
25935SOL     OW82651   9.103   7.680   9.816 -0.0699 -0.3183 -0.2861
25935SOL    HW182652   9.058   7.764   9.818 -1.0319 -0.8307  1.9066
25935SOL    HW282653   9.047   7.623   9.762  0.4257  0.3024 -1.5062
25936SOL     OW82654   9.735   5.062   0.474  0.1122  0.1020 -0.3683
25936SOL    HW182655   9.826   5.044   0.450  0.1674  0.2630 -0.2810
25936SOL    HW282656   9.736   5.064   0.570 -0.1483 -0.7594 -0.3412
25937SOL     OW82657   7.439   3.952   0.717 -0.0665  0.6960  0.2720
25937SOL    HW182658   7.351   3.988   0.707 -0.0720  0.3265 -1.5131
25937SOL    HW282659   7.497   4.026   0.699 -0.0690  0.4098 -1.0885
25938SOL     OW82660   7.102   7.783   0.995  0.2895  0.2082 -0.3753
25938SOL    HW182661   7.160   7.749   0.926  0.1867  0.0497 -0.3839
25938SOL    HW282662   7.160   7.831   1.054  0.1218  2.1025 -1.6491
25939SOL     OW82663   8.640   6.339   0.555  0.3147  0.2999 -0.1332
25939SOL    HW182664   8.602   6.321   0.641  1.7418 -1.1972  0.2217
25939SOL    HW282665   8.658   6.433   0.556 -0.6395  0.4863  0.7980
25940SOL     OW82666   8.684   4.009   8.444  0.2555 -0.4921 -0.1085
25940SOL    HW182667   8.650   4.075   8.505  1.2587 -1.5495  1.6916
25940SOL    HW282668   8.631   3.931   8.461  1.1410 -1.0658  0.0734
25941SOL     OW82669   7.065   4.370   9.055  0.1486 -0.2599 -0.1115
25941SOL    HW182670   7.073   4.458   9.093 -0.1053  0.4185 -1.5328
25941SOL    HW282671   6.999   4.327   9.109 -1.0375  1.0561 -0.4406
25942SOL     OW82672   7.078   6.014   7.749 -0.0825  0.3603 -0.0995
25942SOL    HW182673   7.158   6.055   7.783 -1.2061  0.9589  1.9935
25942SOL    HW282674   7.083   6.028   7.654  2.0228  0.8272  0.0183
25943SOL     OW82675   9.145   6.819   2.981 -0.3447  0.2550 -0.5281
25943SOL    HW182676   9.065   6.775   2.955 -1.7470  0.3699  3.0163
25943SOL    HW282677   9.116   6.904   3.015  1.0825  0.0286  1.5017
25944SOL     OW82678   7.831   7.776   3.932 -0.5622 -0.1678  0.5572
25944SOL    HW182679   7.808   7.817   3.849 -1.2668 -0.7372  0.4599
25944SOL    HW282680   7.910   7.725   3.913 -0.8865 -0.5272  0.1617
25945SOL     OW82681   9.106   3.285   3.067  0.0737 -0.9874  0.5454
25945SOL    HW182682   9.184   3.300   3.120  0.6664  4.4425 -1.2075
25945SOL    HW282683   9.033   3.313   3.122  0.1211 -0.0930  0.1644
25946SOL     OW82684   7.544   5.171   5.213 -0.3350  1.1992  0.1435
25946SOL    HW182685   7.628   5.131   5.194 -0.9229  0.1774 -0.3802
25946SOL    HW282686   7.557   5.264   5.194  0.3316  0.8648 -1.1452
25947SOL     OW82687   8.408   5.869   1.523  0.3575  0.4074  0.5952
25947SOL    HW182688   8.375   5.840   1.608  2.5287 -0.3733  1.2475
25947SOL    HW282689   8.394   5.794   1.465 -2.8486  1.5648 -0.3578
25948SOL     OW82690   0.439   4.731   4.289  0.8132  0.3925  0.3808
25948SOL    HW182691   0.495   4.723   4.366  0.9700  1.9971  0.4690
25948SOL    HW282692   0.365   4.784   4.318  0.1612 -0.1587 -0.2224
25949SOL     OW82693   6.884   5.215   2.675 -0.5389  0.0954  0.5900
25949SOL    HW182694   6.939   5.198   2.598 -1.9892 -1.0992 -0.2166
25949SOL    HW282695   6.863   5.128   2.709 -2.6392  0.4842  0.3626
25950SOL     OW82696   6.627   7.899   5.078  0.5847  0.2866 -0.1836
25950SOL    HW182697   6.625   7.930   4.987 -2.1826  1.4364  0.1784
25950SOL    HW282698   6.539   7.917   5.112  0.3258 -3.5026  1.6592
25951SOL     OW82699   7.989   8.957   3.818 -0.0112 -0.1131 -0.4377
25951SOL    HW182700   8.025   8.869   3.826 -1.2725 -0.5396  0.9458
25951SOL    HW282701   7.996   8.977   3.725 -0.3243 -1.9625 -0.9066
25952SOL     OW82702   9.349   8.248   1.271  0.2224  0.0915  0.0174
25952SOL    HW182703   9.416   8.299   1.318  1.7785 -1.2153 -0.6778
25952SOL    HW282704   9.286   8.313   1.241  0.8007  1.3002  1.2897
25953SOL     OW82705   7.062   5.191   2.455 -0.3370  0.3700  0.0693
25953SOL    HW182706   7.112   5.130   2.401 -1.6866  0.3857 -1.2641
25953SOL    HW282707   6.988   5.216   2.400 -0.6098  2.0717  1.1521
25954SOL     OW82708   7.089   5.436   3.167 -0.5741  0.1127 -0.7995
25954SOL    HW182709   7.145   5.435   3.089 -1.3160  0.6545 -1.3519
25954SOL    HW282710   7.075   5.529   3.185 -1.0679 -0.0183 -0.4960
25955SOL     OW82711   9.309   4.766   3.122 -0.0914 -0.2290  0.4654
25955SOL    HW182712   9.269   4.853   3.122 -0.0914 -0.2289  0.3295
25955SOL    HW282713   9.295   4.733   3.034 -1.7873 -1.1514  1.0308
25956SOL     OW82714   9.556   3.760   4.284  0.3692  0.0291 -0.0220
25956SOL    HW182715   9.525   3.670   4.272  0.0620 -0.0898  1.4930
25956SOL    HW282716   9.625   3.770   4.218 -0.7153 -0.7446 -1.3314
25957SOL     OW82717   9.730   4.980   3.158 -0.4645 -0.3078 -0.2506
25957SOL    HW182718   9.675   4.973   3.080 -0.1019 -2.2677 -0.3934
25957SOL    HW282719   9.793   4.909   3.149  2.1505  1.8339 -0.0907
25958SOL     OW82720   7.999   7.606   3.759 -0.6296 -0.4435 -0.1828
25958SOL    HW182721   8.063   7.669   3.729  0.3162 -1.1278  0.3475
25958SOL    HW282722   7.953   7.579   3.679 -1.8266  1.6984 -0.2827
25959SOL     OW82723   7.206   6.233   1.815 -0.0749 -0.5361  0.3994
25959SOL    HW182724   7.114   6.261   1.813  0.1828  0.3146 -0.3123
25959SOL    HW282725   7.226   6.225   1.908 -0.5954  0.2539  0.5976
25960SOL     OW82726   7.867   5.780   3.630  0.2500  0.0748 -0.5199
25960SOL    HW182727   7.787   5.735   3.656  0.1574 -2.2504 -4.0844
25960SOL    HW282728   7.932   5.755   3.696 -0.9540 -1.5080  0.1063
25961SOL     OW82729   7.088   7.697   2.022  0.0466  0.3710  0.1121
25961SOL    HW182730   7.091   7.672   1.930  1.0535  1.2470 -0.1054
25961SOL    HW282731   7.011   7.652   2.056  1.0038 -1.9426 -0.5810
25962SOL     OW82732   1.328   6.554   4.816 -0.0076 -0.2624 -0.4455
25962SOL    HW182733   1.357   6.558   4.907 -1.3145 -0.3981  0.0059
25962SOL    HW282734   1.408   6.548   4.765  0.8151  1.2420  0.5967
25963SOL     OW82735   9.116   4.188   0.637  0.3863 -0.5917  0.3417
25963SOL    HW182736   9.191   4.227   0.593  0.2405  0.0293  0.6225
25963SOL    HW282737   9.148   4.105   0.672  1.0394 -0.1680  0.7639
25964SOL     OW82738   8.167   7.076   0.903 -0.6136 -0.0163  0.5382
25964SOL    HW182739   8.192   7.037   0.820  0.2458 -1.5044  1.4566
25964SOL    HW282740   8.171   7.171   0.887 -1.6005 -0.2369 -1.4064
25965SOL     OW82741   0.355   5.463   2.533  0.2349  0.5411  0.1442
25965SOL    HW182742   0.276   5.481   2.482  0.8458  3.0731 -0.0522
25965SOL    HW282743   0.427   5.489   2.475  1.0669  0.9081  1.3069
25966SOL     OW82744   0.233   7.755   5.412  0.1158 -0.4811 -0.4813
25966SOL    HW182745   0.310   7.704   5.433  0.6952  0.2396 -0.8025
25966SOL    HW282746   0.160   7.693   5.417  0.7813 -1.2962 -0.7581
25967SOL     OW82747   0.434   7.688   2.205 -0.0615 -0.0587  0.8845
25967SOL    HW182748   0.371   7.734   2.150  0.0061  0.7473  1.4568
25967SOL    HW282749   0.385   7.615   2.243  0.0428 -0.9805 -0.6709
25968SOL     OW82750   7.639   5.502   2.011  0.2107  0.3063  0.7629
25968SOL    HW182751   7.639   5.594   2.036 -0.1788  0.5450 -0.0888
25968SOL    HW282752   7.732   5.477   2.011  0.5076  1.2668 -1.0063
25969SOL     OW82753   6.235   6.510   1.346 -0.0506  0.0727  0.5062
25969SOL    HW182754   6.246   6.423   1.308 -0.5325 -0.7012  2.0251
25969SOL    HW282755   6.221   6.493   1.440  0.3353  1.8165  0.9129
25970SOL     OW82756   5.241   6.820   3.313 -0.1617 -0.4023 -0.1609
25970SOL    HW182757   5.209   6.905   3.284 -0.6638  0.3365  2.2516
25970SOL    HW282758   5.321   6.840   3.361  1.3048 -1.6841 -1.9587
25971SOL     OW82759   7.906   5.956   0.357  0.0886  0.0421 -0.1456
25971SOL    HW182760   7.943   6.009   0.286 -0.0900  0.5617  0.1411
25971SOL    HW282761   7.812   5.960   0.343  0.0823 -0.3544 -0.2265
25972SOL     OW82762   8.350   4.322   1.703 -0.2910  0.7844  0.2226
25972SOL    HW182763   8.305   4.256   1.651 -0.6705 -0.2652  1.8128
25972SOL    HW282764   8.424   4.349   1.649 -0.5847 -0.3533 -0.7865
25973SOL     OW82765   8.925   8.861   4.603 -0.2950 -0.2590  0.8154
25973SOL    HW182766   8.994   8.885   4.542 -0.2044 -0.6488  0.7591
25973SOL    HW282767   8.951   8.775   4.636 -0.4477 -0.1426  1.2464
25974SOL     OW82768   8.992   6.934   0.616 -0.4038 -0.2111  0.3712
25974SOL    HW182769   9.000   6.846   0.580  0.0257  1.0182 -2.9162
25974SOL    HW282770   9.080   6.971   0.609 -0.2776  0.1770  2.8784
25975SOL     OW82771   9.074   6.598   1.653 -0.7754 -0.2219 -0.3233
25975SOL    HW182772   9.091   6.636   1.739  2.0121  1.1792 -1.3544
25975SOL    HW282773   9.097   6.505   1.663  4.3683  0.7403 -0.4948
25976SOL     OW82774   8.801   8.218   5.081 -0.5833 -0.8602  0.4494
25976SOL    HW182775   8.799   8.122   5.082 -0.5190 -0.8559  1.0102
25976SOL    HW282776   8.794   8.243   5.173 -0.8558 -0.3204  0.2819
25977SOL     OW82777   6.323   7.388   4.375 -1.1706 -0.6167  0.0594
25977SOL    HW182778   6.369   7.472   4.386 -0.4673 -0.9518 -0.2944
25977SOL    HW282779   6.264   7.403   4.301 -0.7250 -0.5671 -0.2907
25978SOL     OW82780   8.015   7.832   2.962 -0.5461  0.0862 -0.1707
25978SOL    HW182781   8.032   7.856   2.871 -0.6068  0.9754  0.0453
25978SOL    HW282782   8.074   7.888   3.013 -0.2772 -0.6337  0.3206
25979SOL     OW82783   8.577   7.485   3.587 -0.5490 -0.0096 -0.2299
25979SOL    HW182784   8.507   7.535   3.628 -2.2371 -2.1670 -0.3221
25979SOL    HW282785   8.626   7.447   3.661 -1.2214 -0.7514 -0.1481
25980SOL     OW82786   9.555   5.331   0.114 -0.2359  0.6241  0.3848
25980SOL    HW182787   9.562   5.285   0.198 -2.2976 -0.8443 -0.1642
25980SOL    HW282788   9.470   5.376   0.119 -0.5071  0.2876 -1.0175
25981SOL     OW82789   8.473   5.994   2.404  0.0563  0.6293 -0.4622
25981SOL    HW182790   8.461   5.978   2.498  0.7125  1.9955 -0.1252
25981SOL    HW282791   8.466   6.089   2.395 -1.4706  0.4045 -2.0278
25982SOL     OW82792   5.829   7.755   3.140  0.0622 -0.7392 -0.0843
25982SOL    HW182793   5.831   7.851   3.136  0.9194 -0.7711 -0.5524
25982SOL    HW282794   5.848   7.727   3.051  0.2582 -1.3490  0.1479
25983SOL     OW82795   6.638   8.142   3.655  0.8780  1.3902 -0.1380
25983SOL    HW182796   6.561   8.115   3.605  2.7331  0.7169 -2.8596
25983SOL    HW282797   6.665   8.063   3.702  0.3364  1.4505  0.2900
25984SOL     OW82798   9.075   5.282   0.412  1.2776 -0.9694 -0.4031
25984SOL    HW182799   9.115   5.348   0.469  0.6646 -1.0692  0.1412
25984SOL    HW282800   9.106   5.199   0.447  0.0768 -1.0786  0.4239
25985SOL     OW82801   8.259   6.603   1.725  0.3796  0.1393 -0.3147
25985SOL    HW182802   8.226   6.669   1.785 -1.2269 -0.4389 -0.5104
25985SOL    HW282803   8.307   6.652   1.659  0.4992  0.9556  0.3559
25986SOL     OW82804   9.688   5.915   0.068  0.3890  0.6923 -0.4808
25986SOL    HW182805   9.671   5.827   0.035  1.5775  0.6090 -0.9300
25986SOL    HW282806   9.692   5.905   0.163 -0.1643  0.3932 -0.4868
25987SOL     OW82807   8.895   7.636   3.307  0.0135  0.2531  0.2569
25987SOL    HW182808   8.907   7.727   3.280 -0.3032  0.3918  0.5758
25987SOL    HW282809   8.924   7.633   3.398 -0.4648  0.1556  0.4099
25988SOL     OW82810   9.285   6.357   2.288 -0.4764  0.2179 -0.3630
25988SOL    HW182811   9.289   6.318   2.201  1.2419  0.8267 -0.5953
25988SOL    HW282812   9.243   6.442   2.275 -1.5935 -0.3147 -0.3293
25989SOL     OW82813   8.762   6.170   1.989 -0.1907  0.2856  1.1055
25989SOL    HW182814   8.817   6.140   1.916 -0.7219 -0.6861  1.0833
25989SOL    HW282815   8.754   6.093   2.046 -1.0670  0.5730  1.3885
25990SOL     OW82816   9.479   7.510   2.806 -0.3332 -0.2509  0.2025
25990SOL    HW182817   9.510   7.430   2.849 -1.6852 -1.1323 -0.3837
25990SOL    HW282818   9.385   7.497   2.797 -0.4472  1.0320 -0.7012
25991SOL     OW82819   8.842   5.407   1.849  0.3022 -0.0860 -0.1314
25991SOL    HW182820   8.818   5.352   1.774  0.1573 -1.8268  1.1355
25991SOL    HW282821   8.927   5.443   1.826 -0.5216  0.8994 -1.8840
25992SOL     OW82822   7.923   6.946   4.021  0.4343 -0.2932  0.7237
25992SOL    HW182823   7.832   6.929   4.043  0.0847 -0.1325 -0.5201
25992SOL    HW282824   7.921   7.025   3.967  1.6283  1.4673  3.0877
25993SOL     OW82825   8.098   6.789   1.544 -0.4513  0.0294  0.5605
25993SOL    HW182826   8.149   6.796   1.463 -0.5522  0.9102  0.5659
25993SOL    HW282827   8.101   6.696   1.566  0.9358  0.0280  0.4296
25994SOL     OW82828   7.462   6.328   3.436 -0.2995  0.1957 -0.0036
25994SOL    HW182829   7.386   6.323   3.494  0.1078  0.8218  0.6130
25994SOL    HW282830   7.537   6.333   3.496  0.0789  1.6880 -0.5392
25995SOL     OW82831   7.355   8.882   2.449  0.3116  0.4823  0.2210
25995SOL    HW182832   7.426   8.823   2.426  1.4535  2.1371 -0.6621
25995SOL    HW282833   7.285   8.825   2.482  0.6187 -1.5430 -2.3986
25996SOL     OW82834   7.030   6.652   4.464 -0.0349 -0.1305 -0.0219
25996SOL    HW182835   6.949   6.618   4.424  0.6716  1.0448 -2.7378
25996SOL    HW282836   7.100   6.620   4.406  1.4064 -0.5276  1.8597
25997SOL     OW82837   7.824   6.516   4.669  0.0231 -0.0176 -0.1241
25997SOL    HW182838   7.781   6.512   4.754  0.0029 -2.6650 -0.1533
25997SOL    HW282839   7.905   6.565   4.685 -0.0815 -0.2921  1.3905
25998SOL     OW82840   9.070   5.778   2.458 -0.1637 -0.0015 -0.0956
25998SOL    HW182841   9.140   5.712   2.463 -0.5343 -0.3278  1.4996
25998SOL    HW282842   9.084   5.832   2.536 -2.1276 -0.5477  0.6851
25999SOL     OW82843   7.049   5.228   3.413 -0.6719  0.1789  0.7538
25999SOL    HW182844   6.990   5.285   3.462  0.0855  2.2577 -0.5944
25999SOL    HW282845   7.073   5.279   3.335  1.3905 -1.3287  0.2935
26000SOL     OW82846   8.815   6.034   4.943 -0.4982 -0.1386  0.1723
26000SOL    HW182847   8.889   5.984   4.910  0.1845 -0.0527  1.5203
26000SOL    HW282848   8.854   6.115   4.977 -1.4099  0.6605 -0.6092
26001SOL     OW82849   7.186   6.757   2.291 -0.2835  0.3641 -0.3585
26001SOL    HW182850   7.187   6.795   2.379  0.3789  0.1967 -0.2894
26001SOL    HW282851   7.278   6.750   2.267 -0.3626 -1.4169 -0.2709
26002SOL     OW82852   7.636   7.207   3.140  0.1061  0.0641  0.0682
26002SOL    HW182853   7.716   7.177   3.184 -0.0285  0.0387  0.2975
26002SOL    HW282854   7.579   7.130   3.139 -0.5155  0.4780  1.2848
26003SOL     OW82855   9.109   5.926   1.885  0.2768  0.1961 -0.7081
26003SOL    HW182856   9.075   5.935   1.974 -0.9972 -1.8346 -0.9190
26003SOL    HW282857   9.095   6.012   1.845  1.6869  1.4291  1.2643
26004SOL     OW82858   8.284   6.698   3.005  0.5986  0.8135  0.7630
26004SOL    HW182859   8.281   6.782   3.051  0.6833  1.3561 -0.1991
26004SOL    HW282860   8.289   6.721   2.912 -0.5088 -0.2559  0.4051
26005SOL     OW82861   7.520   5.882   2.224  0.3657 -0.0366  0.4493
26005SOL    HW182862   7.584   5.814   2.241 -0.0761 -0.4955  0.2907
26005SOL    HW282863   7.531   5.944   2.296  0.1841 -0.7115  1.0655
26006SOL     OW82864   8.199   4.683   3.985 -0.4817  0.0439  0.1141
26006SOL    HW182865   8.229   4.746   3.919  0.1079 -0.0729  0.2684
26006SOL    HW282866   8.279   4.645   4.020 -0.8525 -1.3474 -0.4995
26007SOL     OW82867   8.948   4.401   2.726  0.4541  0.1349  0.1166
26007SOL    HW182868   8.960   4.460   2.801 -0.4990 -0.2530  0.5877
26007SOL    HW282869   8.860   4.366   2.737  0.9721 -1.3234 -0.2026
26008SOL     OW82870   6.382   5.646   1.412  0.0656  0.1894 -0.1196
26008SOL    HW182871   6.291   5.670   1.393 -0.3225  0.3956  1.7499
26008SOL    HW282872   6.434   5.708   1.361 -0.8775  1.3005  0.2074
26009SOL     OW82873   8.446   5.618   0.976  0.4031  0.5594 -0.5574
26009SOL    HW182874   8.522   5.619   1.033 -1.9821  1.2965  2.9082
26009SOL    HW282875   8.438   5.708   0.944  0.3595  0.7445 -0.0259
26010SOL     OW82876   7.536   6.786   2.462 -0.1780 -0.3497  0.5133
26010SOL    HW182877   7.491   6.783   2.547 -0.9231 -1.2911  0.1055
26010SOL    HW282878   7.629   6.783   2.485 -0.1716  3.2009  1.4439
26011SOL     OW82879   8.495   7.112   3.929  0.6978 -0.2920 -0.3063
26011SOL    HW182880   8.486   7.152   4.015 -1.1624  1.0493 -1.0419
26011SOL    HW282881   8.502   7.018   3.946  0.7296 -0.0188  1.3031
26012SOL     OW82882   6.931   7.026   4.862  0.0152  0.0348 -0.4836
26012SOL    HW182883   7.026   7.032   4.856  0.0004  0.1407 -0.6109
26012SOL    HW282884   6.906   6.967   4.790  0.0128 -0.2459 -0.2555
26013SOL     OW82885   7.435   6.272   5.844 -0.2935  0.9965  0.0129
26013SOL    HW182886   7.371   6.217   5.889  0.1484  0.0790 -0.4553
26013SOL    HW282887   7.394   6.294   5.761 -0.0138  0.4315 -0.2756
26014SOL     OW82888   0.031   3.734   3.123  0.1312  0.2363 -0.3381
26014SOL    HW182889   0.026   3.820   3.081 -1.2448  0.8507  0.9953
26014SOL    HW282890  -0.027   3.678   3.071 -1.5890  1.0001  0.6837
26015SOL     OW82891   7.945   6.297   4.870  0.3419 -0.1536  0.4098
26015SOL    HW182892   7.864   6.345   4.888  0.2434 -0.2433  0.2027
26015SOL    HW282893   8.013   6.365   4.868  0.2641 -0.0726  0.5272
26016SOL     OW82894   6.384   6.555   4.027 -0.0665  0.1757  0.4442
26016SOL    HW182895   6.381   6.651   4.023 -0.1516  0.1359 -1.1155
26016SOL    HW282896   6.294   6.528   4.011  0.4410 -0.1833 -2.3043
26017SOL     OW82897   7.996   5.156   4.490 -0.5079  0.2431 -0.5554
26017SOL    HW182898   8.080   5.140   4.447 -1.2742  2.0798 -3.0044
26017SOL    HW282899   8.002   5.247   4.521 -0.8361 -0.3185  1.3003
26018SOL     OW82900   8.515   5.056   1.679  0.2997 -0.7414 -0.0933
26018SOL    HW182901   8.437   5.112   1.677  0.8942  0.1997  1.4475
26018SOL    HW282902   8.584   5.110   1.642  0.8700 -0.4217  1.3674
26019SOL     OW82903   8.108   7.240   1.304 -0.2397  0.0718  0.7320
26019SOL    HW182904   8.102   7.323   1.350 -0.4610 -0.0519  0.9310
26019SOL    HW282905   8.018   7.209   1.299 -0.2278  0.1330  0.1234
26020SOL     OW82906   9.450   5.929   1.965  0.2103  0.5476  0.0003
26020SOL    HW182907   9.406   5.890   1.889 -0.2110  0.8250  0.0967
26020SOL    HW282908   9.505   5.998   1.928  1.4324 -0.5197 -0.2352
26021SOL     OW82909   0.367   8.749   1.798  0.1806 -0.6818  0.6137
26021SOL    HW182910   0.445   8.720   1.845  0.7000 -0.5728 -0.1488
26021SOL    HW282911   0.401   8.800   1.724 -0.6710  0.7197  1.1442
26022SOL     OW82912   5.919   5.035   1.051 -0.4265 -0.4450 -0.1699
26022SOL    HW182913   5.986   5.102   1.036 -0.5802 -0.3888 -0.6211
26022SOL    HW282914   5.923   5.018   1.145  0.7349 -0.9755 -0.3005
26023SOL     OW82915   0.671   7.301   1.770  0.1994  0.5451  0.2084
26023SOL    HW182916   0.582   7.282   1.800 -0.2380  0.0608 -1.2845
26023SOL    HW282917   0.679   7.396   1.776 -0.3349  0.5692  0.5756
26024SOL     OW82918   9.077   6.011   1.584 -0.2116 -0.6411  0.1121
26024SOL    HW182919   9.051   5.939   1.526 -0.5086 -0.9609  0.6294
26024SOL    HW282920   9.172   6.002   1.592 -0.3226 -1.3941  0.7004
26025SOL     OW82921   6.962   5.062   1.463  0.4236 -0.7844  0.1508
26025SOL    HW182922   6.975   5.058   1.557 -0.5185 -2.0942  0.2618
26025SOL    HW282923   7.029   5.005   1.426  2.4165  1.6428 -0.2202
26026SOL     OW82924   8.205   6.263   2.642  0.8014  0.1594 -0.5555
26026SOL    HW182925   8.112   6.275   2.660  0.9748  2.5111 -0.9970
26026SOL    HW282926   8.217   6.168   2.642 -1.3808 -0.1737  0.4950
26027SOL     OW82927   8.868   5.932   3.886  0.6593 -0.6073  0.3378
26027SOL    HW182928   8.961   5.927   3.867  0.2373  0.2275 -2.3344
26027SOL    HW282929   8.852   6.024   3.905  0.2305 -0.5424 -0.2901
26028SOL     OW82930   1.006   8.093   3.376  0.1267 -0.2120  0.0086
26028SOL    HW182931   1.087   8.063   3.416  1.6484  0.9420 -1.9732
26028SOL    HW282932   0.958   8.135   3.447  1.5584 -0.3736  1.1101
26029SOL     OW82933   0.959   6.617   3.775  0.0265  0.2428 -0.5641
26029SOL    HW182934   0.955   6.526   3.803 -1.0134  0.9348  1.7586
26029SOL    HW282935   0.885   6.628   3.715  0.2524 -0.4481 -0.9784
26030SOL     OW82936   9.773   9.073   3.091 -0.3522 -0.3572 -0.2043
26030SOL    HW182937   9.766   9.133   3.165  0.8365 -1.0162  0.4798
26030SOL    HW282938   9.839   9.008   3.119  0.1198 -0.6194 -1.8278
26031SOL     OW82939   7.772   6.158   5.064  0.3450 -0.5426  0.3164
26031SOL    HW182940   7.776   6.245   5.104 -2.4357 -0.8619  1.5157
26031SOL    HW282941   7.838   6.160   4.994  0.4742  2.4508  0.4172
26032SOL     OW82942   8.920   5.704   4.552  0.2990 -0.2657  0.8825
26032SOL    HW182943   8.938   5.610   4.558  0.7606 -0.1289  1.8382
26032SOL    HW282944   9.000   5.741   4.514 -0.0689 -0.3089  0.0437
26033SOL     OW82945   1.840   3.097   1.506  0.6487  0.5008  1.1332
26033SOL    HW182946   1.929   3.122   1.484  1.3950 -0.4290  2.8972
26033SOL    HW282947   1.805   3.174   1.553 -0.0051  1.3955 -0.6974
26034SOL     OW82948   7.730   6.181   1.785  0.1216  0.1733 -0.6364
26034SOL    HW182949   7.795   6.233   1.833 -0.6258 -0.2896  0.9572
26034SOL    HW282950   7.710   6.108   1.843 -0.5802 -0.6163 -1.8289
26035SOL     OW82951   7.244   7.088   3.898  0.2412  0.0667 -0.1968
26035SOL    HW182952   7.249   7.128   3.985 -0.7912  0.4043 -0.2723
26035SOL    HW282953   7.306   7.137   3.845  0.1735  0.4988  0.1164
26036SOL     OW82954   7.034   8.108   3.692  0.5960 -0.1224 -0.4686
26036SOL    HW182955   7.078   8.023   3.701 -0.5579 -0.8059 -1.0235
26036SOL    HW282956   7.000   8.127   3.780  1.3634  0.0601 -0.2059
26037SOL     OW82957   7.787   6.015   3.074  0.1768 -0.8932  0.0975
26037SOL    HW182958   7.882   6.020   3.061 -0.0305 -1.6702 -2.1748
26037SOL    HW282959   7.763   6.101   3.108  1.5415 -0.2473 -0.5041
26038SOL     OW82960   8.248   7.867   2.159 -0.7855 -0.3931 -0.5381
26038SOL    HW182961   8.258   7.926   2.234 -0.0399 -1.2560  0.0663
26038SOL    HW282962   8.185   7.911   2.102 -0.7958  0.6382  0.2364
26039SOL     OW82963   8.834   6.574   9.378 -0.0028  0.2390 -0.2467
26039SOL    HW182964   8.922   6.542   9.360  0.3241  0.8589  0.1875
26039SOL    HW282965   8.804   6.522   9.453 -0.8744 -1.4722 -1.7166
26040SOL     OW82966   8.089   5.393   4.598  0.0467 -0.4291 -0.3311
26040SOL    HW182967   8.162   5.426   4.651 -0.3689 -2.7551  1.8736
26040SOL    HW282968   8.071   5.464   4.537  2.2370  1.4105  0.9637
26041SOL     OW82969   9.260   5.636   2.737  0.1924  0.9251 -0.2985
26041SOL    HW182970   9.323   5.590   2.793  0.7512  0.5832 -1.2010
26041SOL    HW282971   9.312   5.677   2.669 -0.6713 -1.0270 -2.2503
26042SOL     OW82972   4.769   8.283   2.479  0.3015  0.7273  0.3648
26042SOL    HW182973   4.773   8.190   2.503  0.6322  1.1376  2.0845
26042SOL    HW282974   4.682   8.296   2.442  0.3212 -0.2932 -0.0563
26043SOL     OW82975   8.958   3.511   4.292  0.3250 -0.8596 -0.3212
26043SOL    HW182976   8.985   3.471   4.375 -1.6062  0.8386  1.2281
26043SOL    HW282977   8.868   3.482   4.280 -0.0984  0.5361 -0.7081
26044SOL     OW82978   8.353   5.559   4.211  0.1306  0.1472  0.6706
26044SOL    HW182979   8.365   5.571   4.305  0.1071 -1.1505  0.8517
26044SOL    HW282980   8.434   5.517   4.181 -0.3616 -0.6004  0.3461
26045SOL     OW82981   7.322   5.906   3.763 -0.3997  0.1837  0.2853
26045SOL    HW182982   7.409   5.891   3.727 -1.1547 -3.3404 -0.5023
26045SOL    HW282983   7.330   5.882   3.856 -0.0505  2.2444  0.8227
26046SOL     OW82984   8.738   6.315   2.989 -0.2890  0.6996  0.2760
26046SOL    HW182985   8.669   6.260   3.024 -0.6951  1.9618  1.5174
26046SOL    HW282986   8.818   6.262   2.998 -0.7121  0.1934  1.1311
26047SOL     OW82987   7.167   5.914   1.533 -0.0719 -0.1283 -0.1115
26047SOL    HW182988   7.138   6.002   1.555 -1.9858  0.0400 -2.8058
26047SOL    HW282989   7.259   5.911   1.558 -1.3949  0.0728  7.0551
26048SOL     OW82990   4.968   6.180   2.927  0.0504  0.0343 -0.1112
26048SOL    HW182991   4.995   6.112   2.864 -0.7872 -0.5260  0.1042
26048SOL    HW282992   4.965   6.134   3.011  1.8746  0.9519  0.5099
26049SOL     OW82993   8.779   7.382   2.852  0.2892  0.1798 -0.0761
26049SOL    HW182994   8.755   7.463   2.896 -0.8021  1.3291 -2.5832
26049SOL    HW282995   8.875   7.377   2.860  0.1477  0.2807  2.3281
26050SOL     OW82996   9.579   5.704   1.274 -0.0158 -0.3389 -0.1559
26050SOL    HW182997   9.602   5.721   1.366 -0.8396  1.2790 -0.2013
26050SOL    HW282998   9.523   5.778   1.250  0.2590 -0.6862 -2.0024
26051SOL     OW82999   9.215   4.519   2.424  0.0699 -0.2248  0.0072
26051SOL    HW183000   9.147   4.454   2.440 -0.8453  0.9732  1.2774
26051SOL    HW283001   9.172   4.603   2.438  1.6667  0.5978  0.2592
26052SOL     OW83002   8.733   6.668   2.553 -0.5817 -0.1631  0.2872
26052SOL    HW183003   8.744   6.681   2.647 -0.1225  1.1199  0.0796
26052SOL    HW283004   8.677   6.741   2.525 -0.4141 -0.3241 -0.4962
26053SOL     OW83005   8.130   5.468   4.040 -0.2051 -0.3060 -0.3742
26053SOL    HW183006   8.172   5.503   4.118  0.2171 -0.5734 -0.4774
26053SOL    HW283007   8.169   5.381   4.029  1.2981  0.4943 -2.0329
26054SOL     OW83008   6.272   8.109   1.986  0.1642  0.5175  0.2824
26054SOL    HW183009   6.348   8.134   2.039 -0.7282  1.6901  1.0546
26054SOL    HW283010   6.230   8.192   1.963 -0.9343 -0.1072 -0.0488
26055SOL     OW83011   8.617   6.192   9.468 -0.4704  0.4416 -0.2609
26055SOL    HW183012   8.711   6.192   9.450 -0.7232  1.3052 -1.7518
26055SOL    HW283013   8.592   6.284   9.468 -1.3800  0.2064 -0.2778
26056SOL     OW83014   1.116   6.885   2.655  0.3245 -1.0465  0.2788
26056SOL    HW183015   1.069   6.961   2.622  0.5303 -0.6945  0.7939
26056SOL    HW283016   1.163   6.916   2.732  1.5278 -1.3458 -0.3038
26057SOL     OW83017   9.184   5.042   1.714  0.1306  0.0902  0.3400
26057SOL    HW183018   9.235   5.007   1.787  0.2724  0.4071  0.3949
26057SOL    HW283019   9.174   5.135   1.734 -0.0883  0.1181  0.1056
26058SOL     OW83020   6.676   5.863   0.983 -0.3648  0.4111 -0.0775
26058SOL    HW183021   6.740   5.933   0.999  0.4446 -0.4564  0.5921
26058SOL    HW283022   6.706   5.821   0.903 -0.1222  0.0444  0.2023
26059SOL     OW83023   7.421   3.711   5.903 -0.1636  0.2600 -0.0156
26059SOL    HW183024   7.346   3.747   5.855  0.6723  0.6894 -1.0509
26059SOL    HW283025   7.390   3.700   5.993 -0.5415  3.4388  0.3571
26060SOL     OW83026   8.627   4.063   2.289  0.3222  0.2873  0.0175
26060SOL    HW183027   8.692   4.126   2.260  1.4665 -0.3244  1.1471
26060SOL    HW283028   8.678   3.994   2.332 -0.9583 -0.9866 -0.4415
26061SOL     OW83029   8.647   5.419   3.619 -0.0354  0.5217  0.5085
26061SOL    HW183030   8.598   5.387   3.543  0.1909  0.4649  0.3835
26061SOL    HW283031   8.720   5.357   3.628  1.5417  2.0648 -0.9409
26062SOL     OW83032   7.883   6.711   0.537  0.2125  0.1990 -0.3997
26062SOL    HW183033   7.931   6.714   0.454  0.3021 -1.2271 -0.4316
26062SOL    HW283034   7.866   6.618   0.551  0.0954  0.4217  1.1266
26063SOL     OW83035   7.089   5.446   4.844  0.3152  0.0020  0.3128
26063SOL    HW183036   7.110   5.431   4.752 -0.4971  1.8391 -0.2020
26063SOL    HW283037   7.173   5.435   4.889  1.0771  0.7749 -0.8689
26064SOL     OW83038   7.473   5.095   2.542  0.2921  0.4697  0.5400
26064SOL    HW183039   7.427   5.065   2.463 -0.2916  0.6794  0.7969
26064SOL    HW283040   7.565   5.085   2.521  0.1636  1.2440 -0.4707
26065SOL     OW83041   7.488   5.611   2.676  0.2841 -0.0602  0.2562
26065SOL    HW183042   7.579   5.640   2.690 -0.2773  1.5419  0.8137
26065SOL    HW283043   7.474   5.545   2.744  0.2280  1.6268  1.9749
26066SOL     OW83044   0.284   5.892   4.111  0.3740  0.6598 -0.2407
26066SOL    HW183045   0.348   5.907   4.041  0.1661  0.5488 -0.4580
26066SOL    HW283046   0.327   5.830   4.170 -0.1069 -0.6393 -1.1934
26067SOL     OW83047   8.931   4.788   3.351 -0.8785 -1.0106  0.1871
26067SOL    HW183048   9.018   4.819   3.376 -0.6217 -0.2271 -1.5108
26067SOL    HW283049   8.873   4.822   3.419 -0.1315  0.3479  0.1739
26068SOL     OW83050   7.636   5.511   4.796  0.7142  0.1083 -0.0206
26068SOL    HW183051   7.710   5.545   4.746  0.0502 -1.0370 -1.8744
26068SOL    HW283052   7.561   5.521   4.738 -0.2539 -0.5077  1.0785
26069SOL     OW83053   9.265   6.925   2.739  0.0741  0.0961  0.1544
26069SOL    HW183054   9.215   6.884   2.810 -1.4962  0.0096 -0.9454
26069SOL    HW283055   9.326   6.984   2.783 -0.4362 -0.4090  1.5941
26070SOL     OW83056   9.056   7.310   2.810 -0.4465 -0.1539 -0.3429
26070SOL    HW183057   9.108   7.354   2.742 -0.6942  1.3617  0.3945
26070SOL    HW283058   9.107   7.323   2.891 -0.7544 -0.8682 -0.0235
26071SOL     OW83059   8.662   8.282   0.895 -0.2899  0.1451  0.3250
26071SOL    HW183060   8.743   8.275   0.844 -1.9815  0.3455 -2.5810
26071SOL    HW283061   8.684   8.242   0.979  2.5276 -0.6988 -0.6802
26072SOL     OW83062   7.251   6.542   3.435  0.2756  0.0647 -0.2368
26072SOL    HW183063   7.340   6.576   3.445  0.3146 -0.1814  0.2613
26072SOL    HW283064   7.250   6.504   3.347  0.7792 -0.2832 -0.0953
26073SOL     OW83065   8.165   7.088   3.767 -0.6500  0.9352  0.2276
26073SOL    HW183066   8.255   7.093   3.735 -0.5209 -2.6654 -0.4314
26073SOL    HW283067   8.167   7.129   3.853  0.9700  3.2193 -0.7958
26074SOL     OW83068   7.456   6.814   3.307 -0.1462 -0.3572 -0.7894
26074SOL    HW183069   7.533   6.815   3.364  0.0097 -0.2443 -1.0022
26074SOL    HW283070   7.460   6.731   3.261  0.0626 -0.1794 -1.0926
26075SOL     OW83071   8.889   6.103   2.464  0.5099  0.2237 -0.2872
26075SOL    HW183072   8.824   6.152   2.413 -1.2504  1.2186  2.6394
26075SOL    HW283073   8.970   6.152   2.453  0.0180  0.8144 -1.5178
26076SOL     OW83074   9.703   6.409   1.774  0.2154 -0.3391  0.1035
26076SOL    HW183075   9.678   6.318   1.785 -0.1265 -0.1114  1.4708
26076SOL    HW283076   9.692   6.427   1.680 -0.6040 -1.4410 -0.0237
26077SOL     OW83077   8.094   5.133   3.045  0.1128 -0.2214 -0.3424
26077SOL    HW183078   8.075   5.165   2.957  0.0278  0.7592  0.0273
26077SOL    HW283079   8.091   5.211   3.100  1.8673 -0.5456  0.2622
26078SOL     OW83080   8.225   9.301   3.779 -0.2385  0.0934  0.5816
26078SOL    HW183081   8.257   9.220   3.818 -2.6559 -1.6762 -0.8363
26078SOL    HW283082   8.217   9.281   3.686 -0.2795  2.2225  0.0749
26079SOL     OW83083   0.269   6.185   3.146 -0.0406 -0.0110  0.1146
26079SOL    HW183084   0.191   6.194   3.200  0.3938  2.0978  0.4653
26079SOL    HW283085   0.333   6.144   3.204  0.4298  2.2470  1.3244
26080SOL     OW83086   9.382   7.049   2.108  0.0794  0.2799 -0.2232
26080SOL    HW183087   9.429   7.105   2.045 -1.2716  3.0828  1.0780
26080SOL    HW283088   9.445   7.036   2.179 -0.0002  1.2812  0.0462
26081SOL     OW83089   7.928   7.314   4.344 -0.1643 -0.0392  0.5400
26081SOL    HW183090   8.013   7.289   4.308 -0.9885 -0.0537 -1.5743
26081SOL    HW283091   7.915   7.404   4.316 -2.2621 -1.0697 -2.2768
26082SOL     OW83092   9.230   7.034   2.497  0.3446 -0.2537  0.2535
26082SOL    HW183093   9.280   6.982   2.434 -1.7292 -2.1752  0.0725
26082SOL    HW283094   9.252   6.996   2.582 -0.1089 -0.5159  0.2571
26083SOL     OW83095   7.712   5.816   2.550 -0.8589  0.1182 -0.1828
26083SOL    HW183096   7.759   5.756   2.608  1.3664  2.8641  1.1470
26083SOL    HW283097   7.640   5.850   2.604 -0.3412  0.7665  0.1153
26084SOL     OW83098   7.860   5.838   1.780 -0.1992  0.1100  0.4165
26084SOL    HW183099   7.917   5.914   1.767  3.5890 -2.7841 -1.8198
26084SOL    HW283100   7.911   5.778   1.835 -2.3661 -1.5587  0.7707
26085SOL     OW83101   9.333   5.936   2.386  0.3918 -0.2440 -0.1469
26085SOL    HW183102   9.332   5.908   2.478  0.8219  0.4308  0.0785
26085SOL    HW283103   9.375   6.022   2.389  0.1639 -0.1028 -0.9493
26086SOL     OW83104   7.566   4.040   3.569  0.6404  0.1915  1.0555
26086SOL    HW183105   7.533   4.027   3.480 -0.0025 -1.7642  1.5410
26086SOL    HW283106   7.634   4.107   3.559  0.9869 -0.3765 -1.0030
26087SOL     OW83107   8.713   5.074   1.406 -0.0123 -0.1748 -0.3504
26087SOL    HW183108   8.780   5.010   1.432 -0.0424 -0.7350 -1.6015
26087SOL    HW283109   8.753   5.159   1.425  0.4864 -0.5358  0.2534
26088SOL     OW83110   8.108   7.852   2.711  0.3174 -0.4846  0.0860
26088SOL    HW183111   8.151   7.896   2.638  1.1403  0.0388  0.8718
26088SOL    HW283112   8.170   7.785   2.739  0.5827  0.1868  1.1390
26089SOL     OW83113   7.214   6.465   2.884 -0.1880  0.4683  0.4079
26089SOL    HW183114   7.200   6.559   2.876  2.7494  0.8616 -2.0349
26089SOL    HW283115   7.299   6.457   2.928  0.8334 -0.8205 -1.6185
26090SOL     OW83116   6.848   6.485   2.408 -0.3127  0.7431 -0.2631
26090SOL    HW183117   6.852   6.448   2.496  0.3490 -0.2338 -0.6920
26090SOL    HW283118   6.783   6.432   2.362 -1.6866  2.1135  0.0027
26091SOL     OW83119   9.202   7.574   2.727 -1.2892 -0.0465  0.6164
26091SOL    HW183120   9.223   7.526   2.646 -0.5427  1.7471 -0.3032
26091SOL    HW283121   9.140   7.641   2.700  0.2179  1.6313  1.1584
26092SOL     OW83122   6.621   8.559   4.580  0.4112  0.0911  0.2484
26092SOL    HW183123   6.590   8.588   4.494 -1.1917 -0.4159  0.6190
26092SOL    HW283124   6.574   8.477   4.595  0.9710 -0.0216  1.4398
26093SOL     OW83125   9.715   6.500   3.741  0.5201  0.1362  0.0958
26093SOL    HW183126   9.713   6.596   3.739 -1.5718  0.1388 -1.0622
26093SOL    HW283127   9.638   6.476   3.794 -1.2538 -0.8435 -2.7031
26094SOL     OW83128   8.949   6.126   3.614 -0.1403  0.1811 -0.1740
26094SOL    HW183129   8.872   6.068   3.618 -0.0799 -0.2646 -3.1074
26094SOL    HW283130   8.912   6.213   3.601 -0.2896 -0.2580 -3.5507
26095SOL     OW83131   9.123   4.765   2.468  0.4837  0.1830  0.1686
26095SOL    HW183132   9.162   4.820   2.536 -0.1519 -0.4731  1.0888
26095SOL    HW283133   9.028   4.775   2.480  0.3641 -0.1100 -0.4778
26096SOL     OW83134   9.725   5.964   2.777 -0.0422  0.3750  0.1308
26096SOL    HW183135   9.638   5.961   2.817 -0.5501  3.4472 -0.4407
26096SOL    HW283136   9.714   5.923   2.691 -0.3164 -1.2715  0.9220
26097SOL     OW83137   1.133   4.440   3.915  0.4780  0.2534 -0.1856
26097SOL    HW183138   1.119   4.359   3.867 -2.4109  2.1199 -2.8100
26097SOL    HW283139   1.202   4.485   3.867 -0.4410  0.8827 -0.9444
26098SOL     OW83140   8.984   6.231   4.530  0.4339 -0.3316  0.3153
26098SOL    HW183141   8.955   6.292   4.462  1.6882  1.8580  1.6049
26098SOL    HW283142   8.937   6.260   4.609  2.7466  0.5769  1.4816
26099SOL     OW83143   5.828   6.727   4.039  0.4543 -0.8273  0.0974
26099SOL    HW183144   5.770   6.703   3.967 -0.9443  1.0714  0.5181
26099SOL    HW283145   5.862   6.813   4.015 -0.3831  0.0348  1.8707
26100SOL     OW83146   6.717   6.176   3.187  0.2417  0.1059  0.4409
26100SOL    HW183147   6.678   6.244   3.242  0.1143 -0.2434  0.7880
26100SOL    HW283148   6.651   6.158   3.120  0.9049  1.4350 -0.6130
26101SOL     OW83149   7.484   4.482   8.678 -0.3882  0.0755  0.6487
26101SOL    HW183150   7.472   4.497   8.772 -2.1387  2.5379  0.1533
26101SOL    HW283151   7.554   4.542   8.652  2.3626 -2.8326  0.7866
26102SOL     OW83152   7.098   6.671   5.527 -0.2253 -0.3503  0.3624
26102SOL    HW183153   7.193   6.680   5.530 -0.2134 -0.0032 -0.5572
26102SOL    HW283154   7.065   6.759   5.547 -0.3093 -0.1571 -0.5613
26103SOL     OW83155   8.681   5.937   0.025 -0.6405 -0.3037 -0.0320
26103SOL    HW183156   8.774   5.962   0.023 -1.1184  1.8847  1.4884
26103SOL    HW283157   8.651   5.949  -0.066  0.2850  0.1346 -0.2909
26104SOL     OW83158   8.879   8.124   2.224 -0.4150  0.3496  0.2171
26104SOL    HW183159   8.917   8.042   2.190 -1.5008  0.5713 -1.6449
26104SOL    HW283160   8.867   8.107   2.318  1.7141 -0.6874  0.3789
26105SOL     OW83161   7.459   5.174   4.548 -0.2484 -0.0832  0.7335
26105SOL    HW183162   7.489   5.264   4.561  2.6224 -0.8553  0.2953
26105SOL    HW283163   7.491   5.127   4.626  0.7616 -1.1991 -0.3038
26106SOL     OW83164   6.699   5.428   4.684 -0.8103  0.0072 -0.0948
26106SOL    HW183165   6.624   5.442   4.625 -0.8511  3.2851  0.5290
26106SOL    HW283166   6.680   5.345   4.728 -2.4993 -0.7956 -2.1534
26107SOL     OW83167   6.498   6.357   3.211  0.1466 -0.3211 -0.3268
26107SOL    HW183168   6.486   6.305   3.132 -1.3650  0.8971 -0.9565
26107SOL    HW283169   6.435   6.322   3.274  0.9674 -0.9371  0.1663
26108SOL     OW83170   9.427   7.863   3.807 -0.3842 -0.2416  0.1747
26108SOL    HW183171   9.446   7.949   3.844  0.2181  0.6977 -2.1851
26108SOL    HW283172   9.341   7.873   3.765 -1.5077 -1.5624  1.9988
26109SOL     OW83173   6.612   8.474   2.232 -0.3541 -0.8550  0.0297
26109SOL    HW183174   6.607   8.538   2.160  1.1826  1.4192  1.7687
26109SOL    HW283175   6.639   8.393   2.190  0.9107  0.5014 -1.9563
26110SOL     OW83176   5.663   7.005   2.657  0.4696  0.3823  0.5616
26110SOL    HW183177   5.636   7.060   2.731  0.9195  0.9856  0.2925
26110SOL    HW283178   5.618   7.044   2.581  0.0704 -0.1848  0.5001
26111SOL     OW83179   8.862   4.850   4.174 -0.5282 -0.4081  0.3117
26111SOL    HW183180   8.931   4.887   4.229 -0.0535  1.1544 -1.2414
26111SOL    HW283181   8.846   4.917   4.107 -2.6399 -1.2840 -0.1527
26112SOL     OW83182   7.096   6.191   2.492  0.1797 -0.1334  0.0365
26112SOL    HW183183   7.101   6.201   2.587 -3.3646  1.8980  0.2094
26112SOL    HW283184   7.163   6.250   2.458  1.6008 -1.0064  1.2104
26113SOL     OW83185   0.352   5.754   2.689 -0.1735 -0.6631  0.3578
26113SOL    HW183186   0.391   5.700   2.621 -0.3713 -0.1332 -0.1847
26113SOL    HW283187   0.260   5.762   2.664 -0.5677 -1.5776  1.4119
26114SOL     OW83188   1.634   5.063   3.167 -0.0465  0.4717  0.2180
26114SOL    HW183189   1.703   5.105   3.115  0.2119  0.6102  0.6710
26114SOL    HW283190   1.566   5.041   3.103  0.6524 -0.1610 -0.3231
26115SOL     OW83191   8.856   6.070   1.748 -0.0658  0.1113 -0.6188
26115SOL    HW183192   8.920   6.038   1.684  0.9843 -0.7709  0.8013
26115SOL    HW283193   8.773   6.029   1.722  0.0705  0.6900 -2.0608
26116SOL     OW83194   8.478   5.960   3.057 -0.5029 -0.2324 -0.7424
26116SOL    HW183195   8.564   5.928   3.030 -0.3271 -0.3310 -0.0817
26116SOL    HW283196   8.491   6.054   3.071 -0.1840 -0.4444  0.5359
26117SOL     OW83197   8.238   4.958   1.777  0.2037  0.0339  0.3180
26117SOL    HW183198   8.278   5.038   1.742 -0.2255 -0.2417 -0.8752
26117SOL    HW283199   8.306   4.892   1.769  0.4430  0.1981  0.9732
26118SOL     OW83200   8.219   4.948   4.773 -0.8114  0.4568  0.2863
26118SOL    HW183201   8.296   4.993   4.739  0.0127 -0.0673  1.3843
26118SOL    HW283202   8.151   4.964   4.708  0.2319  0.8940 -0.7363
26119SOL     OW83203   9.094   7.009   3.882 -0.0368  0.3633 -0.7200
26119SOL    HW183204   9.082   7.068   3.807  1.4900  0.4606 -0.9119
26119SOL    HW283205   9.154   6.942   3.850 -1.8034 -1.4054 -0.5403
26120SOL     OW83206   5.449   8.308   4.060  0.8653 -0.3738 -0.5468
26120SOL    HW183207   5.513   8.379   4.049 -0.7525  1.2559  0.1082
26120SOL    HW283208   5.416   8.291   3.971 -0.0699  1.0346 -0.5020
26121SOL     OW83209   7.405   7.934   4.319  0.4130  0.2224  0.0701
26121SOL    HW183210   7.348   7.867   4.283  0.5448  0.6908 -1.0416
26121SOL    HW283211   7.452   7.890   4.390 -2.1675  0.1375  1.8767
26122SOL     OW83212   9.318   7.384   2.542  0.1270 -0.5171 -0.7712
26122SOL    HW183213   9.374   7.307   2.541  0.0188 -0.6239  0.2384
26122SOL    HW283214   9.233   7.354   2.509  0.0856 -0.8390 -0.3776
26123SOL     OW83215   7.873   5.394   3.577  0.1412 -0.1399  0.4082
26123SOL    HW183216   7.909   5.406   3.489  1.0378  0.7173  0.8688
26123SOL    HW283217   7.949   5.398   3.635 -0.3948 -1.0048  1.2126
26124SOL     OW83218   0.388   5.007   4.687  0.7993  0.5930 -0.0574
26124SOL    HW183219   0.311   4.972   4.731  1.0199  0.2328  0.0408
26124SOL    HW283220   0.361   5.018   4.596  0.5924  0.5938  0.0034
26125SOL     OW83221   6.143   7.298   4.151  0.0005 -0.0593  0.2601
26125SOL    HW183222   6.146   7.343   4.067 -1.6576 -1.6016 -0.6876
26125SOL    HW283223   6.226   7.251   4.156  0.2916  0.3833 -0.3175
26126SOL     OW83224   6.161   5.922   2.877 -0.3746  0.2103  0.2777
26126SOL    HW183225   6.194   5.888   2.794 -1.7894 -2.4721  0.6817
26126SOL    HW283226   6.237   5.928   2.934  0.0861 -1.8033 -0.0531
26127SOL     OW83227   8.790   7.804   2.733  0.2166  0.1111  0.7304
26127SOL    HW183228   8.800   7.875   2.797  2.9368  2.5975 -2.0818
26127SOL    HW283229   8.697   7.805   2.710  0.0070  2.2483  1.4183
26128SOL     OW83230   6.751   4.767   2.479  0.1263 -0.0409 -0.3200
26128SOL    HW183231   6.713   4.679   2.480 -1.1776  0.5068 -0.1619
26128SOL    HW283232   6.749   4.793   2.387 -0.3556  0.1803 -0.2496
26129SOL     OW83233   9.715   6.965   4.299  0.0957  0.4556 -0.4209
26129SOL    HW183234   9.758   7.047   4.274 -1.2402  1.2808 -0.1503
26129SOL    HW283235   9.724   6.909   4.222 -3.1962  2.6309 -2.6510
26130SOL     OW83236   5.315   6.649   3.116  0.0644 -0.0986  0.1623
26130SOL    HW183237   5.409   6.641   3.135  0.2602  0.6643 -0.4316
26130SOL    HW283238   5.286   6.722   3.172 -0.1495 -0.2598  0.2610
26131SOL     OW83239   9.521   6.508   3.223 -0.4255  0.1039 -0.0096
26131SOL    HW183240   9.590   6.472   3.167  0.4753  1.0535  0.4685
26131SOL    HW283241   9.474   6.570   3.167  2.0599  2.9987  0.8684
26132SOL     OW83242   8.747   5.966   2.942 -0.1280  0.0568 -0.0906
26132SOL    HW183243   8.755   5.972   2.847  0.8638  1.5870  0.0363
26132SOL    HW283244   8.822   6.016   2.975 -0.5036 -0.3660  1.4970
26133SOL     OW83245   9.302   6.223   2.029 -0.4991 -0.2950  0.2194
26133SOL    HW183246   9.300   6.304   1.979 -1.6616 -0.1768  0.4261
26133SOL    HW283247   9.320   6.155   1.964 -2.3733 -0.1880 -0.4850
26134SOL     OW83248   7.547   5.419   2.448  0.6339  0.5049 -0.2352
26134SOL    HW183249   7.548   5.323   2.446  2.4564  0.5046 -1.3889
26134SOL    HW283250   7.540   5.441   2.541  1.9172 -0.7745  0.1919
26135SOL     OW83251   5.929   8.036   1.888  0.2681 -0.3294  0.5560
26135SOL    HW183252   5.895   7.980   1.958  1.0721  0.1620  1.3545
26135SOL    HW283253   6.000   8.085   1.928 -0.9398  1.9211  0.1411
26136SOL     OW83254   7.632   8.745   2.627  0.0012  0.2474  0.4128
26136SOL    HW183255   7.712   8.760   2.678 -1.0149  1.1789  1.8081
26136SOL    HW283256   7.659   8.759   2.536  1.9166 -1.6512  0.6186
26137SOL     OW83257   9.457   8.210   5.273 -0.5778 -0.2460  0.2330
26137SOL    HW183258   9.374   8.257   5.280 -0.9079 -0.9428  1.1566
26137SOL    HW283259   9.517   8.259   5.329 -0.3801  0.1939 -0.3486
26138SOL     OW83260   8.892   6.629   4.829  0.0168 -0.5609 -0.1695
26138SOL    HW183261   8.957   6.560   4.839  0.7793 -0.5662 -3.7808
26138SOL    HW283262   8.808   6.585   4.845  0.6003 -1.8979 -0.6027
26139SOL     OW83263   9.174   5.577   4.080 -0.4365  0.1510 -0.0003
26139SOL    HW183264   9.192   5.520   4.005 -0.3500  0.1633  0.0104
26139SOL    HW283265   9.099   5.537   4.123 -0.0737 -0.2352  0.2897
26140SOL     OW83266   8.102   6.987   5.616  0.1332 -0.2195  0.0783
26140SOL    HW183267   8.071   6.898   5.631  1.0910 -0.4375  0.8868
26140SOL    HW283268   8.129   7.018   5.702 -0.0395  0.8024 -0.2201
26141SOL     OW83269   9.497   6.107   2.217  0.4613 -0.2253 -0.6306
26141SOL    HW183270   9.429   6.128   2.153  1.7881  0.1454 -1.9400
26141SOL    HW283271   9.546   6.035   2.178  0.5314 -0.8311  0.5298
26142SOL     OW83272   8.134   6.529   5.636 -0.0522 -0.2056 -0.1283
26142SOL    HW183273   8.213   6.525   5.689 -0.0377  2.3039  0.1352
26142SOL    HW283274   8.161   6.499   5.549  1.2915  0.9677 -0.1407
26143SOL     OW83275   9.582   4.157   3.911  0.4145 -0.3895 -0.5283
26143SOL    HW183276   9.548   4.246   3.904 -0.7117 -0.7796 -0.1912
26143SOL    HW283277   9.634   4.157   3.991 -0.5338 -0.3300  0.0937
26144SOL     OW83278   8.301   6.423   4.618 -0.2719  0.5689  0.0681
26144SOL    HW183279   8.311   6.496   4.558 -0.7196 -0.4658 -1.3106
26144SOL    HW283280   8.249   6.358   4.570  1.9372 -1.5866  0.3590
26145SOL     OW83281   7.781   7.899   7.164  0.2240  0.8481 -0.1422
26145SOL    HW183282   7.876   7.895   7.177  0.2302 -0.1807 -0.4309
26145SOL    HW283283   7.745   7.855   7.241  0.1238 -1.7978 -1.5939
26146SOL     OW83284   6.914   6.067   4.540  0.5750 -0.0815 -0.6624
26146SOL    HW183285   6.917   6.161   4.553  0.9871 -0.2621  0.7289
26146SOL    HW283286   6.823   6.049   4.515 -0.4156  0.3515  2.2511
26147SOL     OW83287   8.912   6.674   5.908  0.3501  0.1937 -0.1828
26147SOL    HW183288   9.004   6.685   5.883  1.0062  0.3297  2.0495
26147SOL    HW283289   8.914   6.610   5.979 -1.4562 -0.7936 -0.9694
26148SOL     OW83290   7.675   7.143   4.226  0.5074  0.0134 -0.2705
26148SOL    HW183291   7.687   7.206   4.296  0.0080  0.2166 -0.3570
26148SOL    HW283292   7.609   7.082   4.260 -0.4257  0.6389 -0.8856
26149SOL     OW83293   9.681   5.123   5.901  0.1507 -0.0992  0.9373
26149SOL    HW183294   9.651   5.055   5.962 -0.9616 -0.9524 -0.4964
26149SOL    HW283295   9.605   5.142   5.847  1.5613 -0.7153 -1.4016
26150SOL     OW83296   6.343   7.234   3.959 -0.2087 -0.3243 -0.6395
26150SOL    HW183297   6.413   7.169   3.954 -0.4206 -0.4741 -2.3907
26150SOL    HW283298   6.299   7.229   3.874  0.4133  2.8131 -1.3014
26151SOL     OW83299   6.559   7.154   4.863  0.3150  0.0418  0.5304
26151SOL    HW183300   6.470   7.175   4.835  1.0727  2.3678 -0.3786
26151SOL    HW283301   6.565   7.188   4.952  1.0121  2.4634 -0.3397
26152SOL     OW83302   8.086   8.675   2.914  0.1120 -0.5660 -0.0340
26152SOL    HW183303   8.011   8.618   2.898  0.7349 -1.5447  0.4319
26152SOL    HW283304   8.133   8.633   2.986  1.0792  0.0578 -0.2829
26153SOL     OW83305   6.477   5.585   4.200  0.1921  0.2601  0.2294
26153SOL    HW183306   6.525   5.667   4.194 -2.3252  1.8478  0.2521
26153SOL    HW283307   6.412   5.590   4.130  0.4046 -2.0707 -0.2291
26154SOL     OW83308   8.355   8.443   4.488 -0.2841 -1.1329 -0.4862
26154SOL    HW183309   8.380   8.519   4.436 -1.3091  0.6625  1.4805
26154SOL    HW283310   8.430   8.427   4.545 -0.1003 -1.5675 -0.8442
26155SOL     OW83311   7.623   6.273   4.231  0.3453 -0.7702  0.4755
26155SOL    HW183312   7.632   6.363   4.201  1.7894 -0.5693  1.4077
26155SOL    HW283313   7.654   6.275   4.322  1.3102 -2.3709  0.2228
26156SOL     OW83314   7.988   9.289   5.771 -0.9369 -0.1484 -0.6892
26156SOL    HW183315   8.036   9.213   5.803 -0.3362 -0.1736 -1.6089
26156SOL    HW283316   8.001   9.356   5.839 -0.0655 -0.3340 -0.6606
26157SOL     OW83317   5.187   6.219   4.121  0.2039 -0.6162  0.1825
26157SOL    HW183318   5.112   6.230   4.061 -0.7604 -2.8801  0.8816
26157SOL    HW283319   5.147   6.199   4.206  1.6055 -0.1941  0.9686
26158SOL     OW83320   9.268   7.133   6.496 -0.2627 -0.0431  0.1916
26158SOL    HW183321   9.269   7.154   6.402 -3.8371 -1.0878 -0.2421
26158SOL    HW283322   9.192   7.075   6.506  0.3643 -0.4565  3.6733
26159SOL     OW83323   6.802   7.145   6.903 -0.1474 -0.6940 -0.0067
26159SOL    HW183324   6.749   7.219   6.875 -0.2667 -0.5555  0.5620
26159SOL    HW283325   6.806   7.153   6.999  0.2843 -1.1180  0.0176
26160SOL     OW83326   9.412   7.631   3.601  0.0287  0.2842 -0.3611
26160SOL    HW183327   9.463   7.693   3.653  0.1147 -0.4243  0.4223
26160SOL    HW283328   9.448   7.640   3.513  1.5733 -0.2314  0.1808
26161SOL     OW83329   8.621   6.704   4.595  0.1732  0.5384  0.2705
26161SOL    HW183330   8.606   6.633   4.533 -0.2105  1.6706 -0.9870
26161SOL    HW283331   8.634   6.660   4.679 -2.5550 -0.9523  0.0544
26162SOL     OW83332   9.191   6.511   4.462 -0.1986  0.0630 -0.1266
26162SOL    HW183333   9.195   6.561   4.380 -2.8677  0.5884 -0.0097
26162SOL    HW283334   9.124   6.554   4.514 -1.3423 -2.5481  0.7393
26163SOL     OW83335   7.211   6.783   3.978  0.0582  0.4264  0.5360
26163SOL    HW183336   7.228   6.873   3.950  3.2634 -0.5605 -1.1955
26163SOL    HW283337   7.228   6.731   3.900 -0.8535 -1.7849  1.7345
26164SOL     OW83338   9.122   6.751   6.191 -0.1435  0.1058  0.2119
26164SOL    HW183339   9.103   6.667   6.149  1.9234 -1.1885  1.6535
26164SOL    HW283340   9.195   6.732   6.250  1.5507  3.2703 -0.6391
26165SOL     OW83341   6.063   8.585   4.342 -0.2610  0.2303  0.2322
26165SOL    HW183342   6.137   8.604   4.400 -1.4828 -0.2048  2.0208
26165SOL    HW283343   6.078   8.496   4.312 -0.5097 -0.2136  1.3689
26166SOL     OW83344   6.247   6.461   5.991 -0.6630 -0.1067 -0.3769
26166SOL    HW183345   6.295   6.409   6.055  0.8362  0.0707 -1.3039
26166SOL    HW283346   6.309   6.529   5.964 -1.1757 -0.2850 -2.1412
26167SOL     OW83347   0.054   3.734   3.399  0.0318 -0.8438 -0.0039
26167SOL    HW183348  -0.033   3.705   3.426  0.3644 -2.0878 -0.2048
26167SOL    HW283349   0.044   3.752   3.305 -0.0883 -0.6754  0.0410
26168SOL     OW83350   5.881   6.359   4.095 -0.9129 -0.3944 -0.1754
26168SOL    HW183351   5.908   6.273   4.127  0.5050  0.3261  0.7189
26168SOL    HW283352   5.863   6.346   4.002 -2.1752 -1.9329  0.2448
26169SOL     OW83353   6.243   4.115   6.535 -0.3012  0.8131 -0.0260
26169SOL    HW183354   6.292   4.080   6.461  0.0232  0.5655  0.2964
26169SOL    HW283355   6.270   4.060   6.609 -2.6397 -0.7075 -0.1994
26170SOL     OW83356   9.804   6.575   5.798  0.2817  0.1491 -0.1694
26170SOL    HW183357   9.876   6.539   5.851  0.0711 -0.0665 -0.0294
26170SOL    HW283358   9.845   6.645   5.748  0.6796 -0.2191 -0.3759
26171SOL     OW83359   8.340   7.612   2.825  0.4903 -0.0029 -0.2906
26171SOL    HW183360   8.392   7.536   2.800  0.1993  0.2392 -1.7453
26171SOL    HW283361   8.403   7.675   2.859  0.8525 -0.5379  0.0356
26172SOL     OW83362   7.459   6.117   2.026 -0.1916  0.5606 -0.0642
26172SOL    HW183363   7.490   6.036   1.985  0.8961  1.7996 -1.8157
26172SOL    HW283364   7.534   6.146   2.079 -0.8929 -0.0001  1.2726
26173SOL     OW83365   0.301   3.722   5.152  0.2511  0.4626  0.0698
26173SOL    HW183366   0.214   3.739   5.186 -0.0778  0.9321 -0.9708
26173SOL    HW283367   0.344   3.670   5.220 -1.0207 -0.2501  0.3436
26174SOL     OW83368   8.832   7.986   2.927  0.0116  0.4837 -0.1457
26174SOL    HW183369   8.747   8.029   2.918 -0.1057  0.5197  1.0314
26174SOL    HW283370   8.896   8.056   2.915 -0.1513  0.6680  0.0444
26175SOL     OW83371   7.213   8.036   5.451  0.4545 -0.0764  0.0598
26175SOL    HW183372   7.122   8.029   5.424  0.5949 -0.8748 -0.2529
26175SOL    HW283373   7.263   7.998   5.379  1.1093  1.1512 -0.1686
26176SOL     OW83374   1.213   3.626   9.153  0.2397  0.7131  0.7254
26176SOL    HW183375   1.283   3.687   9.178  0.6142  1.4052 -1.7665
26176SOL    HW283376   1.132   3.676   9.164  0.4293  1.1567  0.1420
26177SOL     OW83377   0.458   5.134   5.585 -0.3170  0.3618  0.0271
26177SOL    HW183378   0.485   5.058   5.637  1.2097  0.3681 -0.7244
26177SOL    HW283379   0.435   5.097   5.499 -0.2460  0.6591 -0.1216
26178SOL     OW83380   6.099   7.431   4.738  0.6819 -0.6692 -0.1707
26178SOL    HW183381   6.094   7.524   4.762 -0.2714 -0.9975  1.0379
26178SOL    HW283382   6.070   7.427   4.647 -2.6319 -0.1113  0.7206
26179SOL     OW83383   7.078   7.223   2.716  0.4235 -0.3648  0.2125
26179SOL    HW183384   7.134   7.244   2.640  0.6769 -1.0436  0.2060
26179SOL    HW283385   7.140   7.207   2.787  0.1633  1.0062  0.7688
26180SOL     OW83386   6.955   5.822   3.519  0.2739  0.6034 -0.1417
26180SOL    HW183387   7.049   5.831   3.536  0.4500  1.6921 -1.5371
26180SOL    HW283388   6.936   5.888   3.453 -1.5147  0.4700  0.1929
26181SOL     OW83389   8.824   8.001   5.939 -0.7567 -0.1103 -0.0759
26181SOL    HW183390   8.851   8.056   5.866 -1.2814  1.8418  1.1024
26181SOL    HW283391   8.896   8.007   6.002 -1.2712  0.1314  0.5102
26182SOL     OW83392   8.664   4.619   2.462 -0.6940  0.1966 -0.0444
26182SOL    HW183393   8.714   4.661   2.533  0.1608 -0.6418 -0.1309
26182SOL    HW283394   8.574   4.617   2.494 -0.6712  1.5955  0.1840
26183SOL     OW83395   6.895   5.205   3.944  0.1078 -0.7306 -0.7113
26183SOL    HW183396   6.904   5.110   3.949  2.6094 -0.5321 -0.4135
26183SOL    HW283397   6.974   5.235   3.898 -0.2324  1.2701 -0.1014
26184SOL     OW83398   8.084   6.867   6.357 -0.1514  0.1329 -0.2457
26184SOL    HW183399   8.170   6.855   6.398 -0.8317 -1.8643  0.7381
26184SOL    HW283400   8.023   6.872   6.429 -0.7977  2.9956 -0.8915
26185SOL     OW83401   7.453   8.806   6.161  0.0122  0.1248  0.5519
26185SOL    HW183402   7.361   8.781   6.169 -0.2104  0.4866 -0.7499
26185SOL    HW283403   7.500   8.723   6.168 -0.4687 -0.1632  0.4406
26186SOL     OW83404   8.253   6.188   6.447  0.2042 -0.3222 -0.4581
26186SOL    HW183405   8.242   6.256   6.512  2.0799  1.2266 -1.6467
26186SOL    HW283406   8.252   6.106   6.497  1.7403  0.8123  1.5517
26187SOL     OW83407   0.756   7.322   6.416 -0.7826 -0.0787  0.2174
26187SOL    HW183408   0.808   7.300   6.338  1.0012 -0.1588  1.3607
26187SOL    HW283409   0.734   7.415   6.404  1.8055  0.7015  0.8006
26188SOL     OW83410   9.382   6.092   4.534  0.1133 -0.4551  0.0597
26188SOL    HW183411   9.409   6.151   4.604 -0.2803 -0.1848 -0.0163
26188SOL    HW283412   9.456   6.032   4.524  1.0003  0.7346 -0.6653
26189SOL     OW83413   7.227   8.287   3.442  0.0914  0.1715  0.0295
26189SOL    HW183414   7.137   8.275   3.410 -0.5155  1.0255  1.3303
26189SOL    HW283415   7.281   8.242   3.377 -0.9094  2.8822 -2.9801
26190SOL     OW83416   7.551   4.499   6.032 -0.2290 -0.0528 -0.0038
26190SOL    HW183417   7.610   4.469   5.964 -0.5664  0.8825 -0.7276
26190SOL    HW283418   7.554   4.595   6.026  0.5308  0.0915  1.9697
26191SOL     OW83419   9.226   7.448   3.333  0.0336  0.0310 -0.0690
26191SOL    HW183420   9.309   7.467   3.289  0.7408  1.7796  1.8595
26191SOL    HW283421   9.239   7.363   3.373  1.5175  0.9134  1.4458
26192SOL     OW83422   9.678   6.382   3.029  0.0471  0.6977 -0.2535
26192SOL    HW183423   9.739   6.442   2.987  1.6248 -1.0426 -0.5639
26192SOL    HW283424   9.633   6.338   2.956  0.3669  0.0675 -0.0776
26193SOL     OW83425   9.846   6.179   3.664 -0.2041 -0.2449  0.1011
26193SOL    HW183426   9.781   6.118   3.699 -1.4353  1.0488  0.1994
26193SOL    HW283427   9.930   6.146   3.695 -0.4217 -3.6349 -2.4008
26194SOL     OW83428   6.410   9.830   3.672  0.4211  0.1270 -0.1755
26194SOL    HW183429   6.430   9.833   3.766  0.3273 -1.1622 -0.0922
26194SOL    HW283430   6.369   9.914   3.653 -2.2330 -0.6694  1.5635
26195SOL     OW83431   6.906   6.692   3.347  0.6062  0.2893  0.1471
26195SOL    HW183432   6.976   6.679   3.283  1.2797  0.4330  0.8410
26195SOL    HW283433   6.920   6.624   3.413  0.0311  0.2535  0.2392
26196SOL     OW83434   5.146   5.899   4.189 -0.3933  0.0653 -0.4061
26196SOL    HW183435   5.241   5.899   4.198 -0.3212 -1.2592 -0.9219
26196SOL    HW283436   5.130   5.918   4.096 -0.7852  3.3776  0.2117
26197SOL     OW83437   6.624   6.289   6.708  0.2891  0.5168 -0.0343
26197SOL    HW183438   6.635   6.348   6.633 -0.2039 -0.1663 -0.6555
26197SOL    HW283439   6.563   6.222   6.677  1.2230 -0.6059  0.4893
26198SOL     OW83440   8.393   5.752   5.371  0.2195  0.3783 -0.4471
26198SOL    HW183441   8.414   5.693   5.299  1.1040  0.9017 -0.6347
26198SOL    HW283442   8.444   5.832   5.353 -0.4127  0.9363  0.1633
26199SOL     OW83443   6.378   4.851   7.059 -0.1617  0.2390  0.3629
26199SOL    HW183444   6.331   4.865   7.141  0.2802  1.1905  0.4702
26199SOL    HW283445   6.454   4.798   7.084  0.1881  0.8640  0.6557
26200SOL     OW83446   8.687   6.817   3.475 -0.2718 -0.3447 -0.0619
26200SOL    HW183447   8.597   6.838   3.501  0.6029  0.7649  2.4332
26200SOL    HW283448   8.736   6.821   3.557  2.3300  0.5900 -1.5748
26201SOL     OW83449   7.219   6.284   4.249  0.1498 -0.0829  0.2125
26201SOL    HW183450   7.274   6.352   4.289  0.8862  0.6731 -1.9678
26201SOL    HW283451   7.130   6.311   4.269  0.4577  1.0697  0.1042
26202SOL     OW83452   8.587   8.250   4.915 -0.2456 -1.0585 -0.6530
26202SOL    HW183453   8.666   8.240   4.970 -0.2211 -0.5850 -0.5989
26202SOL    HW283454   8.580   8.166   4.869  0.6960 -0.8655 -1.1888
26203SOL     OW83455   7.453   4.252   4.228 -0.1337 -0.2593  0.4660
26203SOL    HW183456   7.440   4.229   4.320  0.5249  0.4767  0.7571
26203SOL    HW283457   7.548   4.259   4.219 -0.2474  1.1118  0.1048
26204SOL     OW83458   9.635   6.163   4.358  0.0866 -0.3927  0.1438
26204SOL    HW183459   9.653   6.254   4.383 -1.9968  0.4909 -1.3027
26204SOL    HW283460   9.578   6.170   4.282  1.4574 -2.9484 -1.2420
26205SOL     OW83461   8.182   6.417   5.383 -0.0234 -0.3858 -0.0650
26205SOL    HW183462   8.105   6.396   5.330 -0.4459  0.3593  0.2405
26205SOL    HW283463   8.256   6.390   5.329 -0.4946 -1.4761 -0.2072
26206SOL     OW83464   7.007   8.116   4.339  0.4004  0.0392  0.1372
26206SOL    HW183465   7.089   8.123   4.289 -0.1559 -0.9521 -0.9688
26206SOL    HW283466   6.996   8.201   4.379  1.2145  0.6723 -0.9252
26207SOL     OW83467   9.037   7.699   5.365 -0.1817  0.1763 -0.1243
26207SOL    HW183468   8.972   7.628   5.368  1.6924 -1.6964 -1.1738
26207SOL    HW283469   9.032   7.739   5.451 -0.9696 -1.5665  0.7066
26208SOL     OW83470   6.509   7.246   6.851  0.1877 -1.1074  0.3654
26208SOL    HW183471   6.444   7.180   6.828  0.6041 -1.7588  1.0073
26208SOL    HW283472   6.545   7.274   6.767 -1.4079 -0.1923 -0.0634
26209SOL     OW83473   1.667   7.070   5.462  0.4342 -0.2302  0.0498
26209SOL    HW183474   1.651   6.992   5.409 -0.2886  1.1111 -1.8352
26209SOL    HW283475   1.581   7.091   5.499  0.3555  0.3125 -0.4220
26210SOL     OW83476   7.220   8.157   6.485  0.5183 -0.0666  0.3610
26210SOL    HW183477   7.315   8.152   6.487  0.6859  0.4233 -2.1850
26210SOL    HW283478   7.199   8.240   6.527  1.5741  1.5663 -2.0838
26211SOL     OW83479   9.598   5.798   2.223  0.1515 -0.4911 -0.3826
26211SOL    HW183480   9.677   5.850   2.214  0.9801 -0.9255  2.9585
26211SOL    HW283481   9.620   5.732   2.288 -3.2408  0.1191  1.6382
26212SOL     OW83482   9.607   5.895   3.402 -0.0761 -0.2677 -0.0545
26212SOL    HW183483   9.649   5.830   3.345 -1.5377 -2.5742  1.3400
26212SOL    HW283484   9.667   5.903   3.477 -0.0449 -0.2175 -0.0840
26213SOL     OW83485   0.379   7.243   6.846  0.0630 -0.3068  0.2669
26213SOL    HW183486   0.333   7.326   6.856  1.6433  0.4409  1.9976
26213SOL    HW283487   0.435   7.255   6.769 -1.6470 -0.7969 -1.1176
26214SOL     OW83488   5.485   6.841   5.535  0.0342  0.0354 -0.0462
26214SOL    HW183489   5.526   6.892   5.604  1.9780 -2.3895  0.7175
26214SOL    HW283490   5.396   6.877   5.528  0.5275  1.8548  2.0811
26215SOL     OW83491   8.099   5.673   3.017 -0.1149 -0.4678 -0.3770
26215SOL    HW183492   8.085   5.740   3.084 -0.6850  1.2270 -2.0812
26215SOL    HW283493   8.019   5.621   3.018 -1.2102  1.1027 -1.3469
26216SOL     OW83494   9.479   6.447   3.911  0.0295 -0.5062 -0.1953
26216SOL    HW183495   9.479   6.520   3.973  1.5274 -1.3588  0.8657
26216SOL    HW283496   9.444   6.373   3.959 -2.4589 -0.3192 -1.5763
26217SOL     OW83497   7.541   2.807   4.910  0.2122  0.0582  0.1684
26217SOL    HW183498   7.463   2.835   4.862  1.1665  1.7523 -0.4595
26217SOL    HW283499   7.506   2.771   4.992 -1.3677 -1.7675 -1.2035
26218SOL     OW83500   0.897   6.172   5.370  0.1524 -0.1315  0.2271
26218SOL    HW183501   0.874   6.081   5.390 -0.2525  0.1567  1.1342
26218SOL    HW283502   0.817   6.210   5.336  0.3181 -0.1024 -0.1361
26219SOL     OW83503   9.090   7.766   4.946 -0.3518  0.0870 -0.3497
26219SOL    HW183504   9.107   7.688   5.000  0.3257  0.2355 -0.3397
26219SOL    HW283505   9.102   7.735   4.856  2.1225  0.6726 -0.2750
26220SOL     OW83506   8.762   6.904   4.956  0.2371  0.2692 -0.3519
26220SOL    HW183507   8.783   6.812   4.943 -0.7843  0.2014 -1.7102
26220SOL    HW283508   8.680   6.903   5.006 -0.0045  0.4291 -0.7416
26221SOL     OW83509   8.983   7.529   4.176 -0.1091  0.8792 -0.0852
26221SOL    HW183510   9.029   7.446   4.163 -0.6794  0.6178 -0.5013
26221SOL    HW283511   9.043   7.582   4.228 -0.4672 -0.4339  1.7508
26222SOL     OW83512   1.766   5.335   3.024  0.3305  0.3163 -0.1594
26222SOL    HW183513   1.849   5.288   3.035  0.3645  0.3991 -0.0522
26222SOL    HW283514   1.740   5.359   3.113 -0.9930 -1.6810  0.0418
26223SOL     OW83515   7.776   6.994   3.246 -0.3767 -0.7016 -0.0530
26223SOL    HW183516   7.773   6.905   3.212 -3.1713 -0.6500 -0.1628
26223SOL    HW283517   7.841   7.038   3.191 -2.0888 -1.5746 -3.0197
26224SOL     OW83518   5.872   8.925   3.230  0.0900 -0.0107 -0.2555
26224SOL    HW183519   5.900   8.957   3.144 -1.2524  0.5785 -0.5035
26224SOL    HW283520   5.883   8.830   3.225 -1.2159 -0.1281 -1.5888
26225SOL     OW83521   9.610   6.914   2.271  0.1307  0.1074  0.0891
26225SOL    HW183522   9.685   6.871   2.314 -0.4932  0.4377  1.5589
26225SOL    HW283523   9.649   6.987   2.224  0.7885  0.0360  0.5059
26226SOL     OW83524   0.288   5.518   7.291  0.0584 -0.1864 -0.2308
26226SOL    HW183525   0.351   5.589   7.274 -1.1855  0.9879 -0.1352
26226SOL    HW283526   0.342   5.447   7.326  1.3819  0.6376 -0.4921
26227SOL     OW83527   6.118   6.959   7.034  0.4007  0.2527 -0.1229
26227SOL    HW183528   6.154   6.871   7.030 -0.1605  0.0093  0.1601
26227SOL    HW283529   6.044   6.953   7.094  1.1495  1.1905  0.9474
26228SOL     OW83530   6.592   6.500   5.656  0.0471  0.2326  0.1779
26228SOL    HW183531   6.639   6.476   5.736  0.7378 -0.5526 -0.4536
26228SOL    HW283532   6.660   6.527   5.595 -0.4069  0.0612 -0.4131
26229SOL     OW83533   6.621   6.968   5.248 -0.3710  0.0366  0.0516
26229SOL    HW183534   6.658   7.050   5.216 -3.2288  1.9945  1.2940
26229SOL    HW283535   6.598   6.919   5.169 -1.7728  2.0339 -0.8485
26230SOL     OW83536   9.108   7.910   2.277  0.6759 -0.4997  0.1652
26230SOL    HW183537   9.146   7.862   2.204 -0.4445 -1.6410  0.2963
26230SOL    HW283538   9.037   7.854   2.308 -0.1106  0.8455  0.8987
26231SOL     OW83539   9.669   7.258   3.793 -0.4384  0.4499  0.4305
26231SOL    HW183540   9.641   7.260   3.884 -0.6353 -2.1133  0.5179
26231SOL    HW283541   9.624   7.182   3.756  1.4571 -0.0166 -1.1381
26232SOL     OW83542   8.811   6.925   5.375  0.1497 -0.4099 -0.2805
26232SOL    HW183543   8.840   7.013   5.396  0.7479 -0.2069 -1.8075
26232SOL    HW283544   8.813   6.878   5.458 -1.3006  1.2949  0.7916
26233SOL     OW83545   7.403   5.689   4.667  0.1882  0.0245  0.4625
26233SOL    HW183546   7.457   5.767   4.662 -0.3381  0.4416  1.0798
26233SOL    HW283547   7.314   5.720   4.653  0.0100 -0.5250  0.3304
26234SOL     OW83548   8.055   7.294   7.287 -0.1980 -0.6180 -0.4509
26234SOL    HW183549   8.058   7.201   7.265  1.8164 -0.0405 -3.1994
26234SOL    HW283550   7.968   7.322   7.257 -0.2555 -1.3461 -1.0064
26235SOL     OW83551   7.661   3.720   6.786 -0.1544 -0.2034  0.0560
26235SOL    HW183552   7.690   3.695   6.698  0.8038 -1.3096  0.6469
26235SOL    HW283553   7.583   3.774   6.772 -0.2457 -0.6832 -1.4461
26236SOL     OW83554   0.560   7.062   2.485  0.2607  0.2325  0.0711
26236SOL    HW183555   0.634   7.026   2.437 -0.3760 -0.9562 -0.0410
26236SOL    HW283556   0.494   7.079   2.418  0.2623  0.8736  0.2260
26237SOL     OW83557   8.850   5.275   5.638 -0.0341  0.3340 -0.8874
26237SOL    HW183558   8.942   5.251   5.648 -0.2293  0.0466  0.3532
26237SOL    HW283559   8.847   5.368   5.659 -0.1007  0.2389 -0.4792
26238SOL     OW83560   9.302   5.792   3.761 -0.6424  0.2298  0.4109
26238SOL    HW183561   9.376   5.771   3.704  0.4333 -0.8524  2.1275
26238SOL    HW283562   9.228   5.802   3.701  0.5780 -0.1047 -1.2306
26239SOL     OW83563   4.428   5.785   7.936 -0.2677 -0.1180 -0.1489
26239SOL    HW183564   4.485   5.792   7.860 -0.8279  3.7138 -0.4238
26239SOL    HW283565   4.341   5.765   7.900 -0.5017  1.5467 -0.5950
26240SOL     OW83566   7.815   7.398   6.325  0.3049  0.6848 -0.3431
26240SOL    HW183567   7.842   7.353   6.405  0.1706 -0.8497 -1.1278
26240SOL    HW283568   7.839   7.490   6.340  2.0572  0.1093  0.6820
26241SOL     OW83569   8.920   6.279   5.052 -0.6604 -0.3006 -0.2746
26241SOL    HW183570   8.972   6.278   5.133 -1.0440 -0.6125 -0.0306
26241SOL    HW283571   8.975   6.325   4.989  0.3367 -1.5127 -0.3065
26242SOL     OW83572   6.981   6.243   3.102  0.1725 -0.5349 -0.1757
26242SOL    HW183573   6.972   6.324   3.052  1.5245  0.2483  0.7740
26242SOL    HW283574   6.890   6.218   3.122 -0.2847  0.5937 -0.7125
26243SOL     OW83575   8.732   3.777   5.248 -0.0464  0.3028 -0.0639
26243SOL    HW183576   8.732   3.864   5.207 -0.7757 -0.4394 -1.6882
26243SOL    HW283577   8.716   3.795   5.341  0.1594  1.9306 -0.3164
26244SOL     OW83578   8.565   5.915   6.317  0.5613  0.0716  0.2626
26244SOL    HW183579   8.523   5.841   6.360 -1.1171  1.5253  1.2218
26244SOL    HW283580   8.580   5.885   6.227  0.5803 -1.6564  0.8059
26245SOL     OW83581   6.464   5.082   6.420 -0.2567 -0.0511  0.0626
26245SOL    HW183582   6.376   5.118   6.408 -0.3948  0.4552  2.1910
26245SOL    HW283583   6.474   5.018   6.349 -2.2839 -0.0314 -0.2883
26246SOL     OW83584   9.015   6.040   4.177  0.3106  0.3430 -0.1638
26246SOL    HW183585   9.083   6.004   4.120  0.4741 -1.0848  0.8682
26246SOL    HW283586   9.063   6.075   4.252 -0.0149  0.5571 -0.0552
26247SOL     OW83587   7.985   5.496   5.371  0.0641  0.7135  0.2887
26247SOL    HW183588   8.013   5.529   5.286  1.5595 -0.1197  0.4140
26247SOL    HW283589   7.891   5.480   5.362  0.1004  1.1861 -1.0138
26248SOL     OW83590   8.005   6.447   5.181 -0.4770 -0.2430 -0.3022
26248SOL    HW183591   8.058   6.525   5.198 -0.5239 -0.0811 -0.8781
26248SOL    HW283592   7.979   6.455   5.089 -1.0232 -0.6130 -0.1848
26249SOL     OW83593   8.710   5.371   2.895  0.0815  0.3674  0.2474
26249SOL    HW183594   8.796   5.403   2.866  0.4918 -0.9750 -0.0901
26249SOL    HW283595   8.715   5.276   2.883 -2.2082  0.4223 -1.8298
26250SOL     OW83596   9.464   5.296   2.449  0.1189  0.0238  0.3308
26250SOL    HW183597   9.465   5.339   2.364 -1.8482 -2.4198 -1.0720
26250SOL    HW283598   9.557   5.286   2.472  0.7548 -0.1338 -2.0462
26251SOL     OW83599   9.763   6.215   4.704 -0.6030 -0.2171  0.2984
26251SOL    HW183600   9.792   6.285   4.646  1.5004 -0.8649  0.5061
26251SOL    HW283601   9.668   6.212   4.691 -0.2602 -0.4104 -3.2217
26252SOL     OW83602   9.534   6.222   2.831 -0.5492  0.0976  0.4633
26252SOL    HW183603   9.552   6.288   2.763  0.3048 -0.5925 -0.0009
26252SOL    HW283604   9.463   6.169   2.795 -2.1483  1.4936  1.3768
26253SOL     OW83605   7.953   6.591   1.903 -0.0486  0.1302  0.0972
26253SOL    HW183606   7.902   6.664   1.939 -0.4862 -0.8396  1.5190
26253SOL    HW283607   7.947   6.522   1.969  0.4033 -1.1958 -1.1878
26254SOL     OW83608   6.719   8.490   3.783 -0.3357  0.4334  0.4620
26254SOL    HW183609   6.662   8.503   3.707 -1.4780 -0.4775  1.1274
26254SOL    HW283610   6.704   8.568   3.837  1.2840  1.6042 -0.6972
26255SOL     OW83611   9.106   7.910   3.417  0.2325 -0.4167 -0.6427
26255SOL    HW183612   9.161   7.961   3.477  0.3197  0.4162 -1.4148
26255SOL    HW283613   9.152   7.912   3.334  0.0041 -1.3831 -0.8064
26256SOL     OW83614   8.623   8.185   4.202  0.1787 -0.6222  1.1887
26256SOL    HW183615   8.695   8.127   4.175  1.7136  0.6139  2.4221
26256SOL    HW283616   8.590   8.145   4.283  1.5497  0.4000  2.2999
26257SOL     OW83617   9.359   6.703   3.080 -0.1916  0.4792  0.0695
26257SOL    HW183618   9.283   6.737   3.034  0.4597  0.1267 -1.3311
26257SOL    HW283619   9.428   6.767   3.064  0.5626 -0.5774 -1.1033
26258SOL     OW83620   5.688   6.580   3.842  0.3991 -0.4269  0.4037
26258SOL    HW183621   5.743   6.501   3.837 -0.2746 -1.1038  2.5016
26258SOL    HW283622   5.599   6.546   3.851  0.1091  0.5441  1.4362
26259SOL     OW83623   2.197   6.839   4.629 -0.1435  0.0133  0.2097
26259SOL    HW183624   2.272   6.874   4.581  0.3773 -1.3618 -0.0417
26259SOL    HW283625   2.123   6.891   4.599  0.6670  1.2782  0.3192
26260SOL     OW83626   0.149   5.403   4.733 -0.2768  0.6325  0.8272
26260SOL    HW183627   0.241   5.389   4.713 -0.5867 -1.6817  0.7773
26260SOL    HW283628   0.112   5.441   4.653  0.2409 -0.3599  0.1010
26261SOL     OW83629   8.237   7.347   2.609  0.1634  0.6886  0.4098
26261SOL    HW183630   8.291   7.287   2.558 -2.0782  0.0904 -1.3754
26261SOL    HW283631   8.298   7.384   2.674  2.3395 -1.0251 -0.5337
26262SOL     OW83632   6.614   8.695   5.172  0.1211 -0.2058  0.3121
26262SOL    HW183633   6.652   8.783   5.176  3.1675 -1.3055 -0.8430
26262SOL    HW283634   6.653   8.648   5.246 -0.4214 -0.9318  0.1515
26263SOL     OW83635   5.822   5.922   0.876  0.0856  0.1184  0.0547
26263SOL    HW183636   5.911   5.920   0.912  0.9872  0.7163 -2.0020
26263SOL    HW283637   5.833   5.908   0.782 -1.6994  2.9534 -0.6987
26264SOL     OW83638   7.873   6.789   6.121 -0.5875  0.4073  0.1682
26264SOL    HW183639   7.804   6.836   6.167 -1.6808  1.0904 -2.0360
26264SOL    HW283640   7.941   6.776   6.187 -2.6182  0.0473  2.3257
26265SOL     OW83641   9.067   7.730   1.504 -0.1700 -0.4689 -0.0604
26265SOL    HW183642   9.010   7.660   1.536 -1.1442 -0.3560 -1.5096
26265SOL    HW283643   9.120   7.753   1.581 -3.1027  0.5126  1.8205
26266SOL     OW83644   6.955   5.058   5.543  0.1544  0.8470 -0.2131
26266SOL    HW183645   6.944   5.087   5.453  0.0326 -0.4877 -0.6415
26266SOL    HW283646   6.924   5.132   5.596 -3.3781  0.3296 -1.2814
26267SOL     OW83647   9.078   3.525   3.515  0.1710  0.2059 -0.7030
26267SOL    HW183648   9.064   3.430   3.513  0.1091  0.2225 -1.2463
26267SOL    HW283649   9.084   3.547   3.608 -0.1846 -0.2771 -0.5633
26268SOL     OW83650   8.549   6.378   2.710  0.1168 -0.9923  0.2841
26268SOL    HW183651   8.556   6.426   2.793  0.2280 -1.0026  0.2811
26268SOL    HW283652   8.640   6.361   2.685  0.1097 -0.4178 -0.1669
26269SOL     OW83653   7.288   7.211   2.880  0.3797  0.6532  0.2869
26269SOL    HW183654   7.336   7.241   2.957 -0.4587 -1.6704  1.8377
26269SOL    HW283655   7.356   7.187   2.817  1.2201  0.0313  1.3816
26270SOL     OW83656   8.638   7.377   5.536  0.0004  0.1641  0.1549
26270SOL    HW183657   8.625   7.471   5.543  1.9235  0.5076 -0.4952
26270SOL    HW283658   8.641   7.346   5.626  0.2502  0.8548  0.3858
26271SOL     OW83659   7.561   7.790   4.554 -0.3606 -0.1670 -0.0946
26271SOL    HW183660   7.541   7.871   4.600 -1.7805 -1.1434  1.0949
26271SOL    HW283661   7.648   7.805   4.516 -0.6168  1.9069  0.0326
26272SOL     OW83662   0.445   8.010   6.639  0.3164 -0.1700 -0.0982
26272SOL    HW183663   0.360   8.008   6.593  0.7910 -2.9278 -1.0348
26272SOL    HW283664   0.435   7.948   6.711  1.8889 -1.6070 -1.0340
26273SOL     OW83665   8.926   5.761   4.139 -0.0964 -0.5049 -0.1221
26273SOL    HW183666   8.938   5.853   4.115  1.2137 -0.8164 -0.7571
26273SOL    HW283667   8.987   5.747   4.211 -0.6997 -0.7485  0.3504
26274SOL     OW83668   9.077   7.658   3.518 -0.2888  0.3381  0.1359
26274SOL    HW183669   9.113   7.746   3.507  1.6736 -0.3938  0.3453
26274SOL    HW283670   9.124   7.604   3.455 -1.0276 -0.6999  0.4377
26275SOL     OW83671   8.714   0.071   6.519  0.3497  0.0348  0.7826
26275SOL    HW183672   8.708  -0.006   6.461 -0.9768  1.7512 -1.5590
26275SOL    HW283673   8.798   0.110   6.498  0.1791  0.2658  0.5216
26276SOL     OW83674   8.951   6.979   4.562 -0.2573 -0.0497  0.2940
26276SOL    HW183675   9.043   6.974   4.538  0.5446  0.2180  2.9899
26276SOL    HW283676   8.929   7.072   4.555 -0.5937 -0.2269 -1.1725
26277SOL     OW83677   7.777   5.315   4.971 -0.0030  0.0786  0.4611
26277SOL    HW183678   7.736   5.334   4.887  0.3344  1.0621  0.5125
26277SOL    HW283679   7.749   5.225   4.991 -1.6654  0.5122  0.2368
26278SOL     OW83680   7.983   7.556   5.412 -0.0563 -0.2187 -0.2463
26278SOL    HW183681   8.041   7.564   5.336  1.2189 -0.9926  0.6106
26278SOL    HW283682   8.019   7.618   5.476 -1.9127  1.4359 -0.6944
26279SOL     OW83683   0.063   7.256   6.061  0.1937 -0.1915  0.7829
26279SOL    HW183684   0.011   7.256   5.981  0.6263 -1.6595  0.4761
26279SOL    HW283685   0.001   7.278   6.130 -0.2456  0.7847  0.1021
26280SOL     OW83686   9.556   4.571   6.539  0.0511  0.0596 -0.0127
26280SOL    HW183687   9.601   4.603   6.617  1.7372  1.2459 -1.3782
26280SOL    HW283688   9.487   4.514   6.572 -0.4043  1.8635  2.3840
26281SOL     OW83689   6.795   7.255   4.745 -0.3644 -0.8804 -0.4346
26281SOL    HW183690   6.722   7.213   4.792  0.2282  1.1127  2.4771
26281SOL    HW283691   6.874   7.217   4.784  0.1702 -0.8496 -1.4626
26282SOL     OW83692   7.802   6.563   6.512  0.0530  0.0009  0.1791
26282SOL    HW183693   7.853   6.489   6.480 -0.4099 -1.3769  2.4761
26282SOL    HW283694   7.797   6.551   6.607 -1.9855  1.7156  0.3745
26283SOL     OW83695   6.343   5.894   7.199 -0.3210  0.0374 -0.4323
26283SOL    HW183696   6.357   5.827   7.132 -1.3389 -2.4462  1.6846
26283SOL    HW283697   6.372   5.853   7.281 -1.1808  2.1189  0.9916
26284SOL     OW83698   7.968   6.259   3.073  0.7561  0.0418 -0.0572
26284SOL    HW183699   8.015   6.177   3.056 -1.5842 -1.3724 -0.3100
26284SOL    HW283700   8.020   6.326   3.031  3.8543 -0.9466  1.8856
26285SOL     OW83701   8.520   6.545   2.962 -0.0361 -0.4393 -0.0737
26285SOL    HW183702   8.472   6.582   3.035  0.9735 -0.2674  0.5279
26285SOL    HW283703   8.591   6.496   3.003  2.0329  1.6481 -0.9227
26286SOL     OW83704   7.478   7.598   5.350 -0.5670  0.0138  0.4286
26286SOL    HW183705   7.386   7.583   5.327 -0.8379  0.7920  0.9683
26286SOL    HW283706   7.527   7.555   5.280 -1.2492 -3.0975  1.6836
26287SOL     OW83707   9.598   8.837   4.073  0.2144 -0.2213  0.8226
26287SOL    HW183708   9.670   8.859   4.132  0.9323 -0.6994  0.1474
26287SOL    HW283709   9.569   8.920   4.036  2.0783 -0.2116 -0.7756
26288SOL     OW83710   7.931   7.523   2.864  0.4575  0.0819  0.2480
26288SOL    HW183711   7.910   7.572   2.784  0.3937  0.2512  0.3659
26288SOL    HW283712   7.896   7.436   2.849  1.3644 -0.1957 -0.3294
26289SOL     OW83713   6.492   4.547   3.901  0.5261 -0.6248 -0.6346
26289SOL    HW183714   6.523   4.457   3.895  0.7466 -0.5428 -0.7461
26289SOL    HW283715   6.475   4.561   3.995  1.2789 -0.5252 -0.5073
26290SOL     OW83716   7.747   7.705   3.397  0.3546  0.0138 -0.0366
26290SOL    HW183717   7.708   7.621   3.418  0.2142  0.0237 -0.2543
26290SOL    HW283718   7.767   7.700   3.304 -0.6849  0.6326 -0.3031
26291SOL     OW83719   1.564   5.732   3.407  0.1332  0.2050  0.0612
26291SOL    HW183720   1.483   5.766   3.369 -0.6716 -0.0625  1.4531
26291SOL    HW283721   1.545   5.640   3.427  0.5285  0.3217  1.0335
26292SOL     OW83722   7.446   6.849   2.156  0.4606 -0.0610 -0.3710
26292SOL    HW183723   7.505   6.912   2.115  0.5024 -0.7778 -1.4633
26292SOL    HW283724   7.505   6.784   2.195  0.4149 -0.0948 -0.3587
26293SOL     OW83725   4.410   6.420   4.715 -0.9493  0.5233 -0.0723
26293SOL    HW183726   4.355   6.419   4.793  0.9330  0.0758  1.3463
26293SOL    HW283727   4.350   6.406   4.642 -2.4070 -3.8817  1.6237
26294SOL     OW83728   9.851   7.602   5.054 -0.3827  0.1189  0.1865
26294SOL    HW183729   9.876   7.637   5.139  0.3843  1.2740 -0.4734
26294SOL    HW283730   9.837   7.509   5.069  0.8091  0.1012  1.3647
26295SOL     OW83731   7.898   5.158   3.772 -0.3220 -0.2527  0.8119
26295SOL    HW183732   7.904   5.142   3.866 -0.0729 -0.6159  0.7363
26295SOL    HW283733   7.988   5.160   3.741 -0.3783  0.4825  0.6749
26296SOL     OW83734   9.166   7.755   4.132 -0.1985 -0.4908  0.6293
26296SOL    HW183735   9.110   7.799   4.068  0.2903 -0.1287  0.4456
26296SOL    HW283736   9.198   7.826   4.188  0.7048 -0.5885  0.2472
26297SOL     OW83737   9.735   6.797   3.816 -0.5267  0.6769 -1.0255
26297SOL    HW183738   9.676   6.867   3.845  2.9638  2.5407  2.5136
26297SOL    HW283739   9.802   6.842   3.765  1.4431 -0.0865  0.7733
26298SOL     OW83740   0.479   7.348   4.260 -0.3199  0.6816 -0.5170
26298SOL    HW183741   0.450   7.437   4.238 -1.4148  0.3991 -0.2908
26298SOL    HW283742   0.426   7.291   4.204  0.1101  0.1563 -0.3936
26299SOL     OW83743   8.165   6.485   3.572 -0.4280 -0.5244 -0.2719
26299SOL    HW183744   8.248   6.437   3.575 -0.2281 -0.2791 -1.3745
26299SOL    HW283745   8.147   6.496   3.478 -0.1527  2.0663 -0.0838
26300SOL     OW83746   8.403   8.649   5.258  0.0748 -0.4279 -0.1047
26300SOL    HW183747   8.465   8.605   5.200 -1.3087 -1.4305 -0.8682
26300SOL    HW283748   8.422   8.614   5.345  0.4351 -0.8867 -0.3638
26301SOL     OW83749   0.147   6.693   6.355  0.2873  1.1343  0.3435
26301SOL    HW183750   0.105   6.607   6.357  1.3099  0.5756 -0.8967
26301SOL    HW283751   0.175   6.709   6.445 -0.5007  0.4763  0.7147
26302SOL     OW83752   6.583   5.931   5.046  0.5045  0.4675  0.3345
26302SOL    HW183753   6.593   5.840   5.019 -0.4284  0.6580 -0.7267
26302SOL    HW283754   6.670   5.958   5.074  1.7437  0.3575 -2.9428
26303SOL     OW83755   7.245   7.322   7.156  0.6911  0.4500 -0.1366
26303SOL    HW183756   7.225   7.411   7.129  0.3232  0.4399  0.0926
26303SOL    HW283757   7.160   7.285   7.182  0.6441 -0.3300 -1.2877
26304SOL     OW83758   9.790   4.289   3.178  0.1550  0.0717  0.5848
26304SOL    HW183759   9.798   4.194   3.173 -2.0854 -0.0825 -1.2108
26304SOL    HW283760   9.765   4.317   3.090 -0.2925  2.2294  1.3196
26305SOL     OW83761   8.050   6.091   4.674  0.1854  0.6683  0.4026
26305SOL    HW183762   7.985   6.153   4.706 -0.7540 -0.7893  1.4411
26305SOL    HW283763   8.097   6.139   4.606 -0.6666  2.4104  0.9812
26306SOL     OW83764   8.657   6.088   5.666  0.4337  0.7114 -0.3892
26306SOL    HW183765   8.667   6.151   5.737  0.3654  1.2682 -0.8647
26306SOL    HW283766   8.747   6.070   5.638  0.5547 -0.5717  0.7377
26307SOL     OW83767   6.688   5.097   7.636 -0.3791 -0.1545  0.2715
26307SOL    HW183768   6.701   5.190   7.651  0.0828 -0.4964  2.2606
26307SOL    HW283769   6.732   5.079   7.552 -0.4935  1.3872 -0.1423
26308SOL     OW83770   9.746   6.085   6.029  0.3000 -0.2379 -0.1182
26308SOL    HW183771   9.771   5.993   6.025  1.1179 -0.0328  0.2376
26308SOL    HW283772   9.668   6.085   6.085  1.0597 -0.5689  0.9866
26309SOL     OW83773   9.219   6.162   4.808  0.5373 -0.2488 -0.2232
26309SOL    HW183774   9.230   6.069   4.787 -0.1239 -0.6964  1.2689
26309SOL    HW283775   9.305   6.201   4.794  1.0639 -1.2863  0.0909
26310SOL     OW83776   9.146   8.591   4.509 -0.3498 -0.3170  0.3430
26310SOL    HW183777   9.113   8.551   4.429 -0.1300  1.4030 -0.6704
26310SOL    HW283778   9.221   8.643   4.481  0.2828 -0.3859  1.8196
26311SOL     OW83779   7.437   6.259   2.723  0.0299 -0.0084  0.0984
26311SOL    HW183780   7.367   6.283   2.783  0.9150  2.8556  0.1202
26311SOL    HW283781   7.496   6.205   2.776  0.6533  2.2321  1.8327
26312SOL     OW83782   0.418   6.337   6.250  0.6884 -0.0292  0.0667
26312SOL    HW183783   0.380   6.424   6.261 -0.1689 -0.3557 -0.2630
26312SOL    HW283784   0.494   6.351   6.193  0.7969  0.5552  0.3457
26313SOL     OW83785   6.957   5.290   6.883  0.1448 -0.0205  0.4726
26313SOL    HW183786   6.943   5.235   6.805 -1.4617  1.1390 -0.1159
26313SOL    HW283787   6.972   5.227   6.954  0.7682 -1.1324 -0.5996
26314SOL     OW83788   6.390   5.730   6.980 -0.3971  0.3627 -0.1278
26314SOL    HW183789   6.380   5.705   6.888  0.1222 -0.5091  0.0451
26314SOL    HW283790   6.471   5.687   7.008 -0.3802  0.8855  0.6506
26315SOL     OW83791   9.287   6.080   5.069 -0.2618 -0.0983  0.5399
26315SOL    HW183792   9.297   6.043   4.981 -1.8480 -2.2974  1.2053
26315SOL    HW283793   9.278   6.174   5.054  0.1104 -0.3438 -1.5851
26316SOL     OW83794   8.995   6.773   3.322  0.5099 -0.6200  0.0027
26316SOL    HW183795   9.090   6.770   3.331  0.5165 -0.8559 -0.1488
26316SOL    HW283796   8.966   6.828   3.395  0.8411  0.2464 -0.5050
26317SOL     OW83797   5.906   3.604   5.447 -0.6435 -0.1165 -0.4032
26317SOL    HW183798   5.960   3.637   5.375  2.2997 -0.3251  1.5110
26317SOL    HW283799   5.888   3.513   5.423  1.0128 -0.4360 -0.5649
26318SOL     OW83800   4.649   8.555   4.240 -0.5093  0.0642 -0.0542
26318SOL    HW183801   4.738   8.537   4.270 -0.0689 -0.1789 -1.4347
26318SOL    HW283802   4.637   8.649   4.257 -0.1704  0.0021  0.5688
26319SOL     OW83803   5.033   7.636   4.577  0.0363  0.8566  0.2563
26319SOL    HW183804   4.962   7.655   4.515 -0.3058  1.8085  0.9252
26319SOL    HW283805   4.998   7.663   4.662 -0.0450 -1.7448  1.1227
26320SOL     OW83806   6.066   5.534   4.171  0.6138  0.2716  0.6894
26320SOL    HW183807   6.143   5.585   4.145 -0.5477  2.2981  1.0605
26320SOL    HW283808   6.050   5.475   4.097  0.1473  2.6530 -1.2105
26321SOL     OW83809   8.969   5.674   3.247 -0.4770 -0.1862 -0.1693
26321SOL    HW183810   8.999   5.585   3.262  0.2331  0.1561  0.5310
26321SOL    HW283811   9.050   5.726   3.241 -0.8836  0.5584  0.4833
26322SOL     OW83812   9.727   6.594   4.980  0.4255 -0.3121  0.7300
26322SOL    HW183813   9.799   6.564   4.924  0.6770 -0.0747  0.9188
26322SOL    HW283814   9.667   6.520   4.983  1.1791 -0.9233  1.4289
26323SOL     OW83815   5.208   7.745   6.036 -0.2081 -0.4233 -0.2688
26323SOL    HW183816   5.117   7.751   6.065  0.1245  2.4583  0.5010
26323SOL    HW283817   5.259   7.755   6.117  0.7837  0.3805 -0.9779
26324SOL     OW83818   7.471   7.833   4.868 -0.2428  0.3367  0.5382
26324SOL    HW183819   7.478   7.900   4.800 -0.8979  0.1293  0.2594
26324SOL    HW283820   7.384   7.847   4.907 -0.5800 -0.6241  0.1744
26325SOL     OW83821   9.464   9.276   4.640 -0.5567 -0.1490  0.3821
26325SOL    HW183822   9.492   9.277   4.731  1.8674 -0.7630 -0.2579
26325SOL    HW283823   9.389   9.334   4.636  0.3532  1.2620  2.4619
26326SOL     OW83824   8.534   8.077   3.930 -0.0874 -0.5215 -0.0476
26326SOL    HW183825   8.451   8.031   3.932 -0.0655 -0.5877 -0.4924
26326SOL    HW283826   8.526   8.146   3.995  0.3663 -1.9786  1.6184
26327SOL     OW83827   6.315   7.132   7.891 -0.3364 -1.2077 -0.1973
26327SOL    HW183828   6.255   7.203   7.912  0.4996  0.1106 -1.9817
26327SOL    HW283829   6.317   7.130   7.795  3.6467 -0.0809 -0.3121
26328SOL     OW83830   5.142   6.712   6.702 -0.3002 -0.4786 -0.7675
26328SOL    HW183831   5.065   6.763   6.727  0.6484  0.2499  0.8402
26328SOL    HW283832   5.163   6.742   6.614 -1.2673  0.0321 -0.8421
26329SOL     OW83833   9.523   7.963   5.640 -0.2679  0.1104  1.3320
26329SOL    HW183834   9.542   7.977   5.733  1.6758  0.4054  0.9366
26329SOL    HW283835   9.609   7.953   5.600 -0.9522  1.7372 -0.7187
26330SOL     OW83836   8.500   6.034   6.898 -0.1649 -0.0251 -0.7774
26330SOL    HW183837   8.568   6.028   6.965 -0.4876  1.1441 -0.3281
26330SOL    HW283838   8.498   6.126   6.873 -0.7294 -0.2684 -1.6982
26331SOL     OW83839   7.440   5.137   6.538 -0.0416 -0.1343  0.6068
26331SOL    HW183840   7.513   5.076   6.527 -0.3206 -0.5202  0.8787
26331SOL    HW283841   7.396   5.108   6.617  0.9301  1.5671  1.8694
26332SOL     OW83842   7.632   5.931   8.716 -0.6086 -0.1927 -0.0648
26332SOL    HW183843   7.715   5.947   8.761 -1.3013 -2.4359  2.2711
26332SOL    HW283844   7.566   5.934   8.786 -2.1495 -1.0122 -1.4064
26333SOL     OW83845   7.523   7.350   7.817 -0.2770 -0.2206 -0.7045
26333SOL    HW183846   7.478   7.296   7.883 -0.9452 -0.3669 -1.2781
26333SOL    HW283847   7.584   7.289   7.775  0.6758  0.0341  0.2401
26334SOL     OW83848   8.756   7.069   6.799  0.3339  0.4369 -0.7273
26334SOL    HW183849   8.692   7.139   6.801 -0.6981 -0.4789  1.4796
26334SOL    HW283850   8.824   7.097   6.861  0.2185 -0.2403 -0.2919
26335SOL     OW83851   3.149   6.865   7.633 -0.2260 -0.2576  0.0594
26335SOL    HW183852   3.106   6.944   7.664  0.3234 -0.1002  0.4142
26335SOL    HW283853   3.080   6.819   7.584 -0.3531  0.7794 -0.7760
26336SOL     OW83854   9.781   5.013   5.658 -0.0019 -0.4621 -0.0227
26336SOL    HW183855   9.740   5.043   5.739 -0.2861  0.6138 -0.5413
26336SOL    HW283856   9.714   5.023   5.591  0.2588 -1.2572 -0.4153
26337SOL     OW83857   9.544   6.383   5.680 -0.4833  0.7852 -0.3006
26337SOL    HW183858   9.473   6.428   5.726 -0.9466  1.0653 -1.2499
26337SOL    HW283859   9.620   6.440   5.688 -0.6747  1.0299 -0.2408
26338SOL     OW83860   6.818   8.952   6.911 -0.1586 -0.2914  0.4656
26338SOL    HW183861   6.907   8.978   6.891  0.2224 -0.9090  1.2674
26338SOL    HW283862   6.781   9.027   6.957 -0.1942  0.1240 -0.2323
26339SOL     OW83863   8.446   9.043   4.218 -0.3877  0.4541  0.5792
26339SOL    HW183864   8.479   9.025   4.130 -1.0862 -1.3853  0.6615
26339SOL    HW283865   8.495   8.982   4.274 -1.3430  0.2312  1.1852
26340SOL     OW83866   5.131   6.458   6.677 -0.0575  0.0187 -0.3058
26340SOL    HW183867   5.142   6.551   6.698 -1.5563  0.4942 -1.4571
26340SOL    HW283868   5.124   6.456   6.581 -0.0938 -1.2878 -0.2894
26341SOL     OW83869   6.105   7.594   6.537 -0.0734  0.2934 -0.2268
26341SOL    HW183870   6.127   7.540   6.461  0.1811 -0.1658  0.1661
26341SOL    HW283871   6.009   7.591   6.541 -0.0356 -0.7326  0.2124
26342SOL     OW83872   4.864   8.058   6.229  0.8635 -0.5065 -0.3199
26342SOL    HW183873   4.952   8.078   6.197  1.1873 -2.3918 -0.6864
26342SOL    HW283874   4.879   8.004   6.307  0.0277  1.1961  1.1013
26343SOL     OW83875   4.711   6.948   6.828 -0.0482 -0.5253 -0.3192
26343SOL    HW183876   4.699   6.895   6.749  1.6521  0.3756 -1.2374
26343SOL    HW283877   4.647   7.018   6.820 -1.2120 -1.5105  0.1036
26344SOL     OW83878   9.057   7.608   6.866 -0.6972  0.6252 -0.2476
26344SOL    HW183879   9.128   7.650   6.817 -0.1901 -0.5673 -0.5826
26344SOL    HW283880   9.100   7.574   6.944 -0.9492  0.1573 -0.3099
26345SOL     OW83881   7.342   4.821   8.646 -0.1815 -0.5317 -0.5440
26345SOL    HW183882   7.276   4.809   8.714  0.3889 -0.2636  0.0696
26345SOL    HW283883   7.423   4.838   8.694  0.0871  0.3873 -1.3040
26346SOL     OW83884   8.108   8.361   4.001 -0.2445  0.4222  0.1802
26346SOL    HW183885   8.115   8.432   4.065  1.5329  1.1373 -0.7587
26346SOL    HW283886   8.116   8.404   3.916  0.3891 -0.8446 -0.4235
26347SOL     OW83887   8.375   4.258   4.238 -0.8138 -0.3978 -0.0427
26347SOL    HW183888   8.370   4.250   4.334  2.1060 -2.9091  0.0552
26347SOL    HW283889   8.299   4.210   4.206 -1.3542 -0.2704  0.9903
26348SOL     OW83890   9.616   7.128   7.704  0.1504  0.2888 -0.0269
26348SOL    HW183891   9.669   7.058   7.741 -0.8097 -0.8421 -0.7235
26348SOL    HW283892   9.547   7.144   7.768  0.0283  0.1865 -0.1323
26349SOL     OW83893   7.166   4.209   4.934  0.5855  0.9178 -0.0855
26349SOL    HW183894   7.131   4.281   4.986 -0.9783 -0.2598  0.5719
26349SOL    HW283895   7.255   4.236   4.912  0.4284  2.5354  1.1079
26350SOL     OW83896   7.752   6.757   5.852 -0.2129 -0.0688  0.3648
26350SOL    HW183897   7.812   6.743   5.925 -0.9609  0.3091  1.0519
26350SOL    HW283898   7.692   6.824   5.882  0.4474  1.2863 -1.1915
26351SOL     OW83899   8.456   8.904   7.723 -0.1061  0.3255 -0.1896
26351SOL    HW183900   8.383   8.890   7.662 -0.9407  0.8060  0.6650
26351SOL    HW283901   8.451   8.997   7.745  0.6786  0.3266  0.0122
26352SOL     OW83902   9.411   5.677   6.826 -0.0967 -0.3124 -0.4377
26352SOL    HW183903   9.482   5.683   6.889 -1.0847  2.3241  0.5584
26352SOL    HW283904   9.454   5.680   6.740  1.0365  0.4009  0.1392
26353SOL     OW83905   8.154   6.029   5.548  0.0446 -0.3171 -0.1197
26353SOL    HW183906   8.127   6.061   5.634 -1.7690  1.2754 -1.2076
26353SOL    HW283907   8.250   6.037   5.548 -0.1484  4.4468  0.0617
26354SOL     OW83908   0.150   7.603   5.947 -0.1042  0.2122 -0.0442
26354SOL    HW183909   0.069   7.639   5.910  0.0871 -0.3610 -1.0448
26354SOL    HW283910   0.213   7.606   5.874  0.6457  0.2195  0.5912
26355SOL     OW83911   7.191   6.638   4.236 -0.2842  0.6670 -0.0503
26355SOL    HW183912   7.232   6.677   4.159 -0.3104 -1.8654 -1.4567
26355SOL    HW283913   7.256   6.576   4.269 -1.4699 -0.5414  0.0625
26356SOL     OW83914   0.028   6.081   6.609 -0.2047 -0.1124 -0.5828
26356SOL    HW183915   0.090   6.048   6.674 -4.1000 -0.2849  3.5726
26356SOL    HW283916  -0.017   6.003   6.576 -0.8336  0.2019 -0.4987
26357SOL     OW83917   9.675   7.814   5.346 -0.1150  0.4921 -0.2941
26357SOL    HW183918   9.591   7.853   5.323  0.0909  1.1083 -0.0003
26357SOL    HW283919   9.712   7.872   5.413  0.8805  0.6375 -0.9480
26358SOL     OW83920   6.431   7.026   7.134  0.1675  0.7028  0.0003
26358SOL    HW183921   6.446   6.997   7.045  0.4148 -1.4167  0.6746
26358SOL    HW283922   6.375   7.103   7.126 -1.4675 -0.6062 -1.9105
26359SOL     OW83923   0.963   4.214   7.677  0.3517  0.0454 -0.5467
26359SOL    HW183924   0.994   4.251   7.595 -1.0170  0.0893 -1.0839
26359SOL    HW283925   0.870   4.197   7.661  0.3215 -1.0332  0.6086
26360SOL     OW83926   8.137   7.165   6.419 -0.1493  0.2589 -0.4107
26360SOL    HW183927   8.079   7.128   6.353  0.2041 -0.6946 -0.2029
26360SOL    HW283928   8.223   7.164   6.378  0.1582 -0.8028  0.2201
26361SOL     OW83929   7.815   4.859   5.586 -0.0010 -0.0870  1.2386
26361SOL    HW183930   7.831   4.889   5.497  0.9734 -1.6159  0.8437
26361SOL    HW283931   7.738   4.907   5.615 -0.4292  0.3225 -0.4805
26362SOL     OW83932   6.566   6.988   4.616  0.3799 -0.7679  0.0619
26362SOL    HW183933   6.566   7.025   4.704  1.1466 -1.5696  0.4151
26362SOL    HW283934   6.640   7.028   4.572 -0.5996  0.4086 -0.5833
26363SOL     OW83935   1.123   9.127   8.369 -0.0182 -0.2810  0.1837
26363SOL    HW183936   1.139   9.190   8.439  0.2107 -0.5874  0.4114
26363SOL    HW283937   1.042   9.157   8.328 -1.7950 -1.7097  2.4071
26364SOL     OW83938   6.332   4.580   7.925 -0.3890 -0.4305 -0.2672
26364SOL    HW183939   6.374   4.496   7.944  0.1954 -0.2555 -0.7744
26364SOL    HW283940   6.402   4.644   7.930 -1.0049  0.1675  1.0344
26365SOL     OW83941   6.968   4.829   9.721  1.3198  0.1013 -0.0648
26365SOL    HW183942   6.888   4.878   9.703 -0.1407 -1.9044  0.6069
26365SOL    HW283943   6.950   4.784   9.804  2.9331 -0.8243 -0.1832
26366SOL     OW83944   4.486   2.795   7.190 -0.7255 -0.1870 -0.1911
26366SOL    HW183945   4.420   2.734   7.159 -0.2174 -0.3408 -1.0111
26366SOL    HW283946   4.469   2.876   7.141  1.1135 -0.9294 -2.2625
26367SOL     OW83947   5.396   5.824   8.446 -0.0808  0.1452 -0.4493
26367SOL    HW183948   5.323   5.788   8.495  0.0588 -0.5818 -0.7680
26367SOL    HW283949   5.430   5.895   8.501  0.3505 -0.9340  0.7006
26368SOL     OW83950   8.105   9.250   6.637  0.0694  0.2493 -0.1390
26368SOL    HW183951   8.122   9.257   6.543  1.2596 -0.4344  0.0022
26368SOL    HW283952   8.030   9.191   6.644  0.0500  0.2104 -0.6569
26369SOL     OW83953   9.426   8.536   7.199  0.3360  0.0598 -0.0569
26369SOL    HW183954   9.383   8.572   7.276  0.1922 -0.2644  0.0151
26369SOL    HW283955   9.504   8.590   7.187 -0.5706  1.2671 -0.7497
26370SOL     OW83956   5.876   7.056   5.559 -0.7102 -0.1703  0.1142
26370SOL    HW183957   5.971   7.054   5.547 -0.8296 -0.1497 -0.9534
26370SOL    HW283958   5.853   6.966   5.582 -0.1197  0.3997  3.2980
26371SOL     OW83959   8.420   8.445   6.153 -0.1312  0.2345  0.4016
26371SOL    HW183960   8.384   8.476   6.236 -0.3610  0.5912  0.1739
26371SOL    HW283961   8.510   8.479   6.152 -0.6131  1.5499 -0.1737
26372SOL     OW83962   9.004   7.140   8.212 -0.3458  0.1794  0.3144
26372SOL    HW183963   9.074   7.087   8.251 -0.3006  0.8298  1.1447
26372SOL    HW283964   8.923   7.096   8.239 -0.2787 -0.4014 -0.3946
26373SOL     OW83965   7.242   7.261   3.463 -0.1745  0.5104  0.1920
26373SOL    HW183966   7.304   7.188   3.466 -0.1506  0.5043 -0.4019
26373SOL    HW283967   7.270   7.319   3.533  0.8648  0.7936 -0.4378
26374SOL     OW83968   7.603   9.283   7.115 -0.7682 -0.0648 -0.2280
26374SOL    HW183969   7.561   9.369   7.116  1.1927  0.9576 -0.4467
26374SOL    HW283970   7.536   9.224   7.081 -2.6111  1.1053  1.1647
26375SOL     OW83971   7.500   5.444   4.512 -0.1329 -0.0919 -0.2508
26375SOL    HW183972   7.520   5.523   4.562 -1.3268 -0.0116  0.1271
26375SOL    HW283973   7.526   5.466   4.422  1.4012 -0.0008  0.1932
26376SOL     OW83974   1.420   7.523   7.224 -0.0200 -0.2919  0.2010
26376SOL    HW183975   1.489   7.511   7.290  0.9012  0.3959 -0.6276
26376SOL    HW283976   1.368   7.596   7.257  1.2726  0.9833 -0.4951
26377SOL     OW83977   8.149   7.533   6.260  0.2684  0.5052 -0.3608
26377SOL    HW183978   8.162   7.464   6.195  1.9655 -0.2298  0.7092
26377SOL    HW283979   8.062   7.568   6.241  0.0409 -0.8426 -1.9347
26378SOL     OW83980   7.095   6.519   6.197 -0.0483  0.2820  0.0596
26378SOL    HW183981   7.140   6.440   6.227  0.7264  0.7515  0.1506
26378SOL    HW283982   7.155   6.559   6.134 -0.4186  0.8216  0.0401
26379SOL     OW83983   8.753   6.581   7.947 -0.5232 -0.8650  0.1844
26379SOL    HW183984   8.807   6.660   7.956 -1.0396 -0.6351  1.5116
26379SOL    HW283985   8.731   6.578   7.854  1.5993 -0.8772 -0.3622
26380SOL     OW83986   8.022   5.392   4.893 -0.0143  0.5298 -0.2078
26380SOL    HW183987   7.998   5.376   4.802  0.2218  0.7091 -0.3023
26380SOL    HW283988   7.958   5.341   4.944 -0.4631  0.8312 -0.4588
26381SOL     OW83989   8.756   5.478   8.646 -0.2325  0.6228  0.0983
26381SOL    HW183990   8.818   5.445   8.580  0.0556 -1.2833  1.2269
26381SOL    HW283991   8.753   5.572   8.632  2.7050  0.7598 -0.2217
26382SOL     OW83992   7.179   7.429   6.619 -0.3780 -0.4331  0.3490
26382SOL    HW183993   7.205   7.360   6.680  2.0455  0.2100  0.1462
26382SOL    HW283994   7.223   7.507   6.651 -0.0927  0.2024 -1.4681
26383SOL     OW83995   7.990   5.393   8.703 -0.1713  0.9351 -0.6336
26383SOL    HW183996   8.083   5.407   8.687 -0.1028  0.7805 -0.3690
26383SOL    HW283997   7.946   5.459   8.649  0.1345  2.0712  0.4601
26384SOL     OW83998   8.351   7.940   7.589  0.1107 -0.8286 -1.0126
26384SOL    HW183999   8.425   7.978   7.542  0.5084  2.6698  1.9857
26384SOL    HW284000   8.274   7.988   7.557 -0.0866 -0.7642 -0.4533
26385SOL     OW84001   8.786   5.990   8.272  0.2406  0.2682  0.1578
26385SOL    HW184002   8.847   5.962   8.340  2.9513 -1.8110 -2.8227
26385SOL    HW284003   8.824   6.072   8.239  0.5946 -0.2192 -0.6784
26386SOL     OW84004   7.054   4.461   4.339  0.1949  0.6835 -0.1017
26386SOL    HW184005   7.149   4.476   4.338  0.3141 -0.0029 -0.9287
26386SOL    HW284006   7.046   4.366   4.343 -0.4884  0.7816  1.4410
26387SOL     OW84007   7.366   6.802   5.551 -0.2227 -0.3352 -0.1554
26387SOL    HW184008   7.383   6.852   5.630  0.4265  3.1918 -2.3104
26387SOL    HW284009   7.308   6.858   5.499 -1.6735 -3.0633 -1.7001
26388SOL     OW84010   8.761   6.163   7.608 -0.4513  0.2395  0.5017
26388SOL    HW184011   8.800   6.142   7.693  0.4560  1.0632  0.3083
26388SOL    HW284012   8.810   6.240   7.578 -0.6102 -0.1725 -0.8673
26389SOL     OW84013   9.447   3.695   5.437 -0.1960  0.7366 -0.0728
26389SOL    HW184014   9.491   3.774   5.406 -0.4041  0.0377 -2.3310
26389SOL    HW284015   9.359   3.699   5.399  0.5704 -1.7335 -2.3913
26390SOL     OW84016   8.720   8.286   6.436 -0.3067 -0.8228 -0.1291
26390SOL    HW184017   8.777   8.266   6.361  1.0075 -0.0986  0.6488
26390SOL    HW284018   8.739   8.377   6.457 -2.5743 -0.2001 -0.5130
26391SOL     OW84019   7.912   7.655   6.180 -0.3738 -0.8112  0.0511
26391SOL    HW184020   7.867   7.724   6.229  0.9282  0.6103 -0.6534
26391SOL    HW284021   7.935   7.696   6.096 -2.0704 -2.9945 -1.6132
26392SOL     OW84022   0.189   7.180   6.548 -0.1675 -0.4776  0.4017
26392SOL    HW184023   0.122   7.247   6.562  1.6125  1.5464 -0.3395
26392SOL    HW284024   0.181   7.157   6.455 -1.0107 -1.6376  0.7309
26393SOL     OW84025   8.334   5.704   5.679  0.1545  0.1897 -0.4931
26393SOL    HW184026   8.399   5.768   5.709 -0.7546  1.9899 -2.1094
26393SOL    HW284027   8.314   5.730   5.589 -0.6178 -2.1406 -1.0646
26394SOL     OW84028   6.804   5.973   6.900 -0.3370 -0.1816 -0.1853
26394SOL    HW184029   6.842   6.054   6.868  0.5235 -0.6243 -0.3212
26394SOL    HW284030   6.721   5.965   6.853 -0.6044  0.7909  0.0984
26395SOL     OW84031   7.031   5.153   8.205 -0.5297 -1.0166 -0.0878
26395SOL    HW184032   6.996   5.125   8.121  1.0520  0.0700 -1.1659
26395SOL    HW284033   6.990   5.238   8.222  1.9976  0.6797 -1.7763
26396SOL     OW84034   7.411   7.594   7.753  0.7317 -0.1219  0.2839
26396SOL    HW184035   7.431   7.502   7.770 -0.8839 -0.2796  1.6357
26396SOL    HW284036   7.388   7.629   7.840 -1.0143  0.9202 -0.5475
26397SOL     OW84037   6.959   6.789   5.802 -0.5107 -0.7127  0.5446
26397SOL    HW184038   6.920   6.760   5.885 -0.9378 -0.8292  0.3103
26397SOL    HW284039   6.885   6.825   5.753 -0.0934  0.2495  0.5953
26398SOL     OW84040   0.010   9.529   4.733  0.0494 -0.8734 -0.1487
26398SOL    HW184041   0.051   9.442   4.732  2.3894  0.0790  1.7847
26398SOL    HW284042   0.083   9.590   4.725 -1.3496  0.9451  0.3205
26399SOL     OW84043   9.426   5.292   3.904 -0.0078 -0.8126  0.3853
26399SOL    HW184044   9.463   5.301   3.992  1.8230  1.2329 -0.5029
26399SOL    HW284045   9.469   5.215   3.867  2.0044  0.3913  0.0744
26400SOL     OW84046   4.987   7.012   8.199  0.5225  0.2264  0.1501
26400SOL    HW184047   5.026   6.925   8.187  1.3725  0.6920 -0.5688
26400SOL    HW284048   4.912   7.013   8.138  1.7179  0.6982 -1.3845
26401SOL     OW84049   8.852   7.732   6.715  0.0924 -0.1841  0.5566
26401SOL    HW184050   8.910   7.658   6.733 -0.4234 -0.4050  1.3395
26401SOL    HW284051   8.851   7.782   6.797  0.7065  0.8917 -0.0654
26402SOL     OW84052   9.415   6.659   6.047  0.3739 -0.0654  0.0385
26402SOL    HW184053   9.378   6.659   6.135  0.2169  0.4134 -0.0270
26402SOL    HW284054   9.359   6.599   5.997 -0.4096  0.7651 -0.0984
26403SOL     OW84055   0.229   5.426   5.640 -0.1051  0.6548 -0.6240
26403SOL    HW184056   0.246   5.440   5.547  1.7113 -0.5396 -0.5108
26403SOL    HW284057   0.185   5.341   5.644 -0.8505  1.0429 -0.4372
26404SOL     OW84058   9.435   5.848   7.192 -0.1203 -0.3194  0.3482
26404SOL    HW184059   9.435   5.765   7.241  1.9750  1.3574  3.4801
26404SOL    HW284060   9.356   5.893   7.222 -1.4026 -1.1635 -1.5525
26405SOL     OW84061   9.246   9.413   7.094 -0.1643  0.0675  0.5161
26405SOL    HW184062   9.189   9.471   7.044 -1.5093 -1.5177  0.1253
26405SOL    HW284063   9.323   9.467   7.115 -0.5262  1.4166 -1.3826
26406SOL     OW84064   9.664   7.595   4.635  0.0221  0.3361 -0.2187
26406SOL    HW184065   9.669   7.551   4.550  0.2651  0.8564 -0.4716
26406SOL    HW284066   9.658   7.523   4.698  0.0736 -0.0563 -0.6571
26407SOL     OW84067   8.898   5.398   6.744 -0.3202 -0.0846 -0.0134
26407SOL    HW184068   8.815   5.371   6.784  0.6985  0.3205  2.6161
26407SOL    HW284069   8.955   5.416   6.819  1.2142  2.6063 -1.6756
26408SOL     OW84070   6.611   7.401   6.042 -0.3210  0.2146 -0.1194
26408SOL    HW184071   6.662   7.371   5.967 -0.6268  2.1720 -1.1741
26408SOL    HW284072   6.674   7.407   6.114  0.3907  0.2388 -0.7466
26409SOL     OW84073   5.784   7.649   8.838  0.2469 -0.2066 -0.3536
26409SOL    HW184074   5.732   7.620   8.762 -1.1385 -1.8439  1.1299
26409SOL    HW284075   5.753   7.738   8.855 -1.2759 -0.7212 -0.2301
26410SOL     OW84076   4.200   2.786   6.409 -0.5270  0.1581 -0.1529
26410SOL    HW184077   4.114   2.742   6.406 -0.0322 -0.9477  1.0215
26410SOL    HW284078   4.185   2.869   6.365 -1.5695 -1.0692 -2.2576
26411SOL     OW84079   6.136   0.024   5.625  0.2866 -0.5793 -0.8272
26411SOL    HW184080   6.124   0.029   5.720  0.8198  0.2466 -0.7909
26411SOL    HW284081   6.051   0.049   5.588  0.8594  2.1028 -0.5643
26412SOL     OW84082   8.473   5.857   6.053  0.0459  0.5602 -0.0510
26412SOL    HW184083   8.443   5.881   5.965 -0.2625  1.9385  0.4055
26412SOL    HW284084   8.393   5.852   6.105  0.4302  4.9926  1.3530
26413SOL     OW84085   8.345   7.036   6.708 -0.1049  0.4126 -0.0109
26413SOL    HW184086   8.303   7.074   6.784 -0.6681 -0.2037 -0.0048
26413SOL    HW284087   8.377   7.111   6.658  2.3584  0.7975  1.9601
26414SOL     OW84088   8.926   6.413   7.010  0.1854  0.2959 -0.3269
26414SOL    HW184089   8.993   6.481   7.024 -0.6808  1.4182 -1.4736
26414SOL    HW284090   8.928   6.361   7.091  1.4169  1.1960  0.2540
26415SOL     OW84091   9.754   5.536   7.057 -0.1943 -0.6777  0.5074
26415SOL    HW184092   9.674   5.493   7.027  0.4145 -1.4319 -0.0642
26415SOL    HW284093   9.756   5.619   7.010 -1.0114 -0.3129  1.0848
26416SOL     OW84094   7.822   6.613   7.489 -0.2236 -0.5243  0.3656
26416SOL    HW184095   7.891   6.653   7.437  0.8678  0.3374  2.3438
26416SOL    HW284096   7.833   6.519   7.476  0.5319 -0.3522 -0.3047
26417SOL     OW84097   6.293   7.069   6.832  0.5677 -0.2420 -0.1760
26417SOL    HW184098   6.244   7.088   6.912  2.2030  0.8693  0.6312
26417SOL    HW284099   6.233   7.092   6.761 -0.2699  0.5684  0.7586
26418SOL     OW84100   0.155   5.787   6.509 -0.0837 -0.4010  0.0560
26418SOL    HW184101   0.208   5.709   6.488  1.5579  0.4453  0.8719
26418SOL    HW284102   0.073   5.751   6.541  1.4224 -1.9290  2.5283
26419SOL     OW84103   7.557   4.190   0.001 -0.7899  0.1389 -0.3599
26419SOL    HW184104   7.487   4.233  -0.048  0.5873  1.7444 -1.0402
26419SOL    HW284105   7.594   4.127  -0.061 -1.3672 -0.4260 -0.1347
26420SOL     OW84106   8.609   6.671   5.487 -0.3840 -0.2258 -0.4631
26420SOL    HW184107   8.627   6.713   5.571  1.4439 -1.4278 -0.1858
26420SOL    HW284108   8.693   6.671   5.442 -0.9177 -1.2456 -1.5084
26421SOL     OW84109   9.267   7.216   4.672 -0.3336  0.2959  0.3303
26421SOL    HW184110   9.311   7.300   4.687  0.1586  0.4123 -1.4652
26421SOL    HW284111   9.204   7.234   4.602 -1.8988 -0.3370  1.5011
26422SOL     OW84112   6.776   5.569   6.730 -0.0050 -0.0284  0.1423
26422SOL    HW184113   6.835   5.537   6.662 -2.1741  1.2138 -2.5010
26422SOL    HW284114   6.719   5.631   6.685 -1.2476  1.2797  3.2585
26423SOL     OW84115   6.456   6.853   6.921  0.2401 -0.0776 -0.0295
26423SOL    HW184116   6.408   6.920   6.872  1.9964 -0.2921 -2.1748
26423SOL    HW284117   6.392   6.818   6.983 -1.3621  1.9878 -0.4159
26424SOL     OW84118   8.439   8.635   7.863 -0.6028  0.3980  0.2777
26424SOL    HW184119   8.423   8.730   7.868 -3.3677 -0.0107  0.3747
26424SOL    HW284120   8.362   8.599   7.820 -0.2143 -1.9658  1.3743
26425SOL     OW84121   6.129   5.278   6.630  0.2055 -0.3290  0.0598
26425SOL    HW184122   6.079   5.219   6.685 -0.0974  0.1011  0.2492
26425SOL    HW284123   6.098   5.366   6.653 -0.6670 -0.1819 -1.4861
26426SOL     OW84124   8.691   7.955   6.271  0.2187 -0.1507 -0.5477
26426SOL    HW184125   8.784   7.934   6.269  0.1616 -0.6387  0.9711
26426SOL    HW284126   8.666   7.945   6.362 -1.0297  1.2856 -0.6891
26427SOL     OW84127   8.521   5.168   6.328 -0.0937 -0.3331 -0.7276
26427SOL    HW184128   8.559   5.238   6.381 -1.3094 -1.4720  1.8246
26427SOL    HW284129   8.544   5.088   6.375 -1.4976 -1.3923 -1.7848
26428SOL     OW84130   1.611   7.450   3.960 -0.6437 -0.2154  0.1519
26428SOL    HW184131   1.672   7.434   3.887 -1.3227 -0.1240 -0.4475
26428SOL    HW284132   1.660   7.424   4.038  1.0224  2.0183 -0.0515
26429SOL     OW84133   6.839   4.832   4.098 -0.2498  0.4179  0.1800
26429SOL    HW184134   6.794   4.819   4.015 -0.2878  0.0749  0.2510
26429SOL    HW284135   6.856   4.743   4.130 -0.7558  0.5408  0.8132
26430SOL     OW84136   8.153   7.478   6.540 -0.2752  0.5801 -0.1436
26430SOL    HW184137   8.163   7.460   6.446 -0.8267  3.2864 -0.8121
26430SOL    HW284138   8.134   7.571   6.544  0.7198  0.7492  2.7616
26431SOL     OW84139   8.070   6.438   7.375 -0.6925 -0.0517  0.8415
26431SOL    HW184140   8.134   6.487   7.426  1.8361 -2.0927 -0.1515
26431SOL    HW284141   8.076   6.476   7.287  0.1498 -1.0403  0.4464
26432SOL     OW84142   8.513   5.965   5.228 -0.2478  0.0474 -0.2895
26432SOL    HW184143   8.608   5.974   5.232 -0.2332 -0.0100 -0.4825
26432SOL    HW284144   8.483   6.039   5.175 -0.5413  1.4130  1.7121
26433SOL     OW84145   7.380   6.899   6.122  0.2898  0.6861 -0.2265
26433SOL    HW184146   7.368   6.991   6.148  2.0129  1.0972 -0.7581
26433SOL    HW284147   7.324   6.888   6.046  1.0811  1.7182 -0.9909
26434SOL     OW84148   6.312   6.459   6.448 -0.3335 -0.0410  0.0837
26434SOL    HW184149   6.404   6.452   6.471 -0.0781 -0.3809 -0.9960
26434SOL    HW284150   6.297   6.389   6.385 -1.1665  0.4303 -0.2623
26435SOL     OW84151   8.318   6.208   5.983 -0.4503  0.4847  0.0516
26435SOL    HW184152   8.375   6.280   6.010 -0.1990  0.6374 -0.8430
26435SOL    HW284153   8.291   6.166   6.065  1.4371  0.0272  0.4710
26436SOL     OW84154   0.180   5.221   8.329 -0.4019 -0.0680 -0.0083
26436SOL    HW184155   0.114   5.153   8.316 -0.3231  0.0403 -1.0514
26436SOL    HW284156   0.190   5.262   8.243  1.9877 -0.9662 -0.2531
26437SOL     OW84157   7.681   3.496   8.569  0.1903 -0.8272 -0.5921
26437SOL    HW184158   7.717   3.551   8.500  0.3485 -1.2087 -0.8197
26437SOL    HW284159   7.600   3.460   8.532  1.3645 -2.7613 -1.4332
26438SOL     OW84160   8.365   7.709   6.466 -0.1577 -0.9506 -0.2468
26438SOL    HW184161   8.304   7.708   6.540 -1.5607  0.8329 -1.2689
26438SOL    HW284162   8.448   7.736   6.504 -1.5232  3.1002  0.4276
26439SOL     OW84163   7.453   8.682   5.318 -0.1682  0.1269  0.0770
26439SOL    HW184164   7.368   8.701   5.276  0.1143  0.0882 -0.5322
26439SOL    HW284165   7.491   8.614   5.263 -1.0501 -2.1062  2.0940
26440SOL     OW84166   9.471   6.707   5.744 -0.4747  0.1565 -0.8989
26440SOL    HW184167   9.534   6.720   5.815 -1.2570  0.0336 -0.1651
26440SOL    HW284168   9.412   6.639   5.776  0.6491 -1.7711 -2.6887
26441SOL     OW84169   6.191   7.344   6.022  0.1365 -0.2500 -0.0780
26441SOL    HW184170   6.107   7.348   6.069 -0.5782 -1.6431 -1.1391
26441SOL    HW284171   6.200   7.252   5.998  1.6561  0.0095 -0.5724
26442SOL     OW84172   6.460   6.630   8.262  0.1223 -0.6016 -0.3179
26442SOL    HW184173   6.501   6.644   8.177  0.2368  1.9144  0.0726
26442SOL    HW284174   6.528   6.653   8.326 -0.8116  0.3776  0.3715
26443SOL     OW84175   6.670   5.665   4.955  0.1034  0.1568 -0.4993
26443SOL    HW184176   6.765   5.661   4.966  0.3136  2.9385 -0.5934
26443SOL    HW284177   6.637   5.589   5.002  2.3514 -0.6242 -0.0837
26444SOL     OW84178   6.521   6.059   6.333 -0.2179 -0.5977  0.2842
26444SOL    HW184179   6.534   5.972   6.297 -1.9119 -2.2719  3.2909
26444SOL    HW284180   6.602   6.078   6.380  0.1997 -0.4489 -0.4733
26445SOL     OW84181   0.578   6.016   6.496 -0.3997 -0.3122  0.0389
26445SOL    HW184182   0.667   6.046   6.478 -0.2815 -0.1903  0.7805
26445SOL    HW284183   0.572   5.931   6.451 -0.3099  0.2145 -0.9881
26446SOL     OW84184   9.502   6.840   7.462 -0.2841  0.5715 -0.1151
26446SOL    HW184185   9.444   6.878   7.529 -0.7316  0.9165 -0.6938
26446SOL    HW284186   9.493   6.897   7.386  1.7195  1.3214  0.1465
26447SOL     OW84187   9.115   6.072   6.191 -0.3377 -0.4436 -0.2793
26447SOL    HW184188   9.145   6.114   6.272 -0.7135 -1.1871  0.2572
26447SOL    HW284189   9.067   5.995   6.221 -0.7397 -0.5609 -1.2086
26448SOL     OW84190   8.015   0.113   6.756 -0.3256 -0.1363  0.5872
26448SOL    HW184191   8.001   0.024   6.725 -1.4662  0.3359 -0.3649
26448SOL    HW284192   7.987   0.112   6.847 -0.9848 -0.6032  0.3849
26449SOL     OW84193   8.599   5.797   5.678  0.1614  0.4534  0.2762
26449SOL    HW184194   8.623   5.876   5.726 -1.0899 -0.4993  2.6137
26449SOL    HW284195   8.632   5.812   5.589  1.1375  2.9970  0.9872
26450SOL     OW84196   5.196   8.961   6.276 -0.0342 -0.5136 -0.8101
26450SOL    HW184197   5.177   8.879   6.321 -1.0417 -0.0345 -0.3253
26450SOL    HW284198   5.246   9.012   6.341 -1.0836 -0.0036 -0.3899
26451SOL     OW84199   7.264   5.773   7.012  0.2126 -0.0640 -0.0740
26451SOL    HW184200   7.338   5.747   6.958  0.6624 -0.6753  0.8223
26451SOL    HW284201   7.237   5.693   7.056  0.5448  0.6345  1.4432
26452SOL     OW84202   1.519   6.161   6.308 -0.6847 -0.2118 -0.5452
26452SOL    HW184203   1.553   6.234   6.361  0.9556 -0.8469 -0.6816
26452SOL    HW284204   1.429   6.150   6.339 -0.6495  1.2098  0.1834
26453SOL     OW84205   8.877   7.686   8.101  0.1353  0.3971 -0.4143
26453SOL    HW184206   8.867   7.654   8.191  1.1037  1.3247  0.0649
26453SOL    HW284207   8.967   7.720   8.099  0.3367 -0.1885 -1.9350
26454SOL     OW84208   0.545   9.560   5.846 -0.3885  0.5045 -0.3047
26454SOL    HW184209   0.520   9.564   5.754  0.5734  0.5025 -0.5850
26454SOL    HW284210   0.601   9.637   5.859  1.7901 -0.9363 -0.4889
26455SOL     OW84211   6.006   7.805   2.340  0.5105  0.4403  0.0084
26455SOL    HW184212   5.917   7.770   2.337  1.5579 -2.3356 -1.5448
26455SOL    HW284213   6.010   7.866   2.266 -0.0568  0.4450 -0.0228
26456SOL     OW84214   3.056   6.212   5.960 -0.1352  0.3132 -0.4725
26456SOL    HW184215   3.088   6.283   6.015 -1.2198  2.1162 -2.0140
26456SOL    HW284216   2.962   6.231   5.949 -0.8253 -2.2401  0.2669
26457SOL     OW84217   0.482   7.345   5.721 -0.3208  0.1768 -0.0729
26457SOL    HW184218   0.534   7.303   5.789  1.0052  0.5181 -0.8483
26457SOL    HW284219   0.546   7.386   5.663 -1.4665  0.8757 -0.8921
26458SOL     OW84220   8.047   7.655   7.111  0.5450  0.1723  0.1502
26458SOL    HW184221   8.131   7.692   7.082  0.2406 -0.0537 -1.0731
26458SOL    HW284222   8.028   7.700   7.193  2.8098 -1.1527  1.5049
26459SOL     OW84223   8.956   6.500   6.380 -0.4973  0.0188 -0.3236
26459SOL    HW184224   8.964   6.472   6.289 -0.7601 -2.3553  0.3112
26459SOL    HW284225   9.046   6.501   6.413 -0.2891  1.9552 -0.8570
26460SOL     OW84226   6.535   4.880   0.147 -0.2945  0.3587 -0.4407
26460SOL    HW184227   6.463   4.929   0.109 -0.4159  0.3004 -0.2889
26460SOL    HW284228   6.595   4.947   0.181  0.0208  0.4186 -1.1050
26461SOL     OW84229   7.063   8.548   7.049  0.2682  0.2816  0.7547
26461SOL    HW184230   6.989   8.598   7.084 -0.7759 -1.4967  1.1995
26461SOL    HW284231   7.135   8.567   7.110 -1.0788 -1.4710  3.0642
26462SOL     OW84232   9.679   6.705   6.087 -0.5053 -0.0531 -0.2448
26462SOL    HW184233   9.693   6.716   5.993 -0.0130  0.0536 -0.1621
26462SOL    HW284234   9.584   6.705   6.097 -0.6071 -1.5963 -0.9257
26463SOL     OW84235   6.049   5.320   3.988 -0.2558  0.4833 -0.8239
26463SOL    HW184236   5.970   5.274   4.018  0.2712 -0.1011 -0.2818
26463SOL    HW284237   6.019   5.374   3.915 -0.7145 -1.6093 -2.3032
26464SOL     OW84238   6.656   5.745   6.547  0.0340 -0.1400  0.3048
26464SOL    HW184239   6.647   5.691   6.469  0.3796  1.1337 -0.6513
26464SOL    HW284240   6.739   5.791   6.535 -0.3206  0.7208  1.0168
26465SOL     OW84241   0.362   7.955   6.344 -0.5032 -0.2915  0.1693
26465SOL    HW184242   0.284   7.917   6.305 -0.5102  1.0741 -1.2033
26465SOL    HW284243   0.329   8.011   6.414 -0.6133 -1.1290  0.8088
26466SOL     OW84244   7.080   5.985   5.309 -0.5909  0.1945  0.1429
26466SOL    HW184245   7.138   5.964   5.381 -1.2938  0.1446  0.7113
26466SOL    HW284246   7.099   5.918   5.243  0.9774  1.0126 -0.2742
26467SOL     OW84247   7.107   5.504   5.665  0.0085  0.2834 -1.0708
26467SOL    HW184248   7.077   5.578   5.718  1.5038  1.3837 -1.6902
26467SOL    HW284249   7.202   5.500   5.681 -0.0897 -1.7360 -0.7893
26468SOL     OW84250   9.077   4.741   7.551 -0.2078 -0.0508  1.2671
26468SOL    HW184251   9.016   4.809   7.523  1.4162  1.8404  2.1579
26468SOL    HW284252   9.066   4.736   7.646 -0.7335 -1.5161  1.1662
26469SOL     OW84253   7.263   7.148   6.211  0.0796 -0.7011 -0.2320
26469SOL    HW184254   7.273   7.228   6.263 -0.1494  0.2512 -1.6002
26469SOL    HW284255   7.171   7.148   6.185  0.1212 -1.3298 -0.3890
26470SOL     OW84256   0.731   4.119   6.075 -0.4321 -0.0261  0.4885
26470SOL    HW184257   0.707   4.200   6.030 -0.7110 -0.2093  0.3059
26470SOL    HW284258   0.675   4.052   6.036  0.0690 -0.3800  0.3643
26471SOL     OW84259   7.500   6.010   7.613  0.2724 -0.6055  0.5801
26471SOL    HW184260   7.558   6.053   7.676  1.0713 -0.0918 -0.4774
26471SOL    HW284261   7.556   5.947   7.567 -0.3284 -1.0709  0.4651
26472SOL     OW84262   8.783   4.346   6.425 -0.4112  0.4834  0.2801
26472SOL    HW184263   8.867   4.308   6.400 -0.1415  2.4825 -2.2642
26472SOL    HW284264   8.735   4.273   6.466  1.6251 -1.3543 -0.4045
26473SOL     OW84265   8.187   7.357   7.535 -0.2067  0.2326 -0.2268
26473SOL    HW184266   8.154   7.336   7.448 -1.1308 -0.4512  0.2718
26473SOL    HW284267   8.261   7.298   7.547  1.0119  1.5023 -1.1961
26474SOL     OW84268   6.830   8.609   3.443 -0.3292  0.0472  0.3019
26474SOL    HW184269   6.812   8.517   3.462  2.8566 -0.7273  0.1039
26474SOL    HW284270   6.882   8.607   3.362 -1.8361  2.2278 -0.8444
26475SOL     OW84271   9.206   7.443   6.590  0.5347 -0.4550 -0.1035
26475SOL    HW184272   9.289   7.419   6.548  0.6316  0.5300 -0.5003
26475SOL    HW284273   9.152   7.478   6.519  0.3824  0.4229  0.4414
26476SOL     OW84274   8.708   6.340   5.278  0.2973 -0.4538 -0.5136
26476SOL    HW184275   8.788   6.290   5.261  0.5510 -0.0678 -0.4477
26476SOL    HW284276   8.730   6.396   5.352 -0.6027 -1.6897  0.7582
26477SOL     OW84277   5.413   6.499   4.605 -0.7000  0.2305  0.0089
26477SOL    HW184278   5.376   6.576   4.562 -0.4566 -0.0433 -0.7079
26477SOL    HW284279   5.506   6.520   4.613 -0.6194 -0.0190 -0.2639
26478SOL     OW84280   1.576   7.929   3.247  0.1692 -0.4049 -0.2683
26478SOL    HW184281   1.634   7.885   3.184 -0.5783 -1.2664 -0.3689
26478SOL    HW284282   1.489   7.923   3.208 -0.0268  0.6994 -0.0161
26479SOL     OW84283   8.109   4.882   7.610  0.8618  0.5011 -0.1429
26479SOL    HW184284   8.115   4.792   7.578  1.8277  0.6317 -0.3604
26479SOL    HW284285   8.168   4.884   7.686  2.0615  1.3272 -1.0625
26480SOL     OW84286   9.371   6.245   7.190 -0.2200  0.1405  0.2397
26480SOL    HW184287   9.428   6.260   7.115  0.2975  0.5590  0.7114
26480SOL    HW284288   9.334   6.331   7.209 -0.3409  0.0359  0.4790
26481SOL     OW84289   9.597   7.933   5.916  0.2393  0.0784  0.2581
26481SOL    HW184290   9.663   7.936   5.985  1.4835  0.0526 -0.8732
26481SOL    HW284291   9.529   7.993   5.945  0.5019 -0.2743  1.7054
26482SOL     OW84292   9.398   7.366   7.284 -0.3654  0.1591  0.2434
26482SOL    HW184293   9.363   7.282   7.254  0.0475 -0.6513  1.8972
26482SOL    HW284294   9.419   7.413   7.204 -1.7405 -0.8238 -0.7436
26483SOL     OW84295   0.091   6.794   5.712  0.2100  0.4138 -0.2107
26483SOL    HW184296   0.110   6.832   5.627  0.4053  0.2517 -0.2415
26483SOL    HW284297   0.114   6.863   5.775 -1.5043  1.1555 -0.3402
26484SOL     OW84298   6.735   4.710   5.877  0.7161 -0.2339  0.1881
26484SOL    HW184299   6.796   4.752   5.816  1.5690  1.9131  2.3560
26484SOL    HW284300   6.789   4.645   5.923  1.0540  0.7101  1.1554
26485SOL     OW84301   0.795   3.552   7.584 -0.0405  0.1720 -0.3782
26485SOL    HW184302   0.756   3.482   7.532 -2.1377  1.4341 -0.6107
26485SOL    HW284303   0.803   3.515   7.672 -1.5857 -0.2220 -0.3802
26486SOL     OW84304   8.526   6.850   6.746  0.7729 -0.1854 -0.0823
26486SOL    HW184305   8.494   6.932   6.710  2.5592  0.3973 -0.4373
26486SOL    HW284306   8.483   6.842   6.831 -1.6957 -0.4065 -1.2759
26487SOL     OW84307   7.812   7.865   5.250  0.2631 -0.0654 -0.1469
26487SOL    HW184308   7.738   7.874   5.310 -0.1009 -0.7760 -0.4793
26487SOL    HW284309   7.773   7.870   5.162  0.8166  1.2117 -0.3515
26488SOL     OW84310   7.603   7.431   6.140 -0.3565  0.2565 -0.5403
26488SOL    HW184311   7.688   7.412   6.180 -0.6962  1.0522  0.6111
26488SOL    HW284312   7.552   7.470   6.211 -2.1964 -1.5482 -0.7976
26489SOL     OW84313   7.046   5.042   8.786 -0.2496 -0.0586  0.5694
26489SOL    HW184314   7.057   5.104   8.858 -0.4278 -0.1498  0.6754
26489SOL    HW284315   7.104   4.969   8.807  0.9152  0.6091 -0.1720
26490SOL     OW84316   7.310   6.761   8.080 -0.3277  0.1890 -0.2350
26490SOL    HW184317   7.254   6.735   8.007 -0.6211  1.4895 -0.5084
26490SOL    HW284318   7.297   6.694   8.146 -0.5236 -0.6917 -1.1408
26491SOL     OW84319   8.361   6.798   5.826 -0.1377  0.1487  0.0303
26491SOL    HW184320   8.379   6.781   5.734 -0.9845  0.0242 -0.1208
26491SOL    HW284321   8.413   6.732   5.873  0.6542  0.5044 -0.3233
26492SOL     OW84322   8.046   9.279   6.897 -0.5359 -0.2199 -0.1170
26492SOL    HW184323   7.961   9.323   6.903  0.6280  2.0228  1.3590
26492SOL    HW284324   8.073   9.292   6.807 -0.5905  1.5031  0.0730
26493SOL     OW84325   0.157   4.714   6.977 -0.0298 -0.4389 -0.3531
26493SOL    HW184326   0.202   4.738   7.058 -0.5225  0.1099 -0.2330
26493SOL    HW284327   0.104   4.638   7.001  0.9093 -1.1729 -0.5274
26494SOL     OW84328   7.174   6.436   6.881 -0.3822  0.4450  0.1132
26494SOL    HW184329   7.257   6.479   6.902 -0.1720  0.0669  0.0785
26494SOL    HW284330   7.107   6.502   6.898 -0.3849 -0.2676  3.6316
26495SOL     OW84331   7.735   5.640   6.512  0.0561  0.1176  0.0906
26495SOL    HW184332   7.741   5.734   6.523  0.2673 -0.0612  1.9885
26495SOL    HW284333   7.824   5.608   6.527  0.1756 -0.3425 -1.4183
26496SOL     OW84334   8.135   6.945   5.185 -0.3401  0.2024 -0.2594
26496SOL    HW184335   8.171   6.856   5.186 -1.7016 -0.3882  1.2418
26496SOL    HW284336   8.150   6.976   5.096  1.1208 -1.1196 -0.5195
26497SOL     OW84337   7.373   5.626   4.924 -0.0247  0.0245 -0.0400
26497SOL    HW184338   7.375   5.644   4.830 -0.9604  0.8262  0.0778
26497SOL    HW284339   7.437   5.686   4.962  0.3562 -0.3023 -0.1556
26498SOL     OW84340   7.431   4.074   5.421 -0.1801  0.0881 -0.6381
26498SOL    HW184341   7.431   3.980   5.437 -0.4340  0.2783  0.5320
26498SOL    HW284342   7.339   4.100   5.428 -0.1099  0.4273 -0.9389
26499SOL     OW84343   8.558   7.250   4.529  0.5413  0.8818  0.4837
26499SOL    HW184344   8.571   7.335   4.570  2.1431 -0.3054  2.6174
26499SOL    HW284345   8.465   7.230   4.544 -0.8077  3.5581 -2.9621
26500SOL     OW84346   8.405   6.530   4.357 -0.0822  0.7086  0.3449
26500SOL    HW184347   8.429   6.610   4.310 -0.6384  0.2898 -0.6749
26500SOL    HW284348   8.397   6.464   4.289 -0.3594 -0.0480  1.1010
26501SOL     OW84349   0.195   4.330   7.332 -0.4528 -0.4252  0.7258
26501SOL    HW184350   0.233   4.242   7.337 -1.8791 -1.2664 -1.5945
26501SOL    HW284351   0.260   4.381   7.284 -0.1123 -0.5113  1.0902
26502SOL     OW84352   5.292   6.968   7.443 -0.2490 -0.6593 -0.3662
26502SOL    HW184353   5.218   6.957   7.384  0.3026  0.2786 -1.2727
26502SOL    HW284354   5.314   7.061   7.437  0.8231 -0.8614  0.1033
26503SOL     OW84355   6.494   4.414   7.220 -0.1326  0.0320 -0.2988
26503SOL    HW184356   6.406   4.384   7.242  0.6079 -1.2980  1.1003
26503SOL    HW284357   6.521   4.359   7.147 -0.2115 -0.0575 -0.2609
26504SOL     OW84358   5.772   4.270   6.669  0.0579 -0.1611 -0.2135
26504SOL    HW184359   5.864   4.298   6.675  0.1388 -0.4662 -0.0125
26504SOL    HW284360   5.775   4.185   6.625 -0.2563  0.4957 -1.5560
26505SOL     OW84361   5.836   5.844   6.544  0.5856 -0.7285  0.1280
26505SOL    HW184362   5.870   5.758   6.569  0.0700 -0.9242  0.1702
26505SOL    HW284363   5.749   5.826   6.509  0.6214 -0.2618 -0.2093
26506SOL     OW84364   9.131   5.982   7.726  0.0462 -0.4186 -0.2800
26506SOL    HW184365   9.213   5.998   7.774 -0.5640 -1.8008  1.3063
26506SOL    HW284366   9.146   5.900   7.680  0.6129  0.8782 -2.5618
26507SOL     OW84367   6.243   6.172   9.663 -0.0163 -0.1099 -1.1867
26507SOL    HW184368   6.266   6.203   9.576 -0.5792  2.6360 -0.4580
26507SOL    HW284369   6.188   6.241   9.700  2.3373  0.2000  2.2922
26508SOL     OW84370   6.878   7.002   9.402 -0.3839 -0.5054  0.3412
26508SOL    HW184371   6.855   7.074   9.343 -0.8021 -0.2529  0.8033
26508SOL    HW284372   6.875   6.924   9.348 -2.1266 -0.4578  0.3255
26509SOL     OW84373   7.187   7.525   8.241 -0.5373  0.1030  0.1686
26509SOL    HW184374   7.184   7.434   8.272  1.4039 -0.7354 -1.8525
26509SOL    HW284375   7.161   7.520   8.149 -2.2251  1.9172  0.4896
26510SOL     OW84376   0.101   6.886   7.484 -0.2979  0.2863 -0.0832
26510SOL    HW184377   0.126   6.932   7.563 -0.2491 -0.5787  0.4163
26510SOL    HW284378   0.038   6.819   7.513  0.9159 -1.0957 -0.5113
26511SOL     OW84379   8.056   6.159   8.546  0.1843 -0.0520  0.1475
26511SOL    HW184380   8.071   6.248   8.579 -1.3796  0.5797 -0.7201
26511SOL    HW284381   8.060   6.168   8.450  2.6892 -1.4675  0.0185
26512SOL     OW84382   8.863   7.839   9.586  0.6231  0.3209 -0.6238
26512SOL    HW184383   8.954   7.842   9.556  0.9477  1.9637  0.4631
26512SOL    HW284384   8.811   7.850   9.506  1.4425  2.1241 -0.9462
26513SOL     OW84385   8.897   7.813   1.289  0.3188  0.1457  0.2911
26513SOL    HW184386   8.816   7.800   1.337 -0.5436  0.2531 -1.0666
26513SOL    HW284387   8.960   7.755   1.331 -0.4290  0.1313  1.4258
26514SOL     OW84388   8.810   7.050   5.898 -0.2064  0.8649  0.4334
26514SOL    HW184389   8.859   7.109   5.841 -0.5669  0.2849 -0.4887
26514SOL    HW284390   8.871   7.030   5.970  1.7139 -1.3459 -1.6247
26515SOL     OW84391   7.482   6.995   0.093 -0.1196 -0.0118 -0.0832
26515SOL    HW184392   7.570   6.960   0.109 -0.0799  0.1916  0.1456
26515SOL    HW284393   7.472   7.065   0.158  0.4999  1.6423 -1.6786
26516SOL     OW84394   1.155   4.694   7.884 -0.3162 -0.3018  0.3818
26516SOL    HW184395   1.091   4.660   7.947  1.0070 -2.9679  0.4646
26516SOL    HW284396   1.238   4.691   7.932  0.2077  1.1496 -0.3714
26517SOL     OW84397   9.682   6.261   7.367  0.0970  0.0210  0.3914
26517SOL    HW184398   9.700   6.315   7.290 -1.3917  2.2640  1.4951
26517SOL    HW284399   9.655   6.177   7.332 -0.5779  0.9948 -1.5586
26518SOL     OW84400   8.363   8.697   6.712  0.3465 -0.0630  0.3038
26518SOL    HW184401   8.357   8.607   6.744 -0.0472  0.0197  0.4562
26518SOL    HW284402   8.444   8.697   6.660  0.0172 -0.6727 -0.2291
26519SOL     OW84403   9.126   6.630   0.858 -0.4453 -0.1320 -0.7807
26519SOL    HW184404   9.200   6.680   0.891 -0.5190  0.6638 -1.7756
26519SOL    HW284405   9.142   6.540   0.889 -0.0421  0.3835  0.5720
26520SOL     OW84406   7.180   5.797   5.079 -0.0863 -0.0334  0.0730
26520SOL    HW184407   7.197   5.859   5.008 -0.8910  0.0956 -0.0110
26520SOL    HW284408   7.259   5.743   5.083  0.7842  1.2402  0.4080
26521SOL     OW84409   7.474   6.239   7.296 -0.3991 -0.4531  0.1950
26521SOL    HW184410   7.455   6.149   7.269 -0.0306 -0.5921  0.3947
26521SOL    HW284411   7.530   6.273   7.226  1.0485 -1.0063  1.0533
26522SOL     OW84412   9.668   0.375   7.149  0.2190  0.5686  0.1893
26522SOL    HW184413   9.632   0.333   7.072 -0.3975  0.5208  0.4985
26522SOL    HW284414   9.738   0.431   7.115 -0.5196  1.1010 -0.4851
26523SOL     OW84415   5.719   6.915   5.792 -0.8636 -0.0645 -0.0655
26523SOL    HW184416   5.698   7.008   5.801  1.3436  0.7777 -2.3371
26523SOL    HW284417   5.800   6.904   5.841 -0.5896 -0.5288 -0.6019
26524SOL     OW84418   9.636   3.808   0.581  0.3927 -0.5452 -0.0897
26524SOL    HW184419   9.624   3.810   0.486  0.5404 -1.3116 -0.1288
26524SOL    HW284420   9.552   3.778   0.615  0.7860 -1.6968 -0.0842
26525SOL     OW84421   1.423   4.536   8.286  0.1711 -0.3428 -0.2207
26525SOL    HW184422   1.328   4.532   8.275  0.3434 -3.5230 -1.7557
26525SOL    HW284423   1.441   4.480   8.361  0.8780 -0.1531 -0.2447
26526SOL     OW84424   0.256   7.019   6.757  0.3055 -0.2737 -0.5006
26526SOL    HW184425   0.253   7.037   6.663  1.1293  1.4394 -0.2491
26526SOL    HW284426   0.262   7.105   6.798  1.9840 -1.0292  1.0166
26527SOL     OW84427   8.646   5.437   8.896  0.0558 -0.1340 -0.3373
26527SOL    HW184428   8.679   5.368   8.954 -1.5885 -0.1926  0.5945
26527SOL    HW284429   8.665   5.405   8.807  0.8203 -0.9865  0.1194
26528SOL     OW84430   7.846   5.845   7.740  0.7731  0.3192  0.2562
26528SOL    HW184431   7.789   5.834   7.664  1.5407 -0.5725 -0.2183
26528SOL    HW284432   7.935   5.840   7.704  1.1490  0.3247  1.1522
26529SOL     OW84433   7.414   5.911   8.509  0.2686  0.3275 -0.3547
26529SOL    HW184434   7.477   5.924   8.580  0.2548  0.4436 -0.3630
26529SOL    HW284435   7.355   5.986   8.516 -0.1357 -0.0123 -0.0714
26530SOL     OW84436   7.797   5.386   0.677 -1.0579  0.2657  0.0483
26530SOL    HW184437   7.719   5.347   0.716 -0.3555 -0.0248  1.2027
26530SOL    HW284438   7.814   5.464   0.729 -1.7106  1.4739 -1.4582
26531SOL     OW84439   5.614   6.303   9.392 -0.4402 -0.8068 -0.2935
26531SOL    HW184440   5.668   6.224   9.393 -0.5549 -0.8847 -0.2051
26531SOL    HW284441   5.674   6.372   9.420 -0.5378 -0.9963  0.4131
26532SOL     OW84442   9.520   5.656   8.991 -0.3893  0.2023 -0.6701
26532SOL    HW184443   9.547   5.620   8.906  0.0660  0.2188 -0.5368
26532SOL    HW284444   9.425   5.654   8.989 -0.3795 -0.6365 -0.8323
26533SOL     OW84445   7.248   4.409   8.525 -0.1146  0.3534  0.0736
26533SOL    HW184446   7.305   4.397   8.601  0.3169 -1.8285 -0.5199
26533SOL    HW284447   7.159   4.402   8.561  0.0897 -1.4322  0.3168
26534SOL     OW84448   7.376   9.366   8.140 -0.2771  0.3031  0.1081
26534SOL    HW184449   7.302   9.354   8.199 -0.6291 -0.5337 -0.4886
26534SOL    HW284450   7.387   9.461   8.135 -2.3431  0.5341 -1.0528
26535SOL     OW84451   6.966   4.347   4.670 -0.7485 -0.3507  0.3929
26535SOL    HW184452   7.051   4.392   4.666 -0.4894 -0.7926  0.9166
26535SOL    HW284453   6.935   4.362   4.759  0.3067 -2.9481  1.2895
26536SOL     OW84454   0.435   7.728   7.650 -0.2230  0.3731 -0.0446
26536SOL    HW184455   0.379   7.756   7.722  1.5258  1.2946  1.0199
26536SOL    HW284456   0.400   7.773   7.573 -0.7086  1.2222  0.6559
26537SOL     OW84457   7.299   4.478   9.235  0.7533 -0.3075 -0.0140
26537SOL    HW184458   7.344   4.547   9.286 -1.2710  0.9854  0.1309
26537SOL    HW284459   7.247   4.431   9.300  0.9240 -1.0056 -0.3701
26538SOL     OW84460   8.571   6.909   7.913  0.2770 -0.9153  0.5135
26538SOL    HW184461   8.504   6.959   7.961  1.2773  0.2015  0.7847
26538SOL    HW284462   8.563   6.939   7.823  0.8578 -0.2671  0.6710
26539SOL     OW84463   9.197   9.845   9.609 -0.3130 -0.0351 -0.2761
26539SOL    HW184464   9.268   9.906   9.628  0.2045 -0.2292 -1.5030
26539SOL    HW284465   9.163   9.819   9.695  1.0649  0.1035  0.3252
26540SOL     OW84466   7.296   5.186   6.971 -0.3560 -0.5066  0.4971
26540SOL    HW184467   7.265   5.121   7.035  0.1717 -1.2847 -0.0114
26540SOL    HW284468   7.337   5.254   7.024 -1.3518 -0.3429  1.0715
26541SOL     OW84469   0.592   5.751   8.330 -0.0947 -0.2248 -0.5260
26541SOL    HW184470   0.671   5.805   8.328 -0.3147  0.1235 -0.0946
26541SOL    HW284471   0.578   5.725   8.239  0.1818  0.2018 -0.6943
26542SOL     OW84472   8.020   7.611   7.876  0.6930  0.0919 -0.6985
26542SOL    HW184473   7.928   7.587   7.888  0.9099 -1.9724 -2.5340
26542SOL    HW284474   8.018   7.672   7.802  0.7286  1.1226  0.1176
26543SOL     OW84475   6.321   8.314   1.259  0.1153 -0.4982 -0.3813
26543SOL    HW184476   6.305   8.259   1.182 -2.2325  0.9362 -1.0081
26543SOL    HW284477   6.357   8.395   1.224 -2.2246  0.6922 -0.2066
26544SOL     OW84478   7.066   5.548   0.229  0.2568  0.7763  0.1200
26544SOL    HW184479   7.136   5.507   0.279  0.6786  1.3571  0.0227
26544SOL    HW284480   7.066   5.639   0.259  1.1385  1.3790 -1.5739
26545SOL     OW84481   5.839   6.906   8.713  0.5539  0.1140  0.6524
26545SOL    HW184482   5.772   6.907   8.644  0.9970  0.7664  0.2195
26545SOL    HW284483   5.922   6.911   8.666  0.9382 -1.1962  1.1662
26546SOL     OW84484   8.527   7.467   7.393  0.2985  0.3702  0.1478
26546SOL    HW184485   8.472   7.456   7.315  0.2752  0.9505  0.0797
26546SOL    HW284486   8.597   7.526   7.364 -0.0169  1.0337  0.7135
26547SOL     OW84487   9.166   7.744   5.947  0.8597  0.5528 -0.3877
26547SOL    HW184488   9.177   7.777   6.037  1.0098  0.5443 -0.4022
26547SOL    HW284489   9.217   7.805   5.893  0.2370  0.9446 -0.5456
26548SOL     OW84490   8.852   8.136   8.309  0.6943  0.2436 -0.2343
26548SOL    HW184491   8.891   8.090   8.383  0.4300 -0.7888 -0.7255
26548SOL    HW284492   8.817   8.067   8.253  1.1350  0.9885 -1.4697
26549SOL     OW84493   6.062   7.284   0.118  0.3519  0.3803  0.2727
26549SOL    HW184494   6.020   7.301   0.202  1.8329 -1.0258  1.3693
26549SOL    HW284495   6.153   7.263   0.141  0.6233 -0.7389 -1.6246
26550SOL     OW84496   7.116   5.182   6.465  0.0988 -0.2774 -0.2494
26550SOL    HW184497   7.170   5.213   6.393 -1.0762  1.9195 -0.2631
26550SOL    HW284498   7.178   5.164   6.536  1.0291  0.0885 -0.9595
26551SOL     OW84499   8.777   6.464   9.635  0.1554  0.7294 -0.4519
26551SOL    HW184500   8.690   6.481   9.670 -0.1015  2.1648 -1.7041
26551SOL    HW284501   8.804   6.382   9.676 -1.8975  0.0997 -0.2841
26552SOL     OW84502   7.739   6.939   7.950 -0.2379 -0.0928  0.2632
26552SOL    HW184503   7.660   6.962   7.999 -0.4326  0.9715 -0.4970
26552SOL    HW284504   7.789   7.021   7.946  0.3413 -0.4599 -0.2731
26553SOL     OW84505   7.871   5.919   6.265 -0.5911  0.5871  0.1953
26553SOL    HW184506   7.895   6.010   6.283 -3.2547  1.2397  0.8151
26553SOL    HW284507   7.915   5.899   6.183  0.7768  2.1178  0.5006
26554SOL     OW84508   0.641   7.499   7.314  0.3980  0.7799 -0.4282
26554SOL    HW184509   0.653   7.425   7.255  0.3615  1.3048 -1.1033
26554SOL    HW284510   0.546   7.504   7.327  0.5193 -0.6282  1.3728
26555SOL     OW84511   9.089   1.292   7.127  0.5783  0.5132  0.3081
26555SOL    HW184512   9.119   1.335   7.047  1.5013 -0.6108  0.0215
26555SOL    HW284513   9.008   1.337   7.149  0.3645  0.9364 -1.2018
26556SOL     OW84514   0.305   6.931   7.219 -0.4751  0.0888  0.0839
26556SOL    HW184515   0.352   6.979   7.288  0.3051 -1.6387  0.8234
26556SOL    HW284516   0.345   6.962   7.138  1.2370 -0.5470  0.6431
26557SOL     OW84517   0.043   7.160   7.946  0.7499 -0.3316 -0.0471
26557SOL    HW184518   0.093   7.084   7.974  0.3188 -0.4040  0.5391
26557SOL    HW284519  -0.013   7.182   8.020 -1.1950 -1.1559 -1.1895
26558SOL     OW84520   4.726   8.117   8.677  0.0526 -0.2503  0.2269
26558SOL    HW184521   4.713   8.154   8.765  0.4390  0.4178  0.0056
26558SOL    HW284522   4.727   8.192   8.619 -0.1944 -0.6952 -0.3557
26559SOL     OW84523   8.079   6.100   9.509  0.3348  0.0016  0.0766
26559SOL    HW184524   8.126   6.177   9.477  1.5975 -1.1431 -0.9553
26559SOL    HW284525   8.000   6.097   9.455 -0.7482  1.6615  1.4870
26560SOL     OW84526   8.983   8.075   8.531 -0.0367  0.4088  0.1043
26560SOL    HW184527   8.940   8.066   8.616 -0.4070 -2.6488 -0.2923
26560SOL    HW284528   9.026   7.990   8.517  0.8502  1.1730 -2.3331
26561SOL     OW84529   6.930   5.688   9.176 -0.1524  0.1833  0.2162
26561SOL    HW184530   6.916   5.782   9.189  0.2668  0.2580  0.1249
26561SOL    HW284531   6.846   5.657   9.143 -0.6337  0.3267  1.2621
26562SOL     OW84532   8.609   7.191   7.423 -0.5359 -0.2934  0.1904
26562SOL    HW184533   8.541   7.129   7.397  0.0080 -0.2272 -1.4856
26562SOL    HW284534   8.571   7.277   7.408 -0.1155 -0.2557 -0.7423
26563SOL     OW84535   6.921   7.643   9.551 -0.2977  0.3531  0.8012
26563SOL    HW184536   6.851   7.592   9.592 -0.1717  0.0256  0.6106
26563SOL    HW284537   6.875   7.708   9.499 -0.4594  0.3331  0.9164
26564SOL     OW84538   8.804   4.420   7.762 -0.2604 -0.6986  0.1515
26564SOL    HW184539   8.877   4.412   7.700  0.4182  1.6757  0.5337
26564SOL    HW284540   8.823   4.357   7.831  1.0194 -0.6935 -0.1804
26565SOL     OW84541   9.084   0.042   7.905 -0.2330  0.1101  0.4694
26565SOL    HW184542   9.078   0.137   7.911 -0.2235  0.1582 -0.1912
26565SOL    HW284543   9.120   0.025   7.817  1.6942 -0.4439  1.3178
26566SOL     OW84544   6.847   7.358   8.062  0.1871  0.2691 -0.1524
26566SOL    HW184545   6.919   7.319   8.011  0.0564 -1.2546  0.7532
26566SOL    HW284546   6.859   7.323   8.151 -0.9652  0.9746  0.3050
26567SOL     OW84547   0.439   6.023   7.691 -0.3250  0.2232 -0.1185
26567SOL    HW184548   0.424   5.969   7.769  1.6636 -0.1259  0.0669
26567SOL    HW284549   0.396   6.106   7.711 -0.2785 -0.0395  1.1289
26568SOL     OW84550   7.594   8.262   8.365  0.0142  0.4874 -0.0250
26568SOL    HW184551   7.622   8.353   8.359  0.7746  0.2834  0.2533
26568SOL    HW284552   7.521   8.263   8.427  0.3063  0.8521  0.3212
26569SOL     OW84553   6.813   5.462   0.210  0.0891 -0.5257  0.0484
26569SOL    HW184554   6.818   5.441   0.303  2.2018 -0.9306 -0.1246
26569SOL    HW284555   6.880   5.529   0.196  0.4622 -1.1559 -1.3569
26570SOL     OW84556   8.488   6.794   7.328 -0.0181 -0.4100 -0.1306
26570SOL    HW184557   8.504   6.701   7.312  0.8149 -0.3969  0.5176
26570SOL    HW284558   8.393   6.803   7.329 -0.1075 -1.2686 -0.1276
26571SOL     OW84559   9.717   7.330   8.104  0.0733 -0.1384 -0.1899
26571SOL    HW184560   9.684   7.310   8.192 -0.9749  0.3635 -0.4619
26571SOL    HW284561   9.639   7.350   8.053  0.4699 -2.3174 -1.7643
26572SOL     OW84562   7.452   6.480   7.006  0.3986  0.6589 -0.7100
26572SOL    HW184563   7.522   6.442   7.059  0.3936  2.6258  0.8283
26572SOL    HW284564   7.470   6.450   6.917  2.8478  0.5809 -0.2612
26573SOL     OW84565   8.156   8.115   7.052  0.5856 -0.2702 -0.3910
26573SOL    HW184566   8.194   8.031   7.027  1.9786  0.2112 -0.0422
26573SOL    HW284567   8.203   8.179   6.997 -0.6265  0.2655 -0.8364
26574SOL     OW84568   9.305   5.930   6.406 -0.2361  0.4233 -0.0838
26574SOL    HW184569   9.287   6.020   6.433 -0.6924  1.1291 -2.4903
26574SOL    HW284570   9.219   5.890   6.397 -0.0422 -0.2032  0.7317
26575SOL     OW84571   6.122   6.793   6.759  0.3041  0.3668 -0.7752
26575SOL    HW184572   6.079   6.778   6.844 -0.8962  1.7222 -1.1012
26575SOL    HW284573   6.189   6.725   6.754 -1.6005 -1.6751 -0.0781
26576SOL     OW84574   8.933   5.622   6.602 -0.9186 -0.2593 -0.3674
26576SOL    HW184575   9.025   5.634   6.624 -0.7305 -1.6782 -0.2772
26576SOL    HW284576   8.913   5.533   6.630 -1.9921 -0.4010 -1.4823
26577SOL     OW84577   8.755   5.554   9.451  0.5561 -0.0349 -0.7954
26577SOL    HW184578   8.748   5.636   9.402  0.4704  0.8806  0.6517
26577SOL    HW284579   8.670   5.512   9.438 -0.7925  1.8139  1.1823
26578SOL     OW84580   7.812   8.210   8.832 -0.3912  0.0809  0.8186
26578SOL    HW184581   7.866   8.225   8.754  0.0891 -0.1818  1.0954
26578SOL    HW284582   7.722   8.205   8.799  0.0259 -2.8159 -0.1014
26579SOL     OW84583   7.094   6.428   7.283 -0.2635  0.5295  0.3298
26579SOL    HW184584   7.043   6.476   7.348 -0.3656 -1.0404  1.4982
26579SOL    HW284585   7.140   6.495   7.233 -0.7017  1.8301  1.6094
26580SOL     OW84586   0.536   6.735   7.451 -0.0675  0.1825 -0.0467
26580SOL    HW184587   0.562   6.827   7.459  0.3188 -0.0090  1.2366
26580SOL    HW284588   0.443   6.734   7.475 -0.3674  0.3734 -1.1437
26581SOL     OW84589   8.435   7.623   8.319  0.4330  0.7669 -0.4087
26581SOL    HW184590   8.472   7.634   8.232 -1.2180  2.9103 -0.9362
26581SOL    HW284591   8.451   7.706   8.363 -1.2379  0.7563  0.3046
26582SOL     OW84592   6.030   6.298   8.605 -0.2287  0.1341 -0.1286
26582SOL    HW184593   6.040   6.375   8.548  0.1762  0.3544  0.2368
26582SOL    HW284594   5.968   6.327   8.673  1.5189  0.8635  1.2349
26583SOL     OW84595   9.658   6.952   9.681  0.3797 -0.2464 -0.2738
26583SOL    HW184596   9.690   6.947   9.771 -1.3540 -0.6961  0.3483
26583SOL    HW284597   9.563   6.950   9.688  0.1750  0.4321 -2.0839
26584SOL     OW84598   7.870   4.660   6.363  0.2116 -0.4612 -0.0893
26584SOL    HW184599   7.942   4.597   6.365  2.2662  1.7313  0.8682
26584SOL    HW284600   7.887   4.713   6.285 -0.2721  0.1822  0.2308
26585SOL     OW84601   8.144   5.289   6.341  0.0917 -0.4661  1.1210
26585SOL    HW184602   8.205   5.216   6.328  1.2889  0.4628  1.3244
26585SOL    HW284603   8.057   5.251   6.329  0.7405 -1.6689  0.0242
26586SOL     OW84604   7.838   4.623   7.612 -0.0698  0.0225  0.1990
26586SOL    HW184605   7.795   4.652   7.692  0.4147 -0.5708  0.6805
26586SOL    HW284606   7.778   4.560   7.574  0.4824 -1.0333  1.0283
26587SOL     OW84607   7.134   7.524   7.965 -0.2450 -0.3245 -0.0874
26587SOL    HW184608   7.121   7.429   7.961  2.5712 -0.8395  0.5083
26587SOL    HW284609   7.135   7.552   7.874 -0.4216 -0.9739 -0.2935
26588SOL     OW84610   0.875   4.942   5.392  0.5285  0.0139  0.3450
26588SOL    HW184611   0.886   4.849   5.410 -1.3102  0.0103  1.7659
26588SOL    HW284612   0.926   4.986   5.460 -0.8409 -0.0043  1.4354
26589SOL     OW84613   9.720   8.465   7.108  0.4336 -0.4453 -0.8838
26589SOL    HW184614   9.784   8.511   7.163 -0.8006 -0.6854  0.8354
26589SOL    HW284615   9.714   8.518   7.029 -0.4977  2.1037  0.7689
26590SOL     OW84616   6.131   7.368   6.915  0.2072  0.0612  0.2204
26590SOL    HW184617   6.190   7.339   6.984 -0.2741 -0.4312  0.4216
26590SOL    HW284618   6.141   7.464   6.914  0.0102  0.1006  1.1544
26591SOL     OW84619   9.318   6.021   7.401  0.2692 -0.2846  0.2827
26591SOL    HW184620   9.387   5.970   7.442  0.5478 -0.6528 -0.6148
26591SOL    HW284621   9.363   6.096   7.363  0.1346 -0.3604 -0.0312
26592SOL     OW84622   8.665   6.200   6.602  0.0646 -0.0289  0.3092
26592SOL    HW184623   8.599   6.202   6.533  0.2197 -0.5264  0.1353
26592SOL    HW284624   8.653   6.281   6.650 -0.4867  0.0139  0.1046
26593SOL     OW84625   8.999   8.280   8.109  0.6943  0.0651  0.1147
26593SOL    HW184626   8.959   8.279   8.196 -0.4488  0.3950 -0.3871
26593SOL    HW284627   9.008   8.372   8.087  1.1841 -0.0141 -0.0319
26594SOL     OW84628   0.150   7.934   8.375 -0.2348  0.1808 -0.1595
26594SOL    HW184629   0.113   8.020   8.356  0.1816  0.3176 -0.3597
26594SOL    HW284630   0.186   7.942   8.464 -1.5251 -0.2405  0.4348
26595SOL     OW84631   8.584   6.698   9.557 -0.4333 -0.0333  0.1346
26595SOL    HW184632   8.672   6.728   9.533 -0.1289 -0.4597  0.6979
26595SOL    HW284633   8.583   6.702   9.653 -0.6677 -1.0257  0.1819
26596SOL     OW84634   7.532   6.802   7.491 -0.3526  0.4695 -0.5501
26596SOL    HW184635   7.494   6.890   7.494  1.2853  1.1992  0.6874
26596SOL    HW284636   7.505   6.767   7.407  2.4382  3.8354 -3.1427
26597SOL     OW84637   9.809   5.995   9.697  0.5727 -0.1606 -0.5001
26597SOL    HW184638   9.763   6.056   9.640  3.3325  1.9437 -0.6882
26597SOL    HW284639   9.751   5.985   9.773  0.2423  3.3702 -0.1218
26598SOL     OW84640   7.510   6.439   9.010  0.2000 -0.0084  0.7854
26598SOL    HW184641   7.563   6.377   9.060  0.0048 -1.1051 -0.3417
26598SOL    HW284642   7.491   6.509   9.073  0.7719 -0.8671  1.9623
26599SOL     OW84643   7.620   5.676   8.924 -0.4230  0.0852  0.2820
26599SOL    HW184644   7.574   5.760   8.924 -1.9904 -0.7179 -0.7690
26599SOL    HW284645   7.711   5.698   8.945 -0.6048  2.1508 -0.8504
26600SOL     OW84646   8.725   6.503   5.746  0.6496  1.0772  0.1344
26600SOL    HW184647   8.776   6.435   5.702  1.9957  0.3759  2.6144
26600SOL    HW284648   8.786   6.576   5.756 -0.6653  2.6125 -2.1508
26601SOL     OW84649   7.997   5.105   9.283 -0.0225  0.4533 -0.3502
26601SOL    HW184650   8.087   5.099   9.315  0.1081  0.8775 -0.6276
26601SOL    HW284651   7.993   5.044   9.210  0.0607  0.5000 -0.3927
26602SOL     OW84652   5.852   6.373   6.365 -0.1457  0.3794  0.1577
26602SOL    HW184653   5.819   6.285   6.385 -0.4358  0.2651 -0.7935
26602SOL    HW284654   5.931   6.381   6.419  0.4752 -0.8613 -0.5090
26603SOL     OW84655   7.971   6.809   7.734 -0.0431 -0.3437  0.7539
26603SOL    HW184656   8.048   6.826   7.788  1.0003 -0.4949 -0.6513
26603SOL    HW284657   8.003   6.755   7.662 -1.1499  0.7982 -0.6609
26604SOL     OW84658   0.195   7.163   7.479 -0.0047  0.4655  0.1169
26604SOL    HW184659   0.185   7.079   7.523  0.1651 -0.2305 -1.1513
26604SOL    HW284660   0.136   7.158   7.404  1.0571  0.9185 -0.7645
26605SOL     OW84661   9.106   6.901   9.228 -0.4185  0.4485 -0.3619
26605SOL    HW184662   9.092   6.849   9.307 -2.4942  0.9034 -0.3828
26605SOL    HW284663   9.201   6.906   9.220 -0.1357  0.1339  1.9475
26606SOL     OW84664   9.193   6.021   8.688 -0.5095  0.2596  0.1960
26606SOL    HW184665   9.188   6.117   8.687  2.2013  0.5292  1.3758
26606SOL    HW284666   9.143   5.995   8.765 -2.1349  0.5837 -0.7078
26607SOL     OW84667   8.023   0.700   8.056 -0.4858 -0.0366  0.4903
26607SOL    HW184668   7.988   0.631   8.000  1.1230 -0.4797 -0.0015
26607SOL    HW284669   8.111   0.716   8.023 -0.5087  1.6419  1.1592
26608SOL     OW84670   8.539   7.256   8.972  0.1198  0.5062 -0.2630
26608SOL    HW184671   8.454   7.284   9.006  0.4491  0.8921  0.2507
26608SOL    HW284672   8.544   7.163   8.996 -0.0931  0.5193 -0.1603
26609SOL     OW84673   9.433   8.739   8.853  0.2312  0.0168  0.6425
26609SOL    HW184674   9.453   8.832   8.850  0.2766  0.0052  0.5996
26609SOL    HW284675   9.346   8.731   8.815  0.3536  0.0037  0.3642
26610SOL     OW84676   6.749   5.876   9.524  0.2406 -0.4045  0.0074
26610SOL    HW184677   6.725   5.962   9.558 -0.6924 -0.2312 -1.0239
26610SOL    HW284678   6.666   5.835   9.502  0.7521 -1.0003 -0.8687
26611SOL     OW84679   6.081   8.381   8.280 -0.2621 -0.5001  0.9327
26611SOL    HW184680   6.161   8.334   8.304 -0.8494 -1.2968  1.4233
26611SOL    HW284681   6.015   8.312   8.270 -0.8138  0.1116  0.2091
26612SOL     OW84682   6.806   6.516   8.315  0.1045 -0.1038 -0.0745
26612SOL    HW184683   6.821   6.471   8.398 -1.5170 -0.6799 -0.0521
26612SOL    HW284684   6.759   6.596   8.339  2.3160  1.3021 -0.1844
26613SOL     OW84685   9.535   7.150   6.683  0.6226  0.2418  0.0239
26613SOL    HW184686   9.574   7.072   6.642  0.6611  1.5964 -2.7153
26613SOL    HW284687   9.447   7.154   6.647  0.6620  1.5284  0.0327
26614SOL     OW84688   8.326   6.924   7.748  0.0598 -0.2388 -0.2426
26614SOL    HW184689   8.407   6.921   7.698  0.4658 -1.7661  0.4389
26614SOL    HW284690   8.262   6.963   7.688  0.6467 -1.5326 -1.7852
26615SOL     OW84691   5.935   6.774   8.356  0.5543 -0.3071 -0.1348
26615SOL    HW184692   5.905   6.843   8.415 -0.3800 -0.1486 -0.7682
26615SOL    HW284693   6.020   6.804   8.324  1.0062 -0.3240  0.9923
26616SOL     OW84694   6.931   6.559   8.592  0.2653 -0.1424 -0.1391
26616SOL    HW184695   6.972   6.472   8.594  0.2279 -0.1503  1.0807
26616SOL    HW284696   7.003   6.618   8.571  0.6665 -0.2989  0.7285
26617SOL     OW84697   5.980   4.543   9.202  0.1959 -1.2006  0.0181
26617SOL    HW184698   5.942   4.534   9.114  0.1641 -1.2104  0.0321
26617SOL    HW284699   5.974   4.636   9.221  0.7689 -1.1125 -0.2397
26618SOL     OW84700   9.333   6.410   6.931  0.2922 -0.3080  0.3173
26618SOL    HW184701   9.402   6.347   6.950 -1.5706 -2.0403  1.9149
26618SOL    HW284702   9.307   6.392   6.840  2.3301  0.8743 -0.5631
26619SOL     OW84703   9.092   4.453   6.100  0.2157 -0.1136 -0.1750
26619SOL    HW184704   9.061   4.538   6.069 -2.1536 -0.5676  0.7175
26619SOL    HW284705   9.103   4.464   6.194  0.3558 -0.6443 -0.1231
26620SOL     OW84706   7.745   6.785   8.453  0.0024 -0.5425  0.6569
26620SOL    HW184707   7.760   6.691   8.445  0.2148 -0.3971 -1.0292
26620SOL    HW284708   7.706   6.810   8.369  1.6684  1.1921  0.3518
26621SOL     OW84709   7.216   7.065   0.488  0.3505 -0.4763 -0.6599
26621SOL    HW184710   7.245   7.030   0.573 -2.1458  0.4693  0.6942
26621SOL    HW284711   7.231   7.159   0.494  0.9308 -0.4899 -1.6512
26622SOL     OW84712   8.410   8.003   7.942 -0.1327  0.0572 -0.0610
26622SOL    HW184713   8.443   8.091   7.922 -1.7676  0.5202 -0.8721
26622SOL    HW284714   8.374   8.010   8.030 -2.3517  0.8842 -0.9697
26623SOL     OW84715   7.172   6.513   9.810 -0.5577  0.4155 -0.0208
26623SOL    HW184716   7.104   6.446   9.810  0.2824 -0.4393  0.2925
26623SOL    HW284717   7.156   6.562   9.729 -3.1062  1.8730  1.2335
26624SOL     OW84718   0.730   7.626   7.013 -0.1006  0.0620  0.1434
26624SOL    HW184719   0.717   7.702   7.071 -0.4422  1.2513 -1.4377
26624SOL    HW284720   0.644   7.610   6.975 -0.4368 -2.1891  1.6171
26625SOL     OW84721   0.060   8.856   9.324  0.0204  0.5724 -0.4371
26625SOL    HW184722   0.019   8.908   9.393  0.5046 -0.2409  0.4971
26625SOL    HW284723   0.081   8.773   9.366  2.9012  1.0366 -0.7410
26626SOL     OW84724   5.940   4.443   7.462 -0.0751  0.3018  0.4470
26626SOL    HW184725   5.877   4.486   7.520 -0.0266  0.3664  0.4517
26626SOL    HW284726   5.914   4.351   7.462  1.4057 -0.1829  2.5530
26627SOL     OW84727   7.197   6.661   9.314  0.2341  0.3290 -0.0817
26627SOL    HW184728   7.285   6.624   9.299 -0.2911 -0.2868 -1.8970
26627SOL    HW284729   7.208   6.755   9.302  0.4430  0.1394 -1.5479
26628SOL     OW84730   9.549   9.030   0.720 -0.0888 -0.3448 -0.0419
26628SOL    HW184731   9.629   9.065   0.680 -0.8918  0.9109 -0.6051
26628SOL    HW284732   9.574   9.014   0.811  0.9548 -0.4905 -0.3350
26629SOL     OW84733   9.572   4.808   5.530  0.1345  0.3561 -0.7640
26629SOL    HW184734   9.479   4.802   5.509 -0.1733  3.4127 -0.6998
26629SOL    HW284735   9.576   4.805   5.625 -0.0963  1.6736 -0.6948
26630SOL     OW84736   7.259   9.755   7.588  0.1432  0.5320 -0.2219
26630SOL    HW184737   7.195   9.811   7.544  0.3619  0.6059 -0.4474
26630SOL    HW284738   7.328   9.742   7.523 -0.1334 -0.4000 -0.3461
26631SOL     OW84739   6.823   4.316   7.173  0.2792  0.1280 -0.1195
26631SOL    HW184740   6.819   4.311   7.268 -0.9021  0.7695 -0.1095
26631SOL    HW284741   6.880   4.244   7.147 -0.0399 -0.5580  1.0194
26632SOL     OW84742   7.305   8.117   7.965 -0.0687 -0.1067 -0.1331
26632SOL    HW184743   7.382   8.126   8.021 -0.0349 -2.0539  0.1831
26632SOL    HW284744   7.315   8.187   7.900  2.2188 -0.6046 -0.3969
26633SOL     OW84745   7.445   7.689   8.038 -0.0743  1.0387 -0.3610
26633SOL    HW184746   7.517   7.705   8.099 -0.9271 -0.1196  0.9894
26633SOL    HW284747   7.368   7.727   8.080 -0.9787 -1.1523  0.0896
26634SOL     OW84748   9.348   7.645   9.088 -0.1518 -0.1558 -0.1541
26634SOL    HW184749   9.412   7.601   9.144  0.3121  0.4018 -0.2353
26634SOL    HW284750   9.287   7.576   9.061  1.0220 -0.9219 -0.9320
26635SOL     OW84751   9.153   6.490   7.626 -0.4911 -0.1497 -0.1362
26635SOL    HW184752   9.210   6.417   7.650  0.9554  0.7778 -0.6377
26635SOL    HW284753   9.188   6.521   7.542 -1.0324  1.1489  0.0911
26636SOL     OW84754   9.326   6.986   8.771  0.1534  0.5883  0.1660
26636SOL    HW184755   9.391   7.056   8.765  0.3228  0.4394  0.2526
26636SOL    HW284756   9.263   7.018   8.836  0.2930  0.6103  0.2925
26637SOL     OW84757   6.870   9.057   8.631  0.2467 -0.6730 -0.2853
26637SOL    HW184758   6.779   9.031   8.647 -0.2885  0.9996 -0.3729
26637SOL    HW284759   6.904   9.079   8.717  0.0342  0.2500 -0.4236
26638SOL     OW84760   8.889   7.290   9.481  0.5304 -0.5291  0.0855
26638SOL    HW184761   8.919   7.256   9.565 -0.1172  0.5661  0.7754
26638SOL    HW284762   8.859   7.212   9.433  1.1514 -1.1925  0.7508
26639SOL     OW84763   6.332   7.271   7.396 -0.0448  0.6010 -0.3447
26639SOL    HW184764   6.284   7.266   7.479 -0.4037 -2.0225 -0.6186
26639SOL    HW284765   6.268   7.306   7.334 -0.0009  1.8755  0.2985
26640SOL     OW84766   8.502   7.868   8.426 -0.0573  0.0245 -0.2129
26640SOL    HW184767   8.484   7.962   8.427 -0.8770 -0.0933  1.8791
26640SOL    HW284768   8.592   7.860   8.457 -0.3357  0.0868  0.6277
26641SOL     OW84769   6.684   5.984   7.640  0.4234  0.6614  0.0770
26641SOL    HW184770   6.700   5.986   7.545 -1.1763 -1.2478 -0.3142
26641SOL    HW284771   6.636   5.902   7.654  1.1727  0.5907  2.6576
26642SOL     OW84772   9.816   7.372   8.777  0.1575  0.4253  0.6721
26642SOL    HW184773   9.869   7.379   8.697  1.9013 -0.5387  1.6772
26642SOL    HW284774   9.728   7.396   8.750  1.1525  2.5300 -1.0139
26643SOL     OW84775   0.296   7.179   5.099 -0.9107 -0.2684  0.0767
26643SOL    HW184776   0.379   7.156   5.140  0.4489  0.7216 -1.9538
26643SOL    HW284777   0.239   7.104   5.114  0.8491 -1.6187  0.2221
26644SOL     OW84778   8.635   7.934   7.709  1.2558  0.6721  0.0100
26644SOL    HW184779   8.644   7.934   7.614  0.5802 -0.3892 -0.0665
26644SOL    HW284780   8.682   8.013   7.737  1.7891  0.7962 -1.1612
26645SOL     OW84781   9.774   6.453   9.357 -0.0904 -0.2833 -0.2772
26645SOL    HW184782   9.684   6.423   9.346  0.5401 -2.8133  0.7579
26645SOL    HW284783   9.768   6.522   9.424 -1.1281 -1.4940  0.9394
26646SOL     OW84784   7.877   6.511   7.143  0.1317 -0.2245  0.2239
26646SOL    HW184785   7.941   6.440   7.139  1.5152  1.0097 -0.7387
26646SOL    HW284786   7.913   6.579   7.085 -2.0977  0.5079 -0.3832
26647SOL     OW84787   0.349   5.489   8.148  0.0906 -0.1472  0.3357
26647SOL    HW184788   0.331   5.581   8.168 -1.5925 -0.5604  0.9324
26647SOL    HW284789   0.263   5.447   8.153  1.0812 -2.1202  2.1252
26648SOL     OW84790   8.671   8.727   7.632 -0.1077 -0.1869 -0.2187
26648SOL    HW184791   8.576   8.733   7.621 -0.4411 -1.0059  1.7435
26648SOL    HW284792   8.691   8.636   7.609  0.2472  0.0480 -0.8493
26649SOL     OW84793   7.146   9.246   8.548  0.5421  0.0153 -0.8294
26649SOL    HW184794   7.081   9.178   8.565  2.0210 -1.4264 -0.7037
26649SOL    HW284795   7.113   9.322   8.596 -2.2179  0.1163 -2.6042
26650SOL     OW84796   8.958   6.218   6.492 -0.0921 -0.7438  0.2566
26650SOL    HW184797   9.051   6.198   6.479 -0.5240 -1.1704 -2.8386
26650SOL    HW284798   8.948   6.307   6.458 -1.0087 -1.1884 -0.6971
26651SOL     OW84799   0.145   5.952   9.060 -0.3934  0.1898 -0.6952
26651SOL    HW184800   0.162   6.046   9.064  0.7235 -0.0335  0.4237
26651SOL    HW284801   0.081   5.942   8.989 -1.0068  1.8460 -0.4167
26652SOL     OW84802   6.647   8.734   8.649  0.1796 -0.3503 -0.1617
26652SOL    HW184803   6.559   8.696   8.649  0.4021 -0.8745  0.0755
26652SOL    HW284804   6.676   8.727   8.740  0.1734  0.5189 -0.0832
26653SOL     OW84805   9.597   6.202   9.851  0.4425  0.1904  0.3275
26653SOL    HW184806   9.547   6.257   9.911 -0.5449 -0.0936 -0.2112
26653SOL    HW284807   9.609   6.120   9.898 -0.6827 -0.1752 -0.0072
26654SOL     OW84808   7.030   5.375   5.998 -0.4513  0.4832  0.0623
26654SOL    HW184809   7.052   5.467   5.986  1.1576  0.2719  1.1203
26654SOL    HW284810   6.972   5.373   6.074 -1.8652  0.7617 -0.9803
26655SOL     OW84811   8.736   7.702   5.623  0.1900 -0.0636  0.6539
26655SOL    HW184812   8.829   7.702   5.648  0.6702 -2.0912 -0.8227
26655SOL    HW284813   8.698   7.632   5.676  0.2986 -1.4962 -1.0508
26656SOL     OW84814   8.261   6.557   7.499 -0.6846 -0.3471 -0.0275
26656SOL    HW184815   8.311   6.602   7.567 -2.1980  0.8364  0.3615
26656SOL    HW284816   8.306   6.580   7.418 -1.1759  1.6352  0.1943
26657SOL     OW84817   9.036   8.013   9.258 -0.2378  0.4114 -0.1785
26657SOL    HW184818   9.003   7.982   9.174 -1.9307 -0.4674  0.7536
26657SOL    HW284819   8.999   8.101   9.268 -1.0856  0.0190  0.1948
26658SOL     OW84820   9.260   9.636   6.230 -0.1870 -0.1205  0.1788
26658SOL    HW184821   9.262   9.731   6.226  2.0810 -0.1141  0.1185
26658SOL    HW284822   9.204   9.616   6.305  1.1511  1.3384  1.6418
26659SOL     OW84823   9.364   6.116   7.838  0.2797 -0.4294  0.1942
26659SOL    HW184824   9.386   6.190   7.782  2.3791 -0.0940  1.3257
26659SOL    HW284825   9.449   6.081   7.866 -0.6566 -1.1873  2.3449
26660SOL     OW84826   1.454   6.985   8.374  0.4107  0.0481  0.5682
26660SOL    HW184827   1.534   6.957   8.419  0.8236 -2.0983 -1.3372
26660SOL    HW284828   1.481   7.063   8.325 -0.0306  2.3968  3.6838
26661SOL     OW84829   9.032   9.856   8.474 -0.0810 -0.3172  0.1404
26661SOL    HW184830   9.044   9.780   8.529 -0.9512  0.4429  1.4482
26661SOL    HW284831   8.990   9.822   8.395  1.6639 -1.4983 -0.3340
26662SOL     OW84832   6.682   6.385   7.968  0.0988  0.0539 -0.1435
26662SOL    HW184833   6.644   6.338   7.894  1.1054 -0.3341 -0.4303
26662SOL    HW284834   6.774   6.399   7.943  0.2704  0.5505  0.7251
26663SOL     OW84835   9.482   8.059   7.726  0.3724 -0.1198 -0.0750
26663SOL    HW184836   9.504   7.970   7.753  0.2879  0.0447  0.5640
26663SOL    HW284837   9.528   8.071   7.643  1.8654 -0.1302  0.7229
26664SOL     OW84838   3.087   4.515   0.398  0.0594 -0.4741 -0.0741
26664SOL    HW184839   3.003   4.533   0.440  0.3615  0.9965 -0.0512
26664SOL    HW284840   3.152   4.558   0.454  0.6535 -0.1324 -0.9944
26665SOL     OW84841   7.839   5.489   5.754 -0.4581 -0.3720  0.3276
26665SOL    HW184842   7.865   5.464   5.843 -0.6123  0.6664  0.6787
26665SOL    HW284843   7.919   5.519   5.713  0.1501 -3.1233 -0.7574
26666SOL     OW84844   7.513   9.555   8.929 -0.0577 -0.2874  0.0916
26666SOL    HW184845   7.502   9.472   8.881 -0.0214  0.0650 -0.5380
26666SOL    HW284846   7.530   9.620   8.861  0.8752  0.0757  0.6524
26667SOL     OW84847   7.736   5.023   5.975  0.3397  0.4152  0.9110
26667SOL    HW184848   7.660   5.004   6.029  0.7051 -1.6500  0.8015
26667SOL    HW284849   7.707   5.091   5.914 -1.6392 -0.7418  0.4762
26668SOL     OW84850   7.112   6.707   8.828  0.3107  0.5680 -0.1969
26668SOL    HW184851   7.132   6.633   8.771 -0.5281  0.0750  0.1343
26668SOL    HW284852   7.172   6.776   8.799  1.6382 -0.4628 -0.0244
26669SOL     OW84853   8.995   6.815   7.625  0.1778 -0.6616  0.1403
26669SOL    HW184854   9.045   6.807   7.544 -0.9605  1.4405 -0.8466
26669SOL    HW284855   8.907   6.787   7.602 -0.3353  0.6618  0.4162
26670SOL     OW84856   4.232   6.628   7.776 -0.2272 -0.2905  0.1480
26670SOL    HW184857   4.146   6.658   7.805 -0.5519 -0.6522 -0.4116
26670SOL    HW284858   4.294   6.668   7.837 -1.0133 -2.7660  2.8159
26671SOL     OW84859   0.016   5.634   7.320 -0.4032 -0.5102 -0.0774
26671SOL    HW184860   0.109   5.610   7.318  0.3259  2.0455 -0.7334
26671SOL    HW284861  -0.010   5.639   7.228 -0.1645  2.1121 -0.0732
26672SOL     OW84862   8.543   6.374   9.091  0.5352 -0.3716 -0.1991
26672SOL    HW184863   8.489   6.445   9.056 -0.8014 -0.3640  1.7133
26672SOL    HW284864   8.583   6.410   9.170  0.3377 -1.5369  0.4586
26673SOL     OW84865   0.959   8.716   7.745  0.0014  0.0444  0.2464
26673SOL    HW184866   0.952   8.700   7.651  2.9702  1.0724 -0.2730
26673SOL    HW284867   0.927   8.805   7.758 -2.2612 -0.7537  0.6229
26674SOL     OW84868   6.837   6.693   9.483 -0.3295  0.0251  0.4485
26674SOL    HW184869   6.793   6.610   9.465  1.2336 -0.9650  0.9255
26674SOL    HW284870   6.768   6.759   9.480 -1.7024 -1.3575  0.5758
26675SOL     OW84871   6.623   4.023   7.698 -0.5577 -0.3602 -0.8331
26675SOL    HW184872   6.698   3.997   7.645  0.3026  0.9559 -0.3152
26675SOL    HW284873   6.560   4.058   7.636  0.1380  0.4827 -1.0765
26676SOL     OW84874   8.884   5.961   8.734 -0.7593 -0.1239 -0.2162
26676SOL    HW184875   8.925   5.910   8.804  1.7958 -0.5329 -1.8879
26676SOL    HW284876   8.858   6.042   8.777 -0.0468 -0.6917  1.4036
26677SOL     OW84877   7.424   3.497   6.722 -0.3202  0.5061 -1.1848
26677SOL    HW184878   7.365   3.459   6.658  0.6125 -0.0528 -1.7404
26677SOL    HW284879   7.401   3.590   6.724 -1.6875  0.1770 -0.8426
26678SOL     OW84880   8.304   5.896   0.613  0.5502 -0.2393 -0.1029
26678SOL    HW184881   8.218   5.853   0.620 -0.6289  2.0508  0.6956
26678SOL    HW284882   8.351   5.846   0.546 -1.3037 -1.7081 -0.4004
26679SOL     OW84883   9.304   6.403   8.115 -0.5106 -0.2626 -0.1405
26679SOL    HW184884   9.239   6.360   8.059 -1.1708  0.1851  0.2835
26679SOL    HW284885   9.257   6.424   8.195  0.1174  0.2009  0.1117
26680SOL     OW84886   0.799   8.188   7.741  0.1978 -0.3527 -0.2668
26680SOL    HW184887   0.829   8.278   7.728  1.1442 -0.4858  0.8910
26680SOL    HW284888   0.870   8.134   7.706  1.2078 -0.6640  2.0982
26681SOL     OW84889   9.299   6.181   0.790  0.1034 -0.5585 -0.0567
26681SOL    HW184890   9.369   6.240   0.761 -1.2183  1.0220 -0.1881
26681SOL    HW284891   9.328   6.094   0.761  1.7123  0.1199 -0.6417
26682SOL     OW84892   7.794   6.826   8.755 -0.3159 -0.5131  0.5103
26682SOL    HW184893   7.751   6.755   8.803  0.0730 -0.6949  0.6012
26682SOL    HW284894   7.780   6.806   8.663  0.0802 -0.9002  0.5282
26683SOL     OW84895   8.096   6.407   9.731 -0.5399  0.0710 -0.3676
26683SOL    HW184896   8.142   6.485   9.762 -0.2194 -0.6297  1.0079
26683SOL    HW284897   8.167   6.345   9.712 -0.7744  0.2016 -1.7690
26684SOL     OW84898   7.007   5.762   9.596 -0.6505  0.0349  0.2365
26684SOL    HW184899   6.992   5.698   9.666  1.2647 -0.4899  0.2445
26684SOL    HW284900   6.920   5.793   9.572 -1.8880 -3.5954 -0.7111
26685SOL     OW84901   8.969   9.648   7.916 -0.4537  0.0222 -0.0484
26685SOL    HW184902   9.019   9.728   7.907 -1.7335  0.9536  0.7910
26685SOL    HW284903   8.883   9.669   7.879 -0.5148 -1.2763 -0.7189
26686SOL     OW84904   8.115   5.641   9.356 -0.1499 -0.5619  0.4062
26686SOL    HW184905   8.150   5.574   9.297 -0.8533  0.5902 -1.3943
26686SOL    HW284906   8.065   5.700   9.299 -0.1504  1.0997  2.0355
26687SOL     OW84907   7.870   7.233   8.780  0.1846 -0.7763 -0.2113
26687SOL    HW184908   7.866   7.307   8.841  1.8778 -0.6523 -0.2124
26687SOL    HW284909   7.803   7.253   8.714  0.6672  0.8088 -0.2640
26688SOL     OW84910   8.107   7.579   9.677 -0.0367  0.4120  0.0082
26688SOL    HW184911   8.196   7.607   9.656  0.8524 -1.7226  0.6322
26688SOL    HW284912   8.054   7.608   9.602  1.5335  0.0774 -1.2774
26689SOL     OW84913   9.538   5.877   7.473  0.1539 -0.1251  0.1744
26689SOL    HW184914   9.629   5.873   7.502 -0.1483  1.4026  1.4470
26689SOL    HW284915   9.518   5.787   7.446  1.9762 -0.5165 -0.0242
26690SOL     OW84916   0.631   8.774   0.049 -0.4634  0.7339 -0.3720
26690SOL    HW184917   0.567   8.705   0.032 -0.5737  0.5446  0.7130
26690SOL    HW284918   0.632   8.827  -0.030 -1.1183  0.0677 -0.8348
26691SOL     OW84919   7.569   7.393   8.856  1.3562 -0.4479 -0.0350
26691SOL    HW184920   7.562   7.478   8.900 -0.8451 -1.0238  0.8094
26691SOL    HW284921   7.570   7.415   8.763  0.2857  0.4908  0.1588
26692SOL     OW84922   8.358   5.873   8.507  0.8762 -0.3423  0.1144
26692SOL    HW184923   8.384   5.961   8.534  0.0531  0.1141 -0.5572
26692SOL    HW284924   8.396   5.862   8.420  1.3704 -0.8427  0.3818
26693SOL     OW84925   7.890   7.447   8.564  0.2855 -0.1818  0.4700
26693SOL    HW184926   7.953   7.482   8.501 -0.5288 -0.3445 -0.4411
26693SOL    HW284927   7.878   7.518   8.627  1.0289  0.0201  0.3962
26694SOL     OW84928   7.180   8.344   7.374  0.2328 -0.2252  0.1873
26694SOL    HW184929   7.146   8.256   7.358  1.1558 -0.5029 -0.2975
26694SOL    HW284930   7.268   8.330   7.410 -0.3893  0.4622  2.1375
26695SOL     OW84931   8.984   5.429   6.296  0.0648 -0.2388  0.4981
26695SOL    HW184932   9.073   5.409   6.266  0.2493  0.8314  0.2935
26695SOL    HW284933   8.941   5.470   6.221 -1.2342 -2.4136 -0.0156
26696SOL     OW84934   1.547   5.603   8.031  0.2085  0.2113  0.9223
26696SOL    HW184935   1.531   5.559   7.948  2.7419  0.7620  0.0437
26696SOL    HW284936   1.516   5.693   8.016  1.0990  0.4417  0.3592
26697SOL     OW84937   0.663   7.081   6.792  0.1897 -0.3385 -0.0939
26697SOL    HW184938   0.737   7.067   6.732  1.0775 -0.1535  0.9338
26697SOL    HW284939   0.699   7.134   6.863 -0.7320 -0.9048  0.8268
26698SOL     OW84940   8.314   8.451   9.625 -0.0082 -0.3561 -0.2411
26698SOL    HW184941   8.250   8.391   9.663 -1.5025  2.1970  1.5443
26698SOL    HW284942   8.374   8.472   9.697  0.5786  0.1883 -0.8679
26699SOL     OW84943   9.147   7.970   8.201 -0.4296 -0.2646 -0.6332
26699SOL    HW184944   9.183   8.048   8.243 -0.5798  0.1846 -1.3202
26699SOL    HW284945   9.165   7.899   8.262  0.4570  0.1706 -0.3759
26700SOL     OW84946   8.036   4.898   8.093  0.2394  0.1385  0.4544
26700SOL    HW184947   8.099   4.923   8.161  1.5132 -2.3742  0.2890
26700SOL    HW284948   8.068   4.939   8.013  1.9825 -1.4364  0.2885
26701SOL     OW84949   5.009   6.743   8.175  0.3506 -0.0458 -0.3633
26701SOL    HW184950   5.039   6.735   8.266  0.2804  1.0612 -0.2373
26701SOL    HW284951   4.921   6.707   8.176 -0.2301  1.3231  0.3451
26702SOL     OW84952   7.462   9.535   7.658 -0.6760  0.1451 -0.5950
26702SOL    HW184953   7.556   9.518   7.655 -0.6301  0.1581  0.4092
26702SOL    HW284954   7.434   9.534   7.567  0.6314  1.9839 -1.0665
26703SOL     OW84955   8.350   5.814   9.519 -0.1273 -0.3012 -0.2919
26703SOL    HW184956   8.262   5.799   9.485  0.3420  0.9593 -2.2352
26703SOL    HW284957   8.389   5.727   9.528 -0.4730 -0.7464 -2.5899
26704SOL     OW84958   8.342   6.632   8.017  0.2742 -0.2606 -0.0566
26704SOL    HW184959   8.385   6.620   7.932  1.0574 -1.6116  0.5107
26704SOL    HW284960   8.400   6.591   8.080 -0.2200  0.8635  1.1877
26705SOL     OW84961   8.220   5.400   9.583  0.5804 -0.4812 -0.1561
26705SOL    HW184962   8.276   5.461   9.536  0.4795  0.1039  0.4681
26705SOL    HW284963   8.131   5.432   9.569  0.6570  1.0117  2.1764
26706SOL     OW84964   7.576   9.361   0.611 -0.1598  0.2384  0.5321
26706SOL    HW184965   7.571   9.454   0.631  1.0528  1.0783 -2.5536
26706SOL    HW284966   7.666   9.337   0.632 -0.1395  0.0572  0.2470
26707SOL     OW84967   8.859   6.421   0.816  0.3631  0.6364 -0.0020
26707SOL    HW184968   8.911   6.395   0.740 -1.8347  0.7151 -1.6392
26707SOL    HW284969   8.850   6.341   0.867  1.7532  0.5438  0.1405
26708SOL     OW84970   9.043   4.778   0.935  0.0078 -0.0920  0.2698
26708SOL    HW184971   9.123   4.828   0.924 -0.1826  0.2235  0.3176
26708SOL    HW284972   9.032   4.769   1.030  0.8899 -1.5978  0.2735
26709SOL     OW84973   7.106   5.967   0.059  0.4039  0.0214 -0.5925
26709SOL    HW184974   7.114   5.876   0.086 -0.5198 -0.1239 -0.7500
26709SOL    HW284975   7.172   6.013   0.109 -0.0467 -0.5219  0.5514
26710SOL     OW84976   8.984   6.244   9.170  0.4479 -0.2809 -0.0763
26710SOL    HW184977   9.000   6.233   9.077 -0.9564 -0.5309 -0.3156
26710SOL    HW284978   8.897   6.207   9.184  1.0071 -1.1133  1.5084
26711SOL     OW84979   0.502   4.713   7.834 -0.1569 -0.2138 -0.0188
26711SOL    HW184980   0.409   4.708   7.813 -0.4755  1.8009  0.7434
26711SOL    HW284981   0.505   4.732   7.927  1.0781 -1.4428  0.2297
26712SOL     OW84982   9.376   5.695   0.274  0.7182  0.2883  0.1244
26712SOL    HW184983   9.420   5.662   0.351 -0.4448  0.7594  1.0325
26712SOL    HW284984   9.415   5.782   0.259  0.4475  0.5019  0.6307
26713SOL     OW84985   6.842   7.936   9.596 -0.1505  0.1947  0.3729
26713SOL    HW184986   6.843   8.025   9.630  0.7235 -0.0980  1.1622
26713SOL    HW284987   6.823   7.946   9.503 -0.3324  1.1822  0.5076
26714SOL     OW84988   8.594   8.234   8.254  0.5114  0.1786  0.4188
26714SOL    HW184989   8.599   8.140   8.234  0.9015  0.3634 -0.4102
26714SOL    HW284990   8.681   8.257   8.286  0.5659  0.3585  0.1449
26715SOL     OW84991   8.122   6.555   8.388  0.0872  0.1780 -0.6805
26715SOL    HW184992   8.107   6.543   8.481  0.4921 -0.7544 -0.7215
26715SOL    HW284993   8.204   6.510   8.371 -0.5344 -0.6256 -1.6794
26716SOL     OW84994   8.612   7.518   9.516  1.0248 -0.2599  0.0098
26716SOL    HW184995   8.592   7.608   9.490 -1.2359 -0.6477  0.2078
26716SOL    HW284996   8.594   7.516   9.610 -1.3747 -1.4788 -0.4239
26717SOL     OW84997   4.786   7.438   6.807  0.3287  0.1198  0.4457
26717SOL    HW184998   4.708   7.486   6.837  0.6020  0.1257  1.1650
26717SOL    HW284999   4.839   7.504   6.762 -0.8105 -0.2126 -1.5081
26718SOL     OW85000   0.689   7.738   9.545 -0.2745  0.7638 -0.0249
26718SOL    HW185001   0.623   7.706   9.484 -2.5666  1.0158  2.1434
26718SOL    HW285002   0.693   7.671   9.614  1.7354  0.7946 -0.0565
26719SOL     OW85003   4.669   7.046   1.666 -0.1787 -0.5795  0.2733
26719SOL    HW185004   4.638   7.131   1.696 -1.1309 -0.5032 -0.8304
26719SOL    HW285005   4.764   7.055   1.662 -0.0514 -0.3907  2.5187
26720SOL     OW85006   8.858   8.687   2.176 -0.2428 -0.0816  0.0801
26720SOL    HW185007   8.777   8.654   2.215  0.0525  0.1505  0.9179
26720SOL    HW285008   8.834   8.770   2.136 -0.7221 -0.6950 -0.9608
26721SOL     OW85009   6.177   5.585   0.708 -0.6316 -1.0932  0.3890
26721SOL    HW185010   6.216   5.543   0.633  3.0284 -0.3310  1.6676
26721SOL    HW285011   6.187   5.522   0.780 -0.9112 -0.5064  0.9599
26722SOL     OW85012   7.365   6.738   1.053  0.0343 -0.5897  0.2583
26722SOL    HW185013   7.352   6.816   0.999  2.4304 -0.8932 -0.9248
26722SOL    HW285014   7.434   6.763   1.114  0.7248 -1.6752 -0.0303
26723SOL     OW85015   0.582   8.100   0.981 -0.1106  0.3127  0.1965
26723SOL    HW185016   0.606   8.087   0.889 -0.8320 -0.3896  0.0895
26723SOL    HW285017   0.537   8.019   1.005 -0.4715  0.7358  0.9916
26724SOL     OW85018   7.760   5.635   0.197  0.2727 -0.5548  0.0692
26724SOL    HW185019   7.757   5.583   0.116  0.6660 -3.2605  1.6771
26724SOL    HW285020   7.853   5.648   0.214  0.2824 -1.7224  1.0584
26725SOL     OW85021   7.639   4.789   7.727  0.0691  0.5870 -0.0211
26725SOL    HW185022   7.557   4.830   7.754  0.5638  0.0039  2.6056
26725SOL    HW285023   7.700   4.862   7.715 -0.0231  0.8713  1.1075
26726SOL     OW85024   7.618   6.374   9.849 -0.0910  0.0246  0.3495
26726SOL    HW185025   7.636   6.358   9.941  0.4870 -0.9830  0.0807
26726SOL    HW285026   7.691   6.333   9.803  1.0333  2.7609 -0.4867
26727SOL     OW85027   8.266   3.748   0.112  0.0874  0.1959  0.0205
26727SOL    HW185028   8.193   3.696   0.146  0.7192 -1.0443 -0.4804
26727SOL    HW285029   8.317   3.687   0.059  1.4161  1.0768  0.2340
26728SOL     OW85030   9.591   4.121   0.355 -0.1751 -0.0993 -0.3349
26728SOL    HW185031   9.570   4.110   0.447  2.8290  0.6043  0.5558
26728SOL    HW285032   9.582   4.033   0.317  2.3427 -1.3253  1.6031
26729SOL     OW85033   6.931   7.023   8.913 -0.1338 -0.4956 -0.4583
26729SOL    HW185034   7.020   7.002   8.884 -0.4934 -0.5630 -1.5794
26729SOL    HW285035   6.907   7.101   8.863 -0.1618  0.4415  0.9640
26730SOL     OW85036   6.587   4.943   6.010  0.2496 -0.5046  0.1767
26730SOL    HW185037   6.570   4.919   6.101 -0.5353 -1.6542 -0.2611
26730SOL    HW285038   6.587   4.860   5.963  0.0632  0.1319 -0.9674
26731SOL     OW85039   8.521   4.339   0.514  0.1272  0.3655  0.1650
26731SOL    HW185040   8.439   4.388   0.518 -0.8730 -1.2128 -0.2812
26731SOL    HW285041   8.520   4.296   0.428  1.4411  0.3414  0.1356
26732SOL     OW85042   0.008   5.031   8.269  0.1520 -0.3694  0.1033
26732SOL    HW185043  -0.058   5.033   8.200 -1.3536  1.6843  1.4826
26732SOL    HW285044  -0.022   4.961   8.328 -0.7217  0.4036  0.6067
26733SOL     OW85045   8.820   6.822   9.514 -0.2449 -0.2108 -0.4420
26733SOL    HW185046   8.856   6.739   9.481  1.2119 -0.7393  2.1479
26733SOL    HW285047   8.879   6.845   9.586 -1.6372  2.2121 -0.0045
26734SOL     OW85048   8.712   5.750   6.522  0.2875 -0.2125 -0.1638
26734SOL    HW185049   8.779   5.688   6.549  0.5890 -0.1376 -0.7409
26734SOL    HW285050   8.760   5.829   6.499 -0.2297  1.1648  2.9740
26735SOL     OW85051   6.985   4.539   9.292  0.3674  0.5922  0.0687
26735SOL    HW185052   6.908   4.482   9.291  1.8576 -1.5716 -2.4298
26735SOL    HW285053   7.054   4.486   9.332  0.9101  2.1485  1.3444
26736SOL     OW85054   7.489   3.426   7.573  0.3170  0.1243 -0.2152
26736SOL    HW185055   7.577   3.393   7.553 -0.1168  0.1138 -2.3659
26736SOL    HW285056   7.431   3.358   7.541 -0.5200  0.0377  1.3802
26737SOL     OW85057   7.745   5.236   9.040  0.5121 -0.2050 -0.2742
26737SOL    HW185058   7.667   5.291   9.031  1.4309  1.8079  2.5869
26737SOL    HW285059   7.712   5.154   9.077 -0.4212 -0.0930 -0.8165
26738SOL     OW85060   8.516   5.121   1.173  0.0605 -0.5587  0.2768
26738SOL    HW185061   8.524   5.168   1.255 -0.9389  0.9145 -0.4367
26738SOL    HW285062   8.572   5.044   1.184  0.8839  0.2276  1.8741
26739SOL     OW85063   8.950   5.765   1.145 -0.5956 -0.5442  0.2828
26739SOL    HW185064   8.994   5.707   1.207 -1.9266 -1.3202  0.5336
26739SOL    HW285065   8.941   5.848   1.193  2.5835  0.4435 -0.5656
26740SOL     OW85066   7.642   8.320   9.560  0.2769  0.1123 -0.8969
26740SOL    HW185067   7.646   8.379   9.635  2.7281 -0.2270 -0.6609
26740SOL    HW285068   7.732   8.315   9.529 -0.2345 -1.7724 -2.2717
26741SOL     OW85069   9.738   5.881   8.663  0.5987 -0.2780 -0.0329
26741SOL    HW185070   9.753   5.944   8.734  2.0941 -0.5585 -0.0591
26741SOL    HW285071   9.657   5.911   8.622 -0.0543  0.1619  1.4878
26742SOL     OW85072   1.539   6.746   9.548  0.4794 -0.0464 -0.0252
26742SOL    HW185073   1.592   6.825   9.538 -1.6142  1.1500 -3.1311
26742SOL    HW285074   1.572   6.685   9.482 -1.0331  0.2026 -1.0612
26743SOL     OW85075   9.498   4.933   1.141  0.1187 -0.9180 -0.2144
26743SOL    HW185076   9.515   4.881   1.219 -1.0191 -1.5088 -0.3396
26743SOL    HW285077   9.579   4.982   1.127  0.7864 -1.7443  0.6030
26744SOL     OW85078   7.278   2.537   7.336 -0.1644 -0.3336 -0.4876
26744SOL    HW185079   7.253   2.447   7.315  0.5221 -0.6245 -0.0838
26744SOL    HW285080   7.288   2.537   7.431 -0.5133  0.2679 -0.4471
26745SOL     OW85081   1.712   6.907   8.873 -0.0683  0.3080  0.4166
26745SOL    HW185082   1.789   6.901   8.816  1.4001  0.6978  2.2679
26745SOL    HW285083   1.651   6.963   8.825  0.8334  0.1177 -1.0238
26746SOL     OW85084   7.249   5.487   6.931 -0.0669  0.2320 -0.3218
26746SOL    HW185085   7.276   5.455   7.017 -0.9641 -0.8842 -0.4264
26746SOL    HW285086   7.257   5.411   6.873  1.7968  1.2906 -1.5593
26747SOL     OW85087   8.743   6.939   6.563 -0.1210  0.3930 -0.0654
26747SOL    HW185088   8.704   6.994   6.496 -1.4628  1.0408  1.1982
26747SOL    HW285089   8.779   7.000   6.627  1.8425 -0.2028 -0.5110
26748SOL     OW85090   7.394   5.265   7.611 -0.1269 -0.0902 -0.9404
26748SOL    HW185091   7.484   5.239   7.591 -0.4428 -0.7021 -1.5904
26748SOL    HW285092   7.363   5.308   7.532 -0.1012  1.0064 -0.3818
26749SOL     OW85093   7.201   4.736   9.582  0.0475  0.2231  0.4391
26749SOL    HW185094   7.266   4.708   9.647 -1.8787 -1.2946  1.8411
26749SOL    HW285095   7.122   4.751   9.633 -0.9471  1.2171 -1.3102
26750SOL     OW85096   6.619   2.135   7.304  0.3045  0.3598  0.3564
26750SOL    HW185097   6.609   2.226   7.330 -1.1785  0.1431  0.6208
26750SOL    HW285098   6.641   2.089   7.385 -1.5319  0.1177  0.7681
26751SOL     OW85099   7.942   6.415   8.996 -0.5264 -0.1169 -0.1955
26751SOL    HW185100   7.948   6.494   9.049  0.5416 -0.5800  0.4101
26751SOL    HW285101   7.993   6.436   8.917  1.2831 -0.7544  0.7316
26752SOL     OW85102   7.841   5.006   1.685 -0.0387 -0.0186 -0.4106
26752SOL    HW185103   7.822   4.914   1.664  0.1035 -0.1359 -0.0379
26752SOL    HW285104   7.936   5.009   1.693 -0.0042  0.2634 -0.8697
26753SOL     OW85105   6.941   6.562   8.084  0.0090  0.0000  0.1735
26753SOL    HW185106   6.878   6.556   8.155  0.2509  0.2322  0.4069
26753SOL    HW285107   6.914   6.639   8.034 -2.9854 -2.6116 -2.7208
26754SOL     OW85108   8.324   8.625   0.651 -0.0354  0.2806  0.1615
26754SOL    HW185109   8.280   8.552   0.695 -1.3345  0.4187 -0.8537
26754SOL    HW285110   8.417   8.607   0.663 -0.3299 -1.4388  0.1190
26755SOL     OW85111   8.447   4.443   7.414  0.2333 -0.0063 -0.5266
26755SOL    HW185112   8.485   4.449   7.502 -0.4415 -3.0570  0.1031
26755SOL    HW285113   8.512   4.395   7.363 -1.0387 -1.8749 -0.4883
26756SOL     OW85114   7.994   5.343   0.206 -0.6265  0.4990  0.1119
26756SOL    HW185115   8.057   5.313   0.271 -2.2477  0.5615  1.8050
26756SOL    HW285116   7.980   5.435   0.228  0.5692  1.2247 -1.8883
26757SOL     OW85117   7.219   7.691   9.427  0.4477 -0.1642 -0.0597
26757SOL    HW185118   7.310   7.696   9.397  0.5315  1.4033  0.3905
26757SOL    HW285119   7.180   7.774   9.402 -0.8084 -0.7058 -0.0061
26758SOL     OW85120   6.513   5.663   8.512 -0.5189  0.0424  0.0318
26758SOL    HW185121   6.481   5.747   8.543 -0.0535  0.5588 -0.8293
26758SOL    HW285122   6.552   5.622   8.589  0.9042  1.4272  0.1075
26759SOL     OW85123   8.662   4.495   8.903 -0.4234  0.5933 -0.0606
26759SOL    HW185124   8.584   4.478   8.849 -0.5981  3.0143 -0.6784
26759SOL    HW285125   8.715   4.554   8.850  0.8517  0.6468  1.2364
26760SOL     OW85126   8.938   7.795   0.366 -0.3206 -0.1164  0.1957
26760SOL    HW185127   8.895   7.715   0.336 -1.4195  0.3382  0.4889
26760SOL    HW285128   8.887   7.866   0.326 -0.7962  0.4683  1.7880
26761SOL     OW85129   9.703   4.494   8.573 -0.1646  0.2526  0.0789
26761SOL    HW185130   9.645   4.529   8.506 -0.1965  1.1691  0.5659
26761SOL    HW285131   9.644   4.449   8.634 -0.3381  0.8958  0.3953
26762SOL     OW85132   6.360   5.052   2.062  0.6351  0.6465  0.5040
26762SOL    HW185133   6.437   5.022   2.014  1.1834 -0.4900  1.9940
26762SOL    HW285134   6.353   5.145   2.041  0.4109  0.0757 -2.2743
26763SOL     OW85135   9.678   7.570   5.648 -0.2497 -0.3906 -0.1518
26763SOL    HW185136   9.688   7.476   5.660 -0.4570 -0.4575 -0.5195
26763SOL    HW285137   9.584   7.584   5.636 -0.1787 -0.1836 -0.4902
26764SOL     OW85138   9.027   7.667   7.381  0.2657 -0.4862 -0.1249
26764SOL    HW185139   9.088   7.671   7.455 -0.3048 -0.0370  0.3322
26764SOL    HW285140   9.039   7.749   7.334  0.3820 -0.6225 -0.3365
26765SOL     OW85141   7.342   5.045   1.308 -0.4751  0.0000 -0.0956
26765SOL    HW185142   7.325   5.131   1.271  0.9981  1.0829  1.5666
26765SOL    HW285143   7.434   5.028   1.287  0.2687  0.4331  2.4707
26766SOL     OW85144   9.315   6.690   8.766 -0.4835 -0.4276 -0.4384
26766SOL    HW185145   9.331   6.781   8.791  1.3073 -0.6929 -0.4797
26766SOL    HW285146   9.306   6.692   8.671  0.8788 -0.4290 -0.5888
26767SOL     OW85147   6.332   6.548   9.330  0.1124 -1.0936 -0.2877
26767SOL    HW185148   6.241   6.550   9.362 -0.7435 -2.1374 -2.4309
26767SOL    HW285149   6.333   6.610   9.258  1.6201  0.2164  0.8064
26768SOL     OW85150   9.032   7.335   8.774 -0.0482 -0.0966 -0.1327
26768SOL    HW185151   9.006   7.347   8.682 -0.0274  2.6133  0.1360
26768SOL    HW285152   8.956   7.293   8.815  0.2072 -1.9831 -1.4829
26769SOL     OW85153   8.731   6.889   0.694 -0.0420  0.5508  0.4861
26769SOL    HW185154   8.725   6.817   0.631  0.2660  0.3796  0.6516
26769SOL    HW285155   8.824   6.904   0.705 -0.0890  0.5251  0.9638
26770SOL     OW85156   8.301   8.603   2.171 -0.2554 -0.1235 -0.2495
26770SOL    HW185157   8.266   8.523   2.131  3.2059 -0.4534 -3.1029
26770SOL    HW285158   8.254   8.674   2.126  1.1010 -0.5715 -2.5340
26771SOL     OW85159   4.641   9.394   4.159 -0.5099 -0.4753 -0.9041
26771SOL    HW185160   4.620   9.487   4.165  0.3234 -0.3304 -0.2000
26771SOL    HW285161   4.708   9.379   4.225  0.6954 -1.1977 -2.2149
26772SOL     OW85162   8.036   8.252   9.717  0.2051 -0.7301  0.3861
26772SOL    HW185163   7.989   8.277   9.638 -2.3142  0.3970  2.0885
26772SOL    HW285164   7.999   8.166   9.740  0.4961 -0.7912  0.6314
26773SOL     OW85165   8.698   7.845   9.813  0.3270  0.0959  0.0574
26773SOL    HW185166   8.761   7.847   9.741 -0.4725 -1.7143 -0.7576
26773SOL    HW285167   8.688   7.751   9.833  0.4962  0.5318  2.5212
26774SOL     OW85168   6.545   1.389   0.541  0.2424 -0.6258  0.2356
26774SOL    HW185169   6.461   1.422   0.571  1.6611  1.6071  2.1056
26774SOL    HW285170   6.573   1.328   0.610  1.3519  0.8332  1.1498
26775SOL     OW85171   8.924   8.665   1.674  0.0002 -0.8606 -0.5263
26775SOL    HW185172   8.828   8.665   1.671  0.0284 -0.6113 -1.6462
26775SOL    HW285173   8.944   8.672   1.768 -1.0793  1.1657 -0.3734
26776SOL     OW85174   8.631   7.598   2.241  0.3935 -0.1331  0.2982
26776SOL    HW185175   8.659   7.566   2.155 -1.3895 -1.6412  0.1977
26776SOL    HW285176   8.699   7.569   2.301  2.1082  1.6915 -0.6534
26777SOL     OW85177   0.015   8.323   0.685 -0.2830  0.4199  0.0526
26777SOL    HW185178   0.058   8.400   0.647  1.7371 -0.6596 -0.0022
26777SOL    HW285179   0.010   8.343   0.778  1.9449 -0.0506  0.3408
26778SOL     OW85180   8.722   8.973   1.638  0.2201  0.4072  0.0640
26778SOL    HW185181   8.664   9.028   1.585  0.3689  0.1987 -0.3193
26778SOL    HW285182   8.706   8.884   1.607 -1.0895  0.0338  1.6624
26779SOL     OW85183   7.905   9.850   0.340 -0.2227  0.4096  0.1012
26779SOL    HW185184   7.966   9.839   0.412  0.8551  0.5479 -0.7560
26779SOL    HW285185   7.834   9.787   0.357  0.7671 -0.6276  0.4962
26780SOL     OW85186   7.208   9.401   0.583 -0.4380 -0.7713  0.0089
26780SOL    HW185187   7.249   9.335   0.639 -0.5340 -0.3445  0.5955
26780SOL    HW285188   7.205   9.361   0.497 -0.3217 -1.4577  0.3179
26781SOL     OW85189   8.863   0.024   0.701  0.7329 -0.5044 -0.1667
26781SOL    HW185190   8.883   0.112   0.734  0.8993 -0.6484  0.1152
26781SOL    HW285191   8.824  -0.021   0.775  1.2485 -0.8752 -0.1154
26782SOL     OW85192   6.873   0.997   0.431  0.0402 -0.0421  0.1701
26782SOL    HW185193   6.953   1.035   0.395 -0.5735  1.8090  0.6429
26782SOL    HW285194   6.808   1.066   0.422 -1.0612 -0.8744  1.3871
26783SOL     OW85195   7.161   8.468   2.100 -0.5344 -0.7556 -0.3764
26783SOL    HW185196   7.219   8.406   2.055 -0.0103 -1.9100  1.7601
26783SOL    HW285197   7.216   8.544   2.117 -0.3067 -0.9158 -0.3855
26784SOL     OW85198   5.897   9.108   2.309  0.5004 -0.1045 -0.3271
26784SOL    HW185199   5.841   9.180   2.278  0.8935  1.2796  1.9078
26784SOL    HW285200   5.864   9.088   2.396  1.1638 -1.8828 -0.4424
26785SOL     OW85201   7.115   9.743   1.730 -0.3247 -0.2426  0.5263
26785SOL    HW185202   7.191   9.754   1.787 -0.1508 -0.8066  0.4051
26785SOL    HW285203   7.040   9.768   1.785  0.0731  2.1598  0.0851
26786SOL     OW85204   0.942   9.338   0.372  0.2809  0.0953  0.1588
26786SOL    HW185205   0.850   9.365   0.374  0.6892  1.5726  0.4689
26786SOL    HW285206   0.976   9.363   0.458  1.2737  0.7860 -0.4155
26787SOL     OW85207   7.160   8.297   0.207 -0.4387 -0.1275  0.1299
26787SOL    HW185208   7.185   8.333   0.292  0.5188 -0.6745  0.1058
26787SOL    HW285209   7.122   8.371   0.160 -0.1922  0.3948  0.7275
26788SOL     OW85210   8.736   8.466   2.324 -0.0850 -0.2294  0.3400
26788SOL    HW185211   8.797   8.429   2.388  0.8955 -0.2611 -0.5757
26788SOL    HW285212   8.791   8.483   2.247 -0.4810  3.1430  0.6895
26789SOL     OW85213   5.212   7.083   2.868 -0.8792  0.6373  0.2844
26789SOL    HW185214   5.197   7.004   2.919 -0.6961  0.0381 -0.5588
26789SOL    HW285215   5.124   7.113   2.845 -0.9457  0.6021  0.4941
26790SOL     OW85216   0.814   0.098   0.278 -0.7565  0.3817  0.0861
26790SOL    HW185217   0.880   0.029   0.271 -0.0519  1.0746 -0.3224
26790SOL    HW285218   0.790   0.099   0.370  0.7731  0.9896  0.5066
26791SOL     OW85219   6.808   0.010   9.426  0.3107  0.5445  0.4235
26791SOL    HW185220   6.778   0.100   9.419 -0.8122  0.2444  1.1412
26791SOL    HW285221   6.856   0.007   9.509 -2.1576 -0.1526  1.9254
26792SOL     OW85222   9.111   7.858   0.550 -0.2789 -0.1841 -0.2385
26792SOL    HW185223   9.124   7.785   0.610  0.9742 -0.9417 -1.3669
26792SOL    HW285224   9.044   7.827   0.489  1.1493 -0.9692 -1.4929
26793SOL     OW85225   2.283   6.120   0.869  0.6624  0.0540 -0.8748
26793SOL    HW185226   2.284   6.050   0.803 -0.8000  0.4103 -1.3260
26793SOL    HW285227   2.190   6.145   0.875  0.9853  1.0707  0.2236
26794SOL     OW85228   5.772   7.575   3.949 -0.6524 -0.3708  0.3522
26794SOL    HW185229   5.679   7.570   3.971 -0.5881  0.8315  0.9976
26794SOL    HW285230   5.816   7.589   4.033 -0.1423  1.5602 -0.1879
26795SOL     OW85231   8.838   8.210   7.685 -0.3377  0.3028 -0.0443
26795SOL    HW185232   8.797   8.222   7.600  0.9747 -0.6112 -0.8566
26795SOL    HW285233   8.915   8.266   7.683 -1.1193  1.4778  1.1855
26796SOL     OW85234   1.103   9.476   9.261  0.3942 -0.0306 -0.3673
26796SOL    HW185235   1.161   9.401   9.250  0.8132  0.0361  1.1871
26796SOL    HW285236   1.126   9.512   9.347  0.9012  2.4835 -1.4614
26797SOL     OW85237   9.829   8.171   1.530  0.2092  0.3847 -0.3050
26797SOL    HW185238   9.770   8.216   1.470 -1.5057  0.0299  1.0269
26797SOL    HW285239   9.848   8.087   1.487 -0.0364  0.6140 -0.8658
26798SOL     OW85240   8.048   0.067   7.958  0.2674 -0.0720  0.1462
26798SOL    HW185241   8.043   0.087   7.865 -1.8513 -1.6222 -0.1446
26798SOL    HW285242   8.127   0.014   7.967 -1.5085 -3.2694 -1.5624
26799SOL     OW85243   9.332   9.473   0.231 -0.0199 -0.2404 -0.6574
26799SOL    HW185244   9.324   9.379   0.247  0.8148 -0.3483 -0.8383
26799SOL    HW285245   9.426   9.490   0.231 -0.0702  0.2677 -2.4247
26800SOL     OW85246   8.834   0.136   1.186 -0.6110 -0.0363 -0.4221
26800SOL    HW185247   8.915   0.096   1.154 -0.6913  0.9751 -2.0473
26800SOL    HW285248   8.773   0.129   1.112 -2.2698 -1.4092  1.0120
26801SOL     OW85249   0.728   8.819   9.382 -0.1483 -0.8003  0.3471
26801SOL    HW185250   0.735   8.914   9.389 -0.9216 -0.8185  1.7923
26801SOL    HW285251   0.814   8.785   9.408  0.3341 -0.4974 -0.7996
26802SOL     OW85252   1.120   9.232   0.196  0.0597 -0.1456  0.6305
26802SOL    HW185253   1.078   9.204   0.114  1.0319  0.3895 -0.0725
26802SOL    HW285254   1.050   9.273   0.247 -0.4461 -0.0072 -0.1669
26803SOL     OW85255   7.857   6.287   9.756 -0.3509 -0.2296  1.0919
26803SOL    HW185256   7.937   6.336   9.736 -0.0978 -1.6256 -1.9071
26803SOL    HW285257   7.883   6.195   9.749 -2.2476 -0.7267 -0.3384
26804SOL     OW85258   9.280   8.405   8.500 -0.2639 -0.3037  0.4680
26804SOL    HW185259   9.340   8.339   8.536  1.0807  0.5494 -0.1476
26804SOL    HW285260   9.329   8.446   8.429 -2.2531 -0.8245 -1.3102
26805SOL     OW85261   9.110   5.634   0.332  0.7183 -0.3899 -0.0247
26805SOL    HW185262   9.110   5.580   0.411  0.6143 -1.2435 -0.5977
26805SOL    HW285263   9.202   5.661   0.323  0.6606  0.0428  0.5985
26806SOL     OW85264   8.365   7.846   0.405  0.2251 -0.1980  0.0837
26806SOL    HW185265   8.395   7.775   0.348  2.0252  1.0191 -0.5576
26806SOL    HW285266   8.355   7.921   0.347 -0.6647  0.3511  0.9224
26807SOL     OW85267   8.352   6.324   1.079 -0.2155  0.0437 -0.4694
26807SOL    HW185268   8.292   6.399   1.084 -2.0968 -1.3191 -1.2012
26807SOL    HW285269   8.308   6.255   1.128  0.5017 -1.1604 -1.4571
26808SOL     OW85270   8.173   9.308   1.103  0.6461  0.2809  0.1717
26808SOL    HW185271   8.207   9.329   1.016  0.4145 -1.3702 -0.3641
26808SOL    HW285272   8.082   9.282   1.087  0.1887  1.2678  1.1049
26809SOL     OW85273   8.739   7.769   0.664  0.3829 -0.1966  0.5683
26809SOL    HW185274   8.799   7.700   0.637  2.5157  1.8789 -0.2733
26809SOL    HW285275   8.666   7.762   0.603  0.5306 -1.6775  0.5126
26810SOL     OW85276   7.340   0.609   0.890  0.3809 -0.2727 -0.4064
26810SOL    HW185277   7.397   0.566   0.954 -0.0731  0.6739  0.6780
26810SOL    HW285278   7.324   0.696   0.928  0.9229  0.7126 -2.3005
26811SOL     OW85279   7.376   6.612   8.313  0.1810 -0.0386  0.2869
26811SOL    HW185280   7.413   6.562   8.385 -0.4649 -0.4544  0.3322
26811SOL    HW285281   7.380   6.553   8.238 -0.6307 -0.1890  0.3526
26812SOL     OW85282   7.906   9.026   7.912 -0.2206 -0.2127 -0.0656
26812SOL    HW185283   7.918   8.945   7.962 -1.2489 -1.0211 -1.0460
26812SOL    HW285284   7.936   9.003   7.824  0.9777  0.9862  0.0025
26813SOL     OW85285   7.559   8.374   4.012  0.0376 -0.1212 -0.2367
26813SOL    HW185286   7.575   8.429   3.935 -1.4998 -1.1413 -1.3433
26813SOL    HW285287   7.647   8.352   4.044  0.7308  0.0247 -1.9162
26814SOL     OW85288   6.950   9.120   2.088 -0.2773  0.3690  0.0121
26814SOL    HW185289   6.915   9.185   2.149  0.9934  1.9621 -0.8434
26814SOL    HW285290   6.914   9.145   2.003  1.1479  0.7274 -0.5219
26815SOL     OW85291   7.405   7.998   8.782 -0.1999  0.3314 -0.7061
26815SOL    HW185292   7.371   7.910   8.770  1.7679 -0.8347  1.4457
26815SOL    HW285293   7.479   8.004   8.721  1.6485 -0.7615  1.3208
26816SOL     OW85294   6.125   7.749   0.337  0.0516  0.0981  0.2819
26816SOL    HW185295   6.154   7.798   0.260 -1.3589 -0.5357 -0.6976
26816SOL    HW285296   6.205   7.726   0.383  0.8247  2.2687  0.1340
26817SOL     OW85297   6.631   7.479   1.978 -0.1649  0.1674  0.1435
26817SOL    HW185298   6.670   7.416   1.917  1.8159 -0.7423  2.1931
26817SOL    HW285299   6.566   7.428   2.027 -1.0842  0.6529 -0.5504
26818SOL     OW85300   2.400   9.428   0.940 -0.3061 -0.1621 -0.6658
26818SOL    HW185301   2.495   9.424   0.942 -0.0832  2.7791 -1.0066
26818SOL    HW285302   2.378   9.441   0.847 -0.9317  0.3793 -0.4543
26819SOL     OW85303   0.033   6.859   1.503 -1.0738  0.6252 -0.5348
26819SOL    HW185304   0.075   6.923   1.447 -1.5878 -0.1406 -1.8457
26819SOL    HW285305   0.031   6.778   1.451 -0.1507 -0.5667  1.1831
26820SOL     OW85306   7.234   9.351   9.809  0.6775 -0.1411  0.3223
26820SOL    HW185307   7.175   9.377   9.879  0.9119  0.4180  0.3153
26820SOL    HW285308   7.321   9.379   9.838  0.8311 -0.2513 -0.0169
26821SOL     OW85309   8.167   9.511   1.277 -0.0691 -0.1383  0.1413
26821SOL    HW185310   8.255   9.530   1.308  0.1470 -0.7196 -0.0903
26821SOL    HW285311   8.178   9.437   1.216 -0.6668  0.0033 -0.1558
26822SOL     OW85312   0.201   7.823   0.199  0.4138  0.2946 -0.0483
26822SOL    HW185313   0.233   7.907   0.165 -0.0578 -1.1820 -4.8218
26822SOL    HW285314   0.279   7.769   0.207  0.4092  0.3455  0.3797
26823SOL     OW85315   8.873   6.616   1.448  0.2203 -0.1319  0.2060
26823SOL    HW185316   8.841   6.530   1.476  0.1436  0.1549  1.0170
26823SOL    HW285317   8.949   6.633   1.504  0.5418  0.1068 -0.2990
26824SOL     OW85318   6.971   7.285   0.404  0.0268 -0.3233  0.4446
26824SOL    HW185319   7.062   7.291   0.434 -0.4767 -0.8844  2.2256
26824SOL    HW285320   6.933   7.216   0.457 -1.4783 -0.0260 -0.2006
26825SOL     OW85321   7.904   7.513   6.927 -0.0430 -0.5087 -0.7561
26825SOL    HW185322   7.948   7.554   7.002 -1.1145  1.0100 -0.9183
26825SOL    HW285323   7.968   7.450   6.894  0.4005 -1.3471  1.5153
26826SOL     OW85324   7.352   0.324   1.356 -0.1448 -0.0609  0.1095
26826SOL    HW185325   7.344   0.367   1.441  0.5019 -1.8199  1.1133
26826SOL    HW285326   7.441   0.345   1.327 -0.5036  0.8860 -0.3796
26827SOL     OW85327   7.387   8.845   0.326 -0.5061 -0.1788  0.2420
26827SOL    HW185328   7.297   8.818   0.342 -1.5458  2.5144 -0.5144
26827SOL    HW285329   7.399   8.922   0.381  1.2595 -0.3392  0.1271
26828SOL     OW85330   9.668   7.159   1.260 -0.4354  0.4700 -0.0440
26828SOL    HW185331   9.729   7.182   1.190 -1.2879  2.5388 -0.1768
26828SOL    HW285332   9.677   7.064   1.269  2.3429  0.6161 -0.4232
26829SOL     OW85333   6.794   8.146   1.333 -0.0634  0.4152 -0.1616
26829SOL    HW185334   6.867   8.201   1.362 -1.1178  0.7776  1.9626
26829SOL    HW285335   6.804   8.065   1.383 -0.9082  0.3383 -0.1056
26830SOL     OW85336   0.282   8.311   2.198 -0.7070 -0.0978 -0.1345
26830SOL    HW185337   0.212   8.349   2.145 -1.0340 -0.8469 -0.2473
26830SOL    HW285338   0.308   8.382   2.258 -1.4916  0.2164 -0.1554
26831SOL     OW85339   9.379   7.619   2.130  0.1253 -0.0467 -0.1887
26831SOL    HW185340   9.452   7.600   2.189 -0.3657  0.3404  0.5626
26831SOL    HW285341   9.408   7.696   2.081  1.3829 -1.5587 -1.9638
26832SOL     OW85342   7.458   9.814   1.516 -0.4103  0.2953 -0.1756
26832SOL    HW185343   7.484   9.750   1.450  1.5181  0.9559 -0.1153
26832SOL    HW285344   7.481   9.774   1.600 -2.2245 -0.2581  0.1028
26833SOL     OW85345   8.803   9.219   2.181 -0.2807  0.3547  0.0961
26833SOL    HW185346   8.791   9.129   2.153  0.4590  0.8614 -2.0582
26833SOL    HW285347   8.880   9.249   2.132 -0.8017  2.2875  0.3757
26834SOL     OW85348   8.088   7.202   2.865 -0.7048 -0.4291  0.4994
26834SOL    HW185349   8.090   7.275   2.804  1.4152 -0.4694  0.4310
26834SOL    HW285350   8.171   7.155   2.849  0.8180  0.5099  4.4486
26835SOL     OW85351   2.065   8.378   0.902 -0.6044  0.6845 -0.0389
26835SOL    HW185352   2.122   8.415   0.969 -0.6710 -0.3112  0.5799
26835SOL    HW285353   1.976   8.396   0.932 -0.6373  0.9012 -0.2530
26836SOL     OW85354   0.328   7.131   0.536  0.1323 -0.7802  0.0857
26836SOL    HW185355   0.295   7.059   0.590  1.8414 -0.2266  1.9908
26836SOL    HW285356   0.283   7.209   0.569  0.3442 -0.5849 -0.0860
26837SOL     OW85357   8.123   9.759   2.238  0.5564  0.2074 -0.2587
26837SOL    HW185358   8.081   9.673   2.227  0.4117  0.3077 -0.5154
26837SOL    HW285359   8.083   9.814   2.170  1.6233  0.1167 -0.9918
26838SOL     OW85360   7.947   7.014   1.039  0.0142  0.1656 -0.4956
26838SOL    HW185361   7.932   6.943   0.977 -2.6063  0.5986 -0.4666
26838SOL    HW285362   8.008   7.073   0.994  2.6702 -2.2271 -0.3175
26839SOL     OW85363   9.161   8.089   1.780 -0.2952 -0.7519 -0.2473
26839SOL    HW185364   9.195   8.147   1.712 -1.4683 -2.1217 -2.0903
26839SOL    HW285365   9.091   8.138   1.822  1.8532  0.9696  1.6123
26840SOL     OW85366   7.200   9.338   0.306 -0.0322  0.0957 -0.5154
26840SOL    HW185367   7.288   9.375   0.296 -0.5117  1.5048  0.2213
26840SOL    HW285368   7.157   9.356   0.223  0.8684 -2.1066 -1.5241
26841SOL     OW85369   7.316   9.052   0.544  0.1684 -0.5556 -0.0155
26841SOL    HW185370   7.335   9.119   0.609  0.3189 -1.8873  1.3646
26841SOL    HW285371   7.221   9.038   0.550 -0.2402  1.0326 -1.8563
26842SOL     OW85372   9.544   7.395   8.911  0.3493 -0.0037  0.0013
26842SOL    HW185373   9.511   7.477   8.874 -3.4857 -0.5958  1.5973
26842SOL    HW285374   9.574   7.418   8.999  0.0975 -0.1749  0.1328
26843SOL     OW85375   8.318   7.613   0.656 -0.4149 -0.8147  0.3620
26843SOL    HW185376   8.260   7.668   0.709  0.1426 -0.5214  0.6699
26843SOL    HW285377   8.285   7.623   0.566 -0.4504 -0.1504  0.4447
26844SOL     OW85378   9.393   8.281   0.167 -0.3441  0.2356 -0.1107
26844SOL    HW185379   9.449   8.263   0.242 -2.3761  0.9994  1.6710
26844SOL    HW285380   9.415   8.371   0.141  1.3588 -0.4930 -1.4311
26845SOL     OW85381   7.241   5.776   3.273  0.5978 -0.5507 -0.1297
26845SOL    HW185382   7.287   5.751   3.193  1.4420  1.7272 -0.4279
26845SOL    HW285383   7.286   5.728   3.343  2.0990  0.0520 -0.6507
26846SOL     OW85384   5.761   1.563   2.232 -0.4280 -0.3669 -0.1818
26846SOL    HW185385   5.670   1.535   2.225 -1.0766  1.3835  0.4933
26846SOL    HW285386   5.802   1.498   2.288 -1.8726  0.0079  1.4009
26847SOL     OW85387   0.760   6.304   1.857  0.0748  0.1621  0.4409
26847SOL    HW185388   0.818   6.230   1.838 -0.4718 -0.5988  1.5642
26847SOL    HW285389   0.740   6.294   1.950 -0.9401  1.0691  0.3345
26848SOL     OW85390   9.135   6.432   1.273  0.1049 -0.1891  0.1301
26848SOL    HW185391   9.105   6.355   1.321  0.1378 -0.4731 -0.2983
26848SOL    HW285392   9.154   6.400   1.185 -1.4913  0.6210 -0.5516
26849SOL     OW85393   7.806   7.214   0.292 -0.1714  0.4204  0.3332
26849SOL    HW185394   7.743   7.208   0.363 -0.5959 -0.1302 -0.0756
26849SOL    HW285395   7.776   7.288   0.239 -1.0112 -0.3790 -0.3487
26850SOL     OW85396   1.248   9.381   0.866 -0.7292  0.0402  0.1020
26850SOL    HW185397   1.303   9.445   0.911  0.5186 -1.5064  0.8891
26850SOL    HW285398   1.169   9.375   0.919  0.6365 -1.6150  2.0804
26851SOL     OW85399   7.984   9.358   7.683  0.0210 -0.2296 -0.5366
26851SOL    HW185400   7.890   9.365   7.697 -0.2013 -0.0490 -1.9445
26851SOL    HW285401   8.019   9.443   7.709  0.1196 -0.9249  1.9148
26852SOL     OW85402   0.391   7.621   0.216  0.0371  0.1829 -0.0975
26852SOL    HW185403   0.409   7.587   0.128 -0.2427  0.8862 -0.4407
26852SOL    HW285404   0.391   7.544   0.272  1.3838 -0.1430 -0.5158
26853SOL     OW85405   0.393   7.980   8.921 -0.5581 -0.4383  0.4370
26853SOL    HW185406   0.434   7.992   9.007 -0.5169  0.5454  0.2815
26853SOL    HW285407   0.342   8.059   8.907  0.2965 -0.0987 -0.9292
26854SOL     OW85408   9.533   8.474   1.773  0.0058 -0.3293 -0.3089
26854SOL    HW185409   9.511   8.490   1.864  0.0605 -1.1873 -0.1376
26854SOL    HW285410   9.534   8.378   1.765  0.7691 -0.2706 -1.0189
26855SOL     OW85411   8.354   0.437   2.605  0.0776  0.1708 -0.5334
26855SOL    HW185412   8.288   0.374   2.637  0.8900  0.1117  1.1908
26855SOL    HW285413   8.315   0.476   2.527 -1.9553  0.0574  0.3558
26856SOL     OW85414   0.581   8.718   2.215 -0.1029 -0.3109  0.1231
26856SOL    HW185415   0.495   8.759   2.204  0.5076  0.6622 -1.3927
26856SOL    HW285416   0.612   8.703   2.125  0.3940 -2.6884  0.6267
26857SOL     OW85417   0.070   8.082   8.069 -0.7029 -0.0350 -0.8230
26857SOL    HW185418   0.000   8.112   8.010 -0.5413  1.0264 -0.4897
26857SOL    HW285419   0.135   8.151   8.066  0.4937 -1.1443 -1.3456
26858SOL     OW85420   9.146   9.847   1.662  0.2968 -0.3473 -1.0009
26858SOL    HW185421   9.205   9.871   1.591  1.4723 -1.3134 -0.3857
26858SOL    HW285422   9.122   9.930   1.703  2.9681 -0.0117  0.0860
26859SOL     OW85423   9.692   8.339   1.111 -0.6192  0.0711 -0.2303
26859SOL    HW185424   9.751   8.388   1.053 -0.9151  0.2320 -0.3974
26859SOL    HW285425   9.659   8.268   1.058 -1.0156  0.3122 -0.3096
26860SOL     OW85426   7.927   7.449   2.351  0.1088  0.2559  0.4448
26860SOL    HW185427   8.011   7.490   2.371  0.5647 -0.0553 -0.7257
26860SOL    HW285428   7.891   7.500   2.278 -0.1260 -0.3568  0.1172
26861SOL     OW85429   0.155   7.242   1.458  0.8873 -0.3056  0.2491
26861SOL    HW185430   0.061   7.252   1.477  0.5334  0.0152 -1.5472
26861SOL    HW285431   0.192   7.328   1.474  1.1276 -0.7035  2.0768
26862SOL     OW85432   7.190   9.640   8.869 -0.2500 -0.5466  0.0527
26862SOL    HW185433   7.142   9.717   8.900  0.4781  0.9228 -2.1811
26862SOL    HW285434   7.266   9.676   8.824  0.8652 -2.6643  0.1034
26863SOL     OW85435   5.784   6.217   2.271  0.6073 -0.4956  0.7236
26863SOL    HW185436   5.752   6.255   2.353 -0.7808  0.4042 -0.1962
26863SOL    HW285437   5.876   6.241   2.268  0.3808  0.5467  1.4247
26864SOL     OW85438   9.803   7.406   1.406 -0.5630 -0.2838  0.1638
26864SOL    HW185439   9.873   7.395   1.342 -0.0072  0.6856  0.5798
26864SOL    HW285440   9.735   7.345   1.378 -0.2836  0.0423 -1.2858
26865SOL     OW85441   8.030   8.369   2.193  0.8784 -0.0109 -0.6989
26865SOL    HW185442   7.959   8.306   2.201  0.2661  0.3309 -2.8373
26865SOL    HW285443   7.985   8.454   2.195  1.7064  0.4783  2.3944
26866SOL     OW85444   7.126   7.889   9.668  0.1480 -0.2013  0.0003
26866SOL    HW185445   7.100   7.841   9.746  1.0431  1.7884  1.6191
26866SOL    HW285446   7.080   7.846   9.596  0.1154 -2.7599  1.4503
26867SOL     OW85447   8.109   8.051   1.277 -0.6044  0.0160  0.0213
26867SOL    HW185448   8.094   7.976   1.334 -0.4399  0.5006  0.7215
26867SOL    HW285449   8.043   8.115   1.303 -0.2509  0.4067 -0.0278
26868SOL     OW85450   9.180   8.765   1.195  0.0105 -0.0293 -0.1482
26868SOL    HW185451   9.097   8.781   1.151  0.3486 -2.5228 -1.8829
26868SOL    HW285452   9.159   8.768   1.288 -1.8699 -0.0036 -0.5399
26869SOL     OW85453   9.509   9.427   1.496 -0.0156 -0.4310  0.4149
26869SOL    HW185454   9.488   9.520   1.495 -1.5130 -0.7402  0.7669
26869SOL    HW285455   9.549   9.413   1.582 -0.2334 -0.2086  0.5527
26870SOL     OW85456   0.762   6.210   8.758  0.2452 -0.9099  0.2737
26870SOL    HW185457   0.840   6.256   8.727  0.1704 -1.4206 -0.6951
26870SOL    HW285458   0.730   6.264   8.830  1.2214 -0.4447  0.3761
26871SOL     OW85459   8.012   6.171   3.854 -0.0622 -0.6184 -0.1399
26871SOL    HW185460   8.036   6.082   3.827  0.9438  0.1368 -1.9105
26871SOL    HW285461   8.070   6.191   3.927  0.5135 -1.0037 -0.4871
26872SOL     OW85462   7.504   8.671   1.217 -0.4787 -0.0947  0.1344
26872SOL    HW185463   7.568   8.728   1.174  0.7681 -2.4157 -1.2326
26872SOL    HW285464   7.438   8.732   1.251  0.1837  2.1018 -2.1942
26873SOL     OW85465   9.211   6.929   0.974  0.1266  0.1368 -0.0836
26873SOL    HW185466   9.227   6.998   0.910  0.7884 -0.6297 -0.7749
26873SOL    HW285467   9.116   6.921   0.978  0.0774  0.0894 -1.1084
26874SOL     OW85468   5.912   3.670   1.685 -0.3370  0.0028 -0.1292
26874SOL    HW185469   5.837   3.694   1.631  1.0700  0.7986 -1.8119
26874SOL    HW285470   5.973   3.743   1.676  2.1574 -2.0992 -1.7210
26875SOL     OW85471   8.458   7.225   1.605 -0.3673 -0.5907  0.1569
26875SOL    HW185472   8.425   7.156   1.547  0.5998 -0.4746 -0.5668
26875SOL    HW285473   8.398   7.299   1.591 -0.3431 -0.6799 -0.4429
26876SOL     OW85474   7.954   7.450   8.967  0.6001  0.6470  0.6771
26876SOL    HW185475   7.934   7.406   9.050 -0.3811 -1.9026 -0.8042
26876SOL    HW285476   8.048   7.433   8.953  0.3806 -0.4564  0.4525
26877SOL     OW85477   9.267   7.299   0.995  0.1008  0.1336  0.2131
26877SOL    HW185478   9.257   7.391   0.972  0.8644  0.4690  1.1478
26877SOL    HW285479   9.257   7.252   0.912 -2.1344  0.8916 -0.0105
26878SOL     OW85480   7.981   7.982   2.414  0.0556 -1.0122  0.8820
26878SOL    HW185481   8.069   7.973   2.377 -0.4861  1.2748 -1.1846
26878SOL    HW285482   7.993   8.039   2.490  0.3837 -0.8249  0.6925
26879SOL     OW85483   7.568   8.735   2.020  0.0969 -0.0118  0.4275
26879SOL    HW185484   7.638   8.798   2.038  0.4831 -0.9563  2.5455
26879SOL    HW285485   7.523   8.771   1.944 -0.0808  3.1923  1.8658
26880SOL     OW85486   9.386   7.344   1.357 -0.3988  0.3453 -0.7569
26880SOL    HW185487   9.387   7.437   1.379 -1.2522  0.1069  0.4745
26880SOL    HW285488   9.297   7.315   1.381  0.1484 -0.9713 -0.2067
26881SOL     OW85489   5.956   9.710   1.413  0.1632  0.2584 -0.1525
26881SOL    HW185490   6.044   9.683   1.440  0.9037 -0.8231 -3.2186
26881SOL    HW285491   5.901   9.633   1.431  0.4722 -0.1437 -0.8931
26882SOL     OW85492   6.210   6.153   9.238  0.4349  0.0919  0.4458
26882SOL    HW185493   6.227   6.059   9.229  0.8740  0.1415  0.7666
26882SOL    HW285494   6.276   6.184   9.299  0.7649  0.7492 -0.2248
26883SOL     OW85495   8.152   8.652   1.878  1.0929 -0.1560 -0.4956
26883SOL    HW185496   8.185   8.569   1.912 -2.3917 -0.9412  1.4109
26883SOL    HW285497   8.112   8.629   1.794  2.5448  0.2082 -1.3210
26884SOL     OW85498   7.742   8.232   0.448 -0.0569 -0.3615 -0.2551
26884SOL    HW185499   7.710   8.240   0.359  0.4005 -1.2754 -0.5106
26884SOL    HW285500   7.829   8.272   0.446 -1.8298  4.1878  0.9341
26885SOL     OW85501   0.307   7.059   1.710 -0.0329 -0.2768 -0.2952
26885SOL    HW185502   0.313   7.080   1.617  0.0187 -2.2193 -0.7741
26885SOL    HW285503   0.294   7.143   1.753 -0.3691  0.6261 -2.0842
26886SOL     OW85504   9.308   9.543   0.969 -0.7116  0.1918 -0.9845
26886SOL    HW185505   9.256   9.621   0.947  1.6962  2.6227  1.0774
26886SOL    HW285506   9.295   9.532   1.063  1.7590  0.4618 -0.5328
26887SOL     OW85507   8.634   7.137   2.513  0.2923  0.3556 -0.4870
26887SOL    HW185508   8.679   7.219   2.493  0.3792  1.0571  2.1958
26887SOL    HW285509   8.687   7.097   2.583 -1.5883 -0.2631  0.6585
26888SOL     OW85510   8.537   8.788   8.470  0.1857 -0.2967 -0.0844
26888SOL    HW185511   8.466   8.811   8.411  0.3725  0.3906 -0.0458
26888SOL    HW285512   8.507   8.709   8.514  0.2005 -1.0355 -1.3569
26889SOL     OW85513   0.361   6.498   1.380  0.2241  0.7785 -0.7340
26889SOL    HW185514   0.365   6.407   1.351  1.2664  0.7014 -0.3920
26889SOL    HW285515   0.275   6.506   1.420  0.9064 -0.7074  1.2413
26890SOL     OW85516   8.078   9.336   0.195 -0.1727 -0.2864 -0.1202
26890SOL    HW185517   8.019   9.276   0.240 -0.7381 -0.8894 -1.5961
26890SOL    HW285518   8.158   9.336   0.247 -0.8201 -0.8985  0.8960
26891SOL     OW85519   7.923   8.499   1.127  0.4921  0.1873  0.7536
26891SOL    HW185520   8.000   8.455   1.092  0.6318  0.2585  0.9681
26891SOL    HW285521   7.956   8.582   1.162  0.2431  0.4181  0.4370
26892SOL     OW85522   9.055   6.667   0.573 -0.2342  0.0409  0.3055
26892SOL    HW185523   9.086   6.655   0.662 -0.2988  0.4529  0.3851
26892SOL    HW285524   9.134   6.662   0.519 -0.3332 -1.3865  0.2639
26893SOL     OW85525   8.696   9.582   0.157  0.1392  0.3542  0.1539
26893SOL    HW185526   8.633   9.652   0.140 -0.5090  0.0107  1.0795
26893SOL    HW285527   8.671   9.512   0.097 -1.4308 -0.4172  1.6069
26894SOL     OW85528   9.157   1.573   0.546  0.1119  0.2349  0.5612
26894SOL    HW185529   9.166   1.505   0.613  2.3606  0.6114  0.7158
26894SOL    HW285530   9.102   1.532   0.479 -0.0321 -1.0936  1.4427
26895SOL     OW85531   8.647   9.378   9.835  0.6926 -0.7383 -0.3070
26895SOL    HW185532   8.669   9.335   9.752  1.2627 -0.4247 -0.3274
26895SOL    HW285533   8.654   9.308   9.901  4.0047 -0.2696  0.0232
26896SOL     OW85534   8.243   9.123   1.571  0.0999  0.1614  0.0569
26896SOL    HW185535   8.292   9.162   1.498  1.6594 -0.7667  0.5668
26896SOL    HW285536   8.157   9.103   1.533  1.0084 -0.7210 -1.7041
26897SOL     OW85537   0.521   6.702   1.256 -0.3060 -0.7052  0.0733
26897SOL    HW185538   0.479   6.639   1.314 -1.2116 -1.3496 -1.2297
26897SOL    HW285539   0.456   6.719   1.188  0.6733  0.1164 -0.6949
26898SOL     OW85540   0.292   6.929   9.823  0.6677  0.1828  0.6121
26898SOL    HW185541   0.223   6.948   9.760  0.9234 -0.0439  0.2618
26898SOL    HW285542   0.265   6.847   9.864  0.6928  0.1335  0.5292
26899SOL     OW85543   9.152   8.366   0.768 -0.4118  0.2478  0.3234
26899SOL    HW185544   9.231   8.326   0.805 -0.0926  0.8429  0.2846
26899SOL    HW285545   9.140   8.446   0.818 -0.0752  0.9776 -0.7270
26900SOL     OW85546   8.202   8.400   1.977  0.4278  0.2771  0.2057
26900SOL    HW185547   8.143   8.373   2.046 -0.2296  0.0629 -0.4290
26900SOL    HW285548   8.168   8.358   1.898  2.5614 -1.4924  0.1250
26901SOL     OW85549   6.680   8.074   8.357  0.1151  0.2208  0.8892
26901SOL    HW185550   6.693   8.010   8.427 -0.2697 -0.2682  0.5177
26901SOL    HW285551   6.726   8.153   8.388 -0.2803  0.1003  1.8140
26902SOL     OW85552   9.024   8.030   1.211 -0.2814 -0.0087  0.4788
26902SOL    HW185553   9.092   8.039   1.277  1.3549 -0.4613 -1.0542
26902SOL    HW285554   8.988   7.942   1.225 -0.3444  0.1145  1.1007
26903SOL     OW85555   6.926   9.214   1.265 -0.1942 -0.5860 -0.3843
26903SOL    HW185556   6.985   9.182   1.332  0.6576  1.4873 -0.0903
26903SOL    HW285557   6.871   9.279   1.310  0.5540  1.0134 -1.7006
26904SOL     OW85558   6.898   6.488   2.976  0.5688 -0.2005  0.2493
26904SOL    HW185559   6.923   6.509   2.886  0.2595  2.7240  0.7361
26904SOL    HW285560   6.804   6.509   2.980  0.1987 -1.8299  0.8845
26905SOL     OW85561   6.773   0.154   3.593  0.0393 -0.5663  0.1917
26905SOL    HW185562   6.849   0.191   3.639  0.9990  1.0802 -2.4696
26905SOL    HW285563   6.703   0.218   3.607  1.2917  1.8388 -3.1899
26906SOL     OW85564   6.937   8.816   9.739 -0.1692 -0.1095  0.2231
26906SOL    HW185565   6.910   8.725   9.730  0.3886 -0.3706  1.0256
26906SOL    HW285566   7.033   8.812   9.744 -0.1185  0.5573 -0.0905
26907SOL     OW85567   7.509   8.223   1.313 -0.5354  0.1229  0.4863
26907SOL    HW185568   7.441   8.288   1.299  0.4393  0.9089 -0.7661
26907SOL    HW285569   7.473   8.165   1.380 -1.4216  1.9396  1.6512
26908SOL     OW85570   6.471   8.118   0.713  0.0092  0.3793 -0.3445
26908SOL    HW185571   6.517   8.130   0.796  0.1565 -1.8765 -0.0380
26908SOL    HW285572   6.378   8.126   0.735  0.0357 -0.4667  0.1211
26909SOL     OW85573   7.801   8.336   2.596  0.2037  0.1795  0.4166
26909SOL    HW185574   7.759   8.258   2.633  0.0097 -0.1837 -0.5381
26909SOL    HW285575   7.889   8.307   2.574  0.7259  0.7284  1.6864
26910SOL     OW85576   0.952   8.255   0.542 -0.6977 -0.5292 -0.2032
26910SOL    HW185577   0.946   8.175   0.488  1.1850 -0.9405  0.1169
26910SOL    HW285578   1.038   8.248   0.585 -0.2670  1.9228 -0.5495
26911SOL     OW85579   5.830   9.221   1.912  0.7779 -0.1989  0.4731
26911SOL    HW185580   5.839   9.231   1.817  1.2337 -2.9177  0.1429
26911SOL    HW285581   5.907   9.170   1.938 -0.5906 -1.6848  1.8445
26912SOL     OW85582   6.771   5.913   1.542  0.3421 -0.5085 -0.4553
26912SOL    HW185583   6.792   5.870   1.459 -0.2507 -0.3454 -0.6951
26912SOL    HW285584   6.838   5.882   1.603  1.7691  0.6500 -1.4030
26913SOL     OW85585   7.358   1.366   0.911  0.7690  0.0328 -0.0318
26913SOL    HW185586   7.356   1.459   0.934  1.0187  0.4025 -1.4104
26913SOL    HW285587   7.395   1.323   0.988  0.2143  1.0076  0.7992
26914SOL     OW85588   7.662   7.163   9.017  0.5881  0.1131 -0.0707
26914SOL    HW185589   7.707   7.205   9.090  1.6884  0.9077 -1.1623
26914SOL    HW285590   7.617   7.234   8.972 -2.6023 -0.7567  1.4679
26915SOL     OW85591   8.521   7.962   1.324  0.6764 -0.4515  0.1680
26915SOL    HW185592   8.444   8.013   1.299  0.9130 -0.2813 -0.2071
26915SOL    HW285593   8.522   7.887   1.264 -0.4926 -1.7113  1.6212
26916SOL     OW85594   8.713   0.763   2.531  0.1591  0.0169  0.4906
26916SOL    HW185595   8.666   0.838   2.496  0.0674  0.8909  2.3872
26916SOL    HW285596   8.796   0.799   2.563 -0.7364 -0.2250  3.3251
26917SOL     OW85597   6.642   9.119   1.090 -0.0483  0.4836  0.5937
26917SOL    HW185598   6.617   9.177   1.017 -0.3333  0.2940  0.5390
26917SOL    HW285599   6.732   9.093   1.070 -0.7617 -1.1663 -0.7563
26918SOL     OW85600   7.280   7.591   0.044 -0.1329 -0.4222 -0.2063
26918SOL    HW185601   7.254   7.565  -0.044 -0.3403 -1.7590  0.2207
26918SOL    HW285602   7.267   7.512   0.097  0.3703  0.2371  0.9407
26919SOL     OW85603   8.880   6.516   1.077 -0.0449 -0.1789  0.1141
26919SOL    HW185604   8.837   6.445   1.126 -1.3800  0.6733  0.2276
26919SOL    HW285605   8.870   6.491   0.985  0.8389 -0.8798  0.2018
26920SOL     OW85606   9.416   9.511   1.222 -0.3877  0.3096  0.3975
26920SOL    HW185607   9.437   9.604   1.228 -1.0645  0.4185  1.2049
26920SOL    HW285608   9.459   9.471   1.298  0.3986 -0.1507 -0.2613
26921SOL     OW85609   8.381   9.298   9.619  0.4778  0.3206 -0.1381
26921SOL    HW185610   8.334   9.330   9.696 -0.7984  0.2774 -0.8777
26921SOL    HW285611   8.363   9.205   9.615  0.4983  0.3279 -0.5161
26922SOL     OW85612   8.132   5.732   8.864  0.0844  0.5345  0.2289
26922SOL    HW185613   8.212   5.776   8.893  0.9911 -0.1732 -1.1089
26922SOL    HW285614   8.138   5.644   8.901  0.5660  0.0749 -0.9141
26923SOL     OW85615   6.208   6.782   1.887  0.7641  0.1822  0.2451
26923SOL    HW185616   6.151   6.857   1.902  1.1422  0.3715  0.7804
26923SOL    HW285617   6.295   6.812   1.915  1.0666 -0.1942 -0.2863
26924SOL     OW85618   7.640   1.569   0.397 -0.5825 -0.2548  0.5473
26924SOL    HW185619   7.721   1.520   0.384 -1.3765 -1.1592 -1.4122
26924SOL    HW285620   7.668   1.652   0.437  1.1570 -0.9932  0.9437
26925SOL     OW85621   9.129   8.155   0.427 -0.5158 -0.6370  0.0216
26925SOL    HW185622   9.142   8.092   0.357 -0.2536 -0.8063  0.2179
26925SOL    HW285623   9.182   8.121   0.500 -0.3132 -0.1556  0.1051
26926SOL     OW85624   8.773   8.476   0.469 -0.5137 -0.4321  0.1875
26926SOL    HW185625   8.856   8.490   0.515 -0.5640  0.2946  0.0703
26926SOL    HW285626   8.791   8.503   0.379 -1.4136  1.7799  0.5877
26927SOL     OW85627   1.241   8.267   0.958 -0.1841  0.1731  0.2392
26927SOL    HW185628   1.200   8.262   1.044  0.7558 -0.6089  0.6609
26927SOL    HW285629   1.301   8.342   0.965 -0.2806  0.2573  0.1771
26928SOL     OW85630   8.946   7.131   2.574  0.0966 -0.0989 -0.1033
26928SOL    HW185631   8.982   7.052   2.534  0.2639  0.8810 -1.9855
26928SOL    HW285632   8.986   7.135   2.661  2.8029 -0.2818 -1.2590
26929SOL     OW85633   0.980   8.325   1.492  0.1022 -0.2940 -0.5852
26929SOL    HW185634   0.965   8.235   1.464 -1.1050 -0.2582 -0.1159
26929SOL    HW285635   0.894   8.366   1.489  0.1803  0.1460  1.6124
26930SOL     OW85636   7.599   7.170   9.329 -0.2499  0.3503  0.2742
26930SOL    HW185637   7.672   7.116   9.298 -0.3788  0.1639  0.2897
26930SOL    HW285638   7.577   7.133   9.414 -1.8904 -1.1181 -0.7230
26931SOL     OW85639   8.429   6.134   9.057  0.1100  0.7948  0.2885
26931SOL    HW185640   8.460   6.222   9.077  1.4816 -0.0108  1.9584
26931SOL    HW285641   8.468   6.079   9.125 -2.4726 -0.7870  0.6286
26932SOL     OW85642   9.241   8.382   8.778 -0.1785 -0.1926 -0.0690
26932SOL    HW185643   9.290   8.408   8.700 -0.3757  1.8866  0.4147
26932SOL    HW285644   9.193   8.304   8.752 -0.5630  0.6788 -2.1589
26933SOL     OW85645   8.224   8.930   1.210 -0.0190 -0.3803 -0.0440
26933SOL    HW185646   8.228   8.992   1.283 -0.7075  1.4536 -1.4776
26933SOL    HW285647   8.302   8.949   1.158 -0.7649  0.0783 -1.0520
26934SOL     OW85648   6.755   8.423   8.766  0.4362 -0.0855  0.5592
26934SOL    HW185649   6.826   8.483   8.744 -0.9141  1.9008  1.3384
26934SOL    HW285650   6.777   8.392   8.854 -0.0428  1.2184  1.1724
26935SOL     OW85651   7.457   6.152   0.999 -0.1567  0.0665  0.1578
26935SOL    HW185652   7.548   6.144   0.971 -0.1956 -4.0396  0.5402
26935SOL    HW285653   7.406   6.142   0.919 -0.2334 -0.3954  0.2584
26936SOL     OW85654   9.121   6.244   2.481  0.0453 -0.3936  0.1016
26936SOL    HW185655   9.075   6.327   2.492  1.1591  0.3284 -0.5009
26936SOL    HW285656   9.208   6.269   2.450  0.9407 -1.6969  1.4413
26937SOL     OW85657   6.394   7.696   9.729 -0.1654  0.3771  0.3186
26937SOL    HW185658   6.470   7.708   9.673 -0.1562  1.9297  0.6175
26937SOL    HW285659   6.404   7.762   9.798 -2.0952  1.0498  0.0167
26938SOL     OW85660   0.009   7.566   0.733 -0.3915  0.3916 -0.4748
26938SOL    HW185661   0.081   7.606   0.685 -0.5414  2.5107  0.9206
26938SOL    HW285662   0.047   7.539   0.817 -1.1058  1.2389  0.1477
26939SOL     OW85663   8.733   6.822   8.898 -0.2533  0.1484 -0.2750
26939SOL    HW185664   8.661   6.883   8.884  0.1659  0.4925 -0.9889
26939SOL    HW285665   8.742   6.817   8.993 -1.3871 -0.1095 -0.1650
26940SOL     OW85666   7.717   9.690   9.158  0.3103  0.5444 -0.1613
26940SOL    HW185667   7.696   9.765   9.102 -1.3939  0.4701  0.3359
26940SOL    HW285668   7.812   9.679   9.148  0.0826  0.4648 -3.1071
26941SOL     OW85669   8.324   0.072   2.023  0.2255  0.0629 -0.1784
26941SOL    HW185670   8.254   0.038   1.967  1.6081 -1.2706 -1.2005
26941SOL    HW285671   8.332   0.008   2.094  1.2497 -0.5305 -0.7975
26942SOL     OW85672   9.086   8.496   0.511  0.6888  0.4139 -0.0713
26942SOL    HW185673   9.091   8.444   0.591  0.1382  2.3543  1.3226
26942SOL    HW285674   9.120   8.439   0.442  5.0773 -0.1043  2.1297
26943SOL     OW85675   7.194   6.983   8.797 -0.3394  0.3698 -0.3794
26943SOL    HW185676   7.169   7.046   8.729  0.8097  1.4864  0.2010
26943SOL    HW285677   7.286   7.001   8.814 -0.3656 -0.5113  0.8327
26944SOL     OW85678   9.590   7.314   2.932 -0.4094 -0.2023 -0.3078
26944SOL    HW185679   9.595   7.350   3.020 -0.2813 -0.7411 -0.0930
26944SOL    HW285680   9.680   7.313   2.901 -0.5787  1.1480 -0.9283
26945SOL     OW85681   0.978   9.372   0.674 -0.2575 -0.4030 -0.2457
26945SOL    HW185682   0.950   9.317   0.747  0.0578  0.6505  0.6873
26945SOL    HW285683   1.011   9.452   0.715 -0.4131  0.3609 -1.5624
26946SOL     OW85684   8.857   7.996   0.566 -0.1904 -0.1637 -0.0927
26946SOL    HW185685   8.948   7.973   0.544 -0.8812 -1.8437 -1.4243
26946SOL    HW285686   8.826   7.921   0.617 -0.8482  0.3958  0.3416
26947SOL     OW85687   7.155   7.840   0.330  0.0666 -0.2399  0.4684
26947SOL    HW185688   7.123   7.908   0.390 -0.1297  0.2076 -0.1383
26947SOL    HW285689   7.077   7.803   0.290  0.0390 -1.9849  1.9907
26948SOL     OW85690   6.929   7.389   0.003 -0.0099  0.5329 -0.2140
26948SOL    HW185691   6.859   7.406  -0.060 -0.3722 -0.0366  0.0221
26948SOL    HW285692   7.010   7.402  -0.047 -0.2878  0.6031 -0.6533
26949SOL     OW85693   9.238   6.363   1.645  0.7271  0.3623  0.1354
26949SOL    HW185694   9.249   6.278   1.689  0.4873 -0.0806 -0.6377
26949SOL    HW285695   9.296   6.357   1.569 -1.2608 -0.1817 -1.4221
26950SOL     OW85696   9.356   9.031   9.070  0.3422 -0.1515 -0.1568
26950SOL    HW185697   9.424   9.020   9.003 -1.4792  1.1318 -2.3667
26950SOL    HW285698   9.273   9.028   9.021 -1.1641 -0.5682  2.2654
26951SOL     OW85699   8.201   1.059   2.211 -0.0110  0.3621  0.2621
26951SOL    HW185700   8.204   1.006   2.291 -1.7266 -0.0198  0.1224
26951SOL    HW285701   8.285   1.105   2.209  1.5096 -2.1883  0.4788
26952SOL     OW85702   8.560   9.820   0.152 -0.0558 -0.6869  0.1573
26952SOL    HW185703   8.620   9.870   0.097 -1.4629  0.8244 -0.0829
26952SOL    HW285704   8.473   9.855   0.131 -1.1206 -3.1947  0.0581
26953SOL     OW85705   7.386   8.322   0.896 -0.0220 -0.0991 -0.5933
26953SOL    HW185706   7.451   8.266   0.937 -0.7326 -0.3045  0.2726
26953SOL    HW285707   7.434   8.365   0.824  1.1858  0.1043  0.2973
26954SOL     OW85708   0.108   8.070   0.610  0.0665  0.0208  0.4573
26954SOL    HW185709   0.049   8.042   0.540  1.2157 -0.6298 -0.2849
26954SOL    HW285710   0.069   8.151   0.643 -1.2417 -0.3968  0.0139
26955SOL     OW85711   6.443   7.258   2.127 -0.1227  0.3903 -0.8543
26955SOL    HW185712   6.456   7.187   2.064 -1.6792  0.1204 -0.9164
26955SOL    HW285713   6.506   7.240   2.197 -0.7737 -1.3114 -0.6690
26956SOL     OW85714   9.513   9.126   2.403 -0.4153 -0.2765 -0.1079
26956SOL    HW185715   9.459   9.150   2.328 -0.7048  2.5660  0.8739
26956SOL    HW285716   9.532   9.033   2.391 -2.5889 -0.5246 -2.3116
26957SOL     OW85717   9.407   7.666   1.376 -0.6600  0.2757  0.4364
26957SOL    HW185718   9.395   7.760   1.387  0.4376  0.2703  2.1456
26957SOL    HW285719   9.465   7.641   1.448 -0.8928 -1.7089 -0.0062
26958SOL     OW85720   6.828   7.022   7.906 -0.3857 -0.1865 -0.0629
26958SOL    HW185721   6.855   7.053   7.819  1.8730 -0.2883  0.5510
26958SOL    HW285722   6.765   7.088   7.936  0.9242  1.3934 -0.6498
26959SOL     OW85723   8.844   7.065   1.000 -0.2773 -0.2509 -0.2199
26959SOL    HW185724   8.881   7.098   1.082 -2.0008  2.8787 -0.5413
26959SOL    HW285725   8.869   6.973   0.998 -0.3457 -0.5488  3.9186
26960SOL     OW85726   5.473   6.815   3.834  0.1450  0.7421  0.0908
26960SOL    HW185727   5.521   6.889   3.796  0.6753  1.0155  1.2499
26960SOL    HW285728   5.515   6.799   3.918 -0.7894 -0.0529  0.4353
26961SOL     OW85729   8.496   7.715   1.950  0.3071 -0.3688 -0.2387
26961SOL    HW185730   8.574   7.728   1.895  0.3783  1.5001  0.2374
26961SOL    HW285731   8.433   7.673   1.892  1.3333 -1.0603 -0.9041
26962SOL     OW85732   6.345   8.303   8.317  0.3019 -0.2198  0.2265
26962SOL    HW185733   6.383   8.261   8.394 -0.9242  1.8644  2.0854
26962SOL    HW285734   6.411   8.365   8.288  0.7539 -0.9878 -0.4492
26963SOL     OW85735   8.016   9.644   1.806  0.5436  0.1505  0.4858
26963SOL    HW185736   7.925   9.673   1.820  0.6718  0.2251  1.1937
26963SOL    HW285737   8.008   9.573   1.742 -0.1236 -0.4695  1.2184
26964SOL     OW85738   7.832   6.847   1.692  0.5442  0.3778  0.3992
26964SOL    HW185739   7.748   6.804   1.709  1.2490 -0.1800  3.0997
26964SOL    HW285740   7.878   6.789   1.631 -1.0572  0.8101 -1.2917
26965SOL     OW85741   8.296   7.458   1.616  0.2161  0.1369  0.2785
26965SOL    HW185742   8.230   7.466   1.548 -0.4961 -2.8707  0.4837
26965SOL    HW285743   8.284   7.536   1.670 -1.5602  0.8313 -0.9996
26966SOL     OW85744   5.104   8.184   2.582  0.0834  0.0945  0.1692
26966SOL    HW185745   5.140   8.208   2.668  0.5225 -1.9694  0.6338
26966SOL    HW285746   5.024   8.135   2.603  0.3018 -0.5977 -0.5579
26967SOL     OW85747   8.474   7.885   1.689 -0.4059 -0.2270  0.3405
26967SOL    HW185748   8.566   7.858   1.696  0.5431  2.0900 -1.7770
26967SOL    HW285749   8.465   7.957   1.751  0.1210  1.5366 -1.5413
26968SOL     OW85750   7.445   6.198   1.265  0.4443 -0.0665 -0.0783
26968SOL    HW185751   7.449   6.203   1.169  1.7357 -2.2597 -0.2204
26968SOL    HW285752   7.529   6.233   1.294  0.6247 -0.6862  0.1546
26969SOL     OW85753   1.969   6.675   9.508 -0.2514  0.3578  0.0829
26969SOL    HW185754   1.939   6.619   9.580  1.4566  0.6140  1.0768
26969SOL    HW285755   1.984   6.760   9.549  2.6918  0.0094 -0.0114
26970SOL     OW85756   6.509   7.002   8.451  0.1584  0.5300  0.1129
26970SOL    HW185757   6.543   7.076   8.501  0.2219  0.1224  0.6764
26970SOL    HW285758   6.489   6.935   8.516 -2.4196  0.9830 -0.1132
26971SOL     OW85759   6.585   7.869   0.550 -0.0646 -0.5069  0.2637
26971SOL    HW185760   6.541   7.947   0.584 -1.4789 -0.9467 -0.4586
26971SOL    HW285761   6.583   7.806   0.622 -0.1757 -0.3455  0.4000
26972SOL     OW85762   9.432   0.166   8.467  0.4924 -0.7740 -0.7861
26972SOL    HW185763   9.514   0.216   8.462 -0.1520  0.3033 -0.8850
26972SOL    HW285764   9.402   0.160   8.377 -0.1747 -0.0607 -0.6221
26973SOL     OW85765   5.646   8.177   2.605 -0.5019  0.1131  0.1133
26973SOL    HW185766   5.730   8.143   2.636 -0.4911 -0.1248 -0.1689
26973SOL    HW285767   5.669   8.237   2.534 -0.6531 -1.3042 -1.1671
26974SOL     OW85768   8.135   0.654   3.090  0.2286  0.4200 -0.3089
26974SOL    HW185769   8.181   0.656   3.006  0.1437 -0.2172 -0.3732
26974SOL    HW285770   8.061   0.595   3.075 -0.8150  1.6584 -0.3099
26975SOL     OW85771   8.290   7.273   2.279 -0.1446  0.0856 -0.1532
26975SOL    HW185772   8.300   7.190   2.326  0.7684 -0.3261 -1.0350
26975SOL    HW285773   8.331   7.338   2.337  0.3005 -0.2950 -0.0292
26976SOL     OW85774   7.374   8.053   0.447 -0.2404 -0.1645  0.5251
26976SOL    HW185775   7.409   7.965   0.430  0.1293 -0.1018  0.9635
26976SOL    HW285776   7.280   8.044   0.432 -0.1679 -0.5680  0.2911
26977SOL     OW85777   9.533   7.854   2.024 -0.7450  0.6590 -0.0951
26977SOL    HW185778   9.554   7.897   1.941 -1.1966  0.1493 -0.4773
26977SOL    HW285779   9.543   7.924   2.089  1.5006  0.5996 -0.3015
26978SOL     OW85780   7.267   7.441   1.835 -0.3033 -0.1684  0.4771
26978SOL    HW185781   7.215   7.513   1.799 -2.5534 -0.8652  2.1344
26978SOL    HW285782   7.344   7.484   1.872 -1.4753  1.4281  1.2183
26979SOL     OW85783   8.138   8.070   1.761  0.0046 -0.1352 -0.3517
26979SOL    HW185784   8.061   8.126   1.747 -0.2616 -0.7764 -1.6533
26979SOL    HW285785   8.107   8.002   1.821 -0.0046  0.4324  0.3035
26980SOL     OW85786   8.634   7.893   3.295 -0.5230 -0.2410 -0.0867
26980SOL    HW185787   8.627   7.815   3.350 -2.0467 -1.6716 -2.1189
26980SOL    HW285788   8.716   7.881   3.247 -1.0478 -0.9423 -0.8319
26981SOL     OW85789   9.063   6.368   4.836  0.0387 -0.0426  0.0380
26981SOL    HW185790   9.118   6.290   4.832  0.0673  0.0075 -0.6198
26981SOL    HW285791   8.995   6.352   4.771  0.4783  0.8148 -0.6395
26982SOL     OW85792   8.623   0.172   4.006 -0.3053 -0.3159  0.2948
26982SOL    HW185793   8.662   0.209   3.927  1.9484 -2.6185  0.1703
26982SOL    HW285794   8.590   0.087   3.978  0.1652 -0.9986  1.6974
26983SOL     OW85795   9.343   9.368   1.878  0.8782 -0.0648  0.0082
26983SOL    HW185796   9.438   9.372   1.888  0.9483 -0.9225 -0.1655
26983SOL    HW285797   9.319   9.450   1.835  1.7391 -0.4646 -1.3040
26984SOL     OW85798   8.132   8.197   3.476 -0.4673 -0.0343  0.1257
26984SOL    HW185799   8.194   8.251   3.428 -0.3875 -0.4172 -0.2052
26984SOL    HW285800   8.137   8.229   3.566 -1.2488  1.2736 -0.2658
26985SOL     OW85801   7.226   8.107   2.654 -0.3835 -0.0241 -0.0425
26985SOL    HW185802   7.255   8.146   2.737  0.4864 -2.0375  0.6755
26985SOL    HW285803   7.217   8.181   2.594  0.9331  1.2894  1.2997
26986SOL     OW85804   7.951   0.329   2.629  0.4449 -0.3603  0.4977
26986SOL    HW185805   7.972   0.286   2.546  0.1896  0.1454  0.1556
26986SOL    HW285806   7.900   0.265   2.678  1.0477 -0.8506  0.4818
26987SOL     OW85807   9.202   9.101   3.540  0.1457  0.1373  0.4511
26987SOL    HW185808   9.154   9.133   3.463 -1.2397 -0.8511  0.8666
26987SOL    HW285809   9.294   9.111   3.516 -0.2548  1.3731 -0.6870
26988SOL     OW85810   6.964   8.429   3.710  0.4568 -0.0587 -0.1895
26988SOL    HW185811   6.952   8.337   3.684  0.3738  0.1752 -1.0034
26988SOL    HW285812   6.879   8.455   3.745  0.6625 -0.4731  0.6277
26989SOL     OW85813   8.758   0.074   3.440  0.4600  0.2528 -0.5014
26989SOL    HW185814   8.799   0.160   3.445  1.0616 -0.0463 -0.3229
26989SOL    HW285815   8.664   0.093   3.435  0.5157  0.8854  0.5690
26990SOL     OW85816   8.378   9.546   9.451  0.7318  0.0390  0.6285
26990SOL    HW185817   8.372   9.623   9.507 -0.0662 -0.2575  0.9585
26990SOL    HW285818   8.392   9.473   9.511  1.1836 -0.1234  0.3386
26991SOL     OW85819   7.403   4.769   3.001 -0.1849 -0.1979  0.2379
26991SOL    HW185820   7.362   4.787   2.916 -0.3323 -0.8001  0.1821
26991SOL    HW285821   7.475   4.709   2.981  0.0347 -0.0199  0.4861
26992SOL     OW85822   5.630   5.729   2.041  0.2570  0.3858 -0.2700
26992SOL    HW185823   5.689   5.654   2.032  1.1252  0.9435  0.6502
26992SOL    HW285824   5.556   5.708   1.983  0.6939 -0.9646 -0.3721
26993SOL     OW85825   7.415   8.922   0.062  0.0188 -0.1235  0.2202
26993SOL    HW185826   7.410   8.897   0.154  0.5823 -1.7509 -0.1422
26993SOL    HW285827   7.371   8.850   0.016  0.9791 -0.0503 -0.8592
26994SOL     OW85828   8.405   8.634   0.382 -0.2208  0.3155 -0.1674
26994SOL    HW185829   8.318   8.655   0.348 -0.3832  2.8709  1.5314
26994SOL    HW285830   8.395   8.638   0.478  1.8627  1.2949  0.0617
26995SOL     OW85831   8.821   8.340   2.550  0.2248  0.2810  0.0124
26995SOL    HW185832   8.901   8.346   2.602 -0.4269  1.4690  0.9526
26995SOL    HW285833   8.775   8.264   2.586  1.7776 -1.6941 -1.8868
26996SOL     OW85834   9.675   9.347   1.222  0.0806 -0.1295 -0.3214
26996SOL    HW185835   9.735   9.272   1.225 -0.7035 -0.7440  1.2929
26996SOL    HW285836   9.683   9.387   1.309 -0.5963  0.7907 -0.6755
26997SOL     OW85837   9.046   9.598   3.048  0.0417 -0.2942  0.3451
26997SOL    HW185838   8.996   9.528   3.090 -0.7633 -0.9311 -1.5676
26997SOL    HW285839   9.138   9.578   3.068 -0.0060 -2.9522 -1.5596
26998SOL     OW85840   6.861   9.334   1.847  0.1998  0.1455 -0.1634
26998SOL    HW185841   6.954   9.329   1.868  0.0949  0.9450  0.5394
26998SOL    HW285842   6.832   9.416   1.887 -1.1305 -0.8091  0.9151
26999SOL     OW85843   8.712   6.237   2.332 -0.1614 -0.3116  0.0217
26999SOL    HW185844   8.694   6.148   2.302 -0.4028 -1.0964  2.3035
26999SOL    HW285845   8.628   6.269   2.365  0.3617 -0.0498  1.1414
27000SOL     OW85846   7.977   6.265   1.664 -0.2896  0.1067 -0.3487
27000SOL    HW185847   8.014   6.273   1.752 -0.4833  0.4900 -0.2983
27000SOL    HW285848   7.885   6.243   1.677 -0.0291 -1.0826 -0.4807
27001SOL     OW85849   2.122   7.956   2.255 -0.7584  0.6946  0.0900
27001SOL    HW185850   2.205   7.994   2.228 -0.9829  1.5139  0.5072
27001SOL    HW285851   2.143   7.867   2.283 -0.4207  0.0168 -2.1425
27002SOL     OW85852   8.155   1.133   2.612  0.4723  0.1316  0.5901
27002SOL    HW185853   8.100   1.188   2.555 -2.0453 -1.0839  1.6666
27002SOL    HW285854   8.242   1.138   2.573 -0.4246  1.9647 -1.4247
27003SOL     OW85855   7.243   7.544   5.207  0.4069  0.2010  0.0702
27003SOL    HW185856   7.160   7.581   5.178 -0.4635 -1.9305 -0.3247
27003SOL    HW285857   7.293   7.530   5.127  1.0287  1.1188  0.2757
27004SOL     OW85858   8.835   9.441   2.816 -0.6202  0.6923 -0.3437
27004SOL    HW185859   8.770   9.372   2.802  0.2409 -0.2866  0.3812
27004SOL    HW285860   8.783   9.517   2.843 -1.3494 -0.7096  2.5684
27005SOL     OW85861   8.686   7.488   2.564 -0.2476 -0.0787  0.3269
27005SOL    HW185862   8.747   7.490   2.490 -0.0034 -0.6012  0.5057
27005SOL    HW285863   8.742   7.491   2.641 -0.4918  0.2515  0.4939
27006SOL     OW85864   8.158   7.548   2.443 -0.0168 -0.0347 -0.4180
27006SOL    HW185865   8.174   7.484   2.512  0.4356 -0.7006 -1.1263
27006SOL    HW285866   8.231   7.609   2.448  0.7736 -0.8794 -1.1785
27007SOL     OW85867   0.690   6.198   4.445  0.5757 -0.4284 -0.1426
27007SOL    HW185868   0.739   6.135   4.392  1.4375 -0.2262  0.4038
27007SOL    HW285869   0.739   6.205   4.526  0.0128  0.2997  0.1487
27008SOL     OW85870   8.322   0.879   2.618  0.0827  0.1192  0.0294
27008SOL    HW185871   8.391   0.818   2.644 -0.0850 -0.0612  0.0565
27008SOL    HW285872   8.334   0.955   2.675 -0.9714 -0.7263  1.4451
27009SOL     OW85873   7.151   7.669   1.714  0.4745 -0.1482 -0.3224
27009SOL    HW185874   7.242   7.696   1.701  0.3450  0.5227  0.1466
27009SOL    HW285875   7.113   7.670   1.626  0.5556  0.9169 -0.3563
27010SOL     OW85876   8.168   8.267   4.481  0.0896 -0.3337  0.6891
27010SOL    HW185877   8.206   8.203   4.420  0.0002 -1.4708  1.7948
27010SOL    HW285878   8.243   8.318   4.512  0.4347 -1.1431  1.2133
27011SOL     OW85879   7.876   8.541   1.869 -0.0552  0.1482 -0.1515
27011SOL    HW185880   7.867   8.633   1.848 -0.3415  0.2713  0.4778
27011SOL    HW285881   7.918   8.540   1.955 -0.6249 -0.2876  0.1318
27012SOL     OW85882   0.145   8.599   1.246  0.2480 -0.2418 -0.4079
27012SOL    HW185883   0.173   8.626   1.334  0.0785  0.1025 -0.4592
27012SOL    HW285884   0.127   8.506   1.254 -1.2620  0.0868  0.3044
27013SOL     OW85885   8.686   8.071   1.129 -0.3692  0.5106  0.6259
27013SOL    HW185886   8.694   7.997   1.069 -0.6849  0.6080  0.4629
27013SOL    HW285887   8.624   8.041   1.195  1.5844 -0.4245  2.1548
27014SOL     OW85888   8.462   8.149   3.298  0.4278 -0.1844 -0.0668
27014SOL    HW185889   8.408   8.216   3.341 -0.1359 -0.0741 -0.9021
27014SOL    HW285890   8.472   8.182   3.208  4.1396  1.1399  0.6697
27015SOL     OW85891   8.986   9.331   2.610 -0.2670 -0.5326  0.3089
27015SOL    HW185892   8.966   9.382   2.531  1.5542  0.9525  0.7551
27015SOL    HW285893   8.927   9.367   2.677  0.6529  0.6805  0.4908
27016SOL     OW85894   1.957   8.058   3.364 -0.4490 -0.2417 -0.1980
27016SOL    HW185895   1.934   8.054   3.271  0.6175  0.2297 -0.4978
27016SOL    HW285896   1.960   8.152   3.383  2.1575 -0.1933 -0.4569
27017SOL     OW85897   0.136   6.771   4.338 -0.0740 -0.0055 -0.0584
27017SOL    HW185898   0.214   6.728   4.304 -0.1844 -1.8600  1.8457
27017SOL    HW285899   0.070   6.760   4.269  0.2426 -1.9518 -0.0830
27018SOL     OW85900   8.344   7.077   2.789  0.0526  0.3951 -0.2870
27018SOL    HW185901   8.382   7.008   2.734 -0.1554  0.0213  0.0322
27018SOL    HW285902   8.417   7.110   2.841  0.1005  0.2188 -0.2402
27019SOL     OW85903   7.787   9.088   0.046 -0.4658  0.3823  0.2058
27019SOL    HW185904   7.827   9.061  -0.037  1.4460  0.7801  0.9447
27019SOL    HW285905   7.794   9.011   0.102  0.0751  0.7212  0.6127
27020SOL     OW85906   0.507   8.438   2.873  0.2946 -0.1664  0.3278
27020SOL    HW185907   0.594   8.435   2.832 -0.5922  1.1240 -1.8476
27020SOL    HW285908   0.517   8.500   2.945  1.3705 -0.7525  0.7149
27021SOL     OW85909   5.975   9.358   3.150 -0.3601  0.4356 -0.2645
27021SOL    HW185910   5.949   9.350   3.058  0.4454 -1.0920 -0.3817
27021SOL    HW285911   5.908   9.311   3.199  0.2942 -0.5223 -0.2661
27022SOL     OW85912   9.831   7.891   3.308  0.2254 -0.4611  0.3401
27022SOL    HW185913   9.916   7.863   3.272  1.0466  2.1653 -0.0120
27022SOL    HW285914   9.853   7.923   3.395 -0.2115  0.9952 -0.0582
27023SOL     OW85915   9.271   8.415   4.243  0.2933 -0.0126  0.5115
27023SOL    HW185916   9.180   8.391   4.228  0.2659 -0.0973  0.8113
27023SOL    HW285917   9.286   8.489   4.183  0.0265  0.0086  0.4694
27024SOL     OW85918   8.116   9.079   4.149  0.4930  0.5766  0.0027
27024SOL    HW185919   8.177   9.025   4.099  1.4117  0.3955  1.2638
27024SOL    HW285920   8.154   9.167   4.146  1.6241  0.2165  1.9167
27025SOL     OW85921   7.741   7.515   1.474 -0.4584  0.2709 -0.7307
27025SOL    HW185922   7.746   7.549   1.563 -3.7049  0.3966 -0.4653
27025SOL    HW285923   7.771   7.588   1.419 -0.0383  0.7908  0.1692
27026SOL     OW85924   8.408   8.968   1.012 -0.1972  0.1088  0.1237
27026SOL    HW185925   8.402   8.897   0.948  0.0894 -0.2838  0.5342
27026SOL    HW285926   8.486   9.018   0.984  0.3942 -0.5202  0.6250
27027SOL     OW85927   9.615   7.847   2.679 -0.1239  0.2584  0.6037
27027SOL    HW185928   9.702   7.873   2.711 -0.3244  1.2360  0.3794
27027SOL    HW285929   9.555   7.905   2.725 -0.5183  0.8384 -0.6252
27028SOL     OW85930   7.625   9.299   1.975 -0.0086 -0.2364 -0.1631
27028SOL    HW185931   7.611   9.393   1.959  0.2171 -0.3794 -1.2863
27028SOL    HW285932   7.551   9.273   2.029 -0.7849  0.3192 -0.9255
27029SOL     OW85933   1.723   7.446   0.737  0.3960 -0.0227 -1.3825
27029SOL    HW185934   1.767   7.370   0.700 -0.7532 -0.7002 -1.4158
27029SOL    HW285935   1.630   7.428   0.724  0.0891  1.2016 -1.0152
27030SOL     OW85936   6.047   8.016   2.145  0.0793  0.0526  0.4922
27030SOL    HW185937   6.133   8.051   2.121 -0.6576  0.7203 -1.3842
27030SOL    HW285938   6.015   8.075   2.213  0.4786  0.7053  0.1216
27031SOL     OW85939   7.787   6.418   3.223  0.2170 -0.2941 -0.6080
27031SOL    HW185940   7.783   6.411   3.319  0.4078 -0.5259 -0.6171
27031SOL    HW285941   7.832   6.339   3.195  0.2058 -0.2015 -0.8879
27032SOL     OW85942   0.210   7.418   5.281  0.2848  0.0289  0.7034
27032SOL    HW185943   0.246   7.349   5.224  0.3950  0.6156  0.0507
27032SOL    HW285944   0.118   7.423   5.257  0.4433  0.6340  0.2024
27033SOL     OW85945   7.820   8.100   3.561 -0.1194 -0.3322 -0.5851
27033SOL    HW185946   7.781   8.039   3.623 -0.7991 -0.7871 -1.4299
27033SOL    HW285947   7.910   8.111   3.590 -0.9867  1.2060  1.7693
27034SOL     OW85948   8.987   9.193   3.330  0.5246 -0.7111  0.5029
27034SOL    HW185949   9.074   9.226   3.310 -0.2487 -0.1760 -2.3882
27034SOL    HW285950   8.928   9.263   3.303 -0.8749 -1.6671  0.9704
27035SOL     OW85951   8.198   6.452   3.010  0.1798 -0.0931 -0.2126
27035SOL    HW185952   8.282   6.423   2.974 -0.4330 -0.5947 -1.3086
27035SOL    HW285953   8.203   6.547   3.009  1.3207 -0.1180  1.2029
27036SOL     OW85954   9.286   5.641   3.149 -0.3500 -0.1973 -0.2190
27036SOL    HW185955   9.339   5.688   3.085 -1.9824  1.5703 -0.3925
27036SOL    HW285956   9.285   5.551   3.119  1.0059  0.1041 -1.2298
27037SOL     OW85957   7.706   8.694   0.878 -0.3428  0.1185  0.3164
27037SOL    HW185958   7.626   8.744   0.886 -0.9961 -0.9009  0.3497
27037SOL    HW285959   7.767   8.753   0.834 -1.2424  0.7528 -0.1056
27038SOL     OW85960   6.754   4.876   2.227  0.3836  0.7631  0.4134
27038SOL    HW185961   6.746   4.967   2.201  2.3052  0.5800 -1.0667
27038SOL    HW285962   6.813   4.837   2.162 -0.7406 -1.6527  0.7245
27039SOL     OW85963   8.758   7.166   3.693 -0.2056  0.2847 -0.1263
27039SOL    HW185964   8.758   7.075   3.723  0.8323  0.0315 -0.8601
27039SOL    HW285965   8.850   7.187   3.680 -0.5249  0.7890 -1.8677
27040SOL     OW85966   6.051   8.603   5.211  0.3169  0.5450 -1.0910
27040SOL    HW185967   6.123   8.600   5.147  0.3687  0.0478 -1.0099
27040SOL    HW285968   6.042   8.696   5.231  0.0944  0.7454 -2.0526
27041SOL     OW85969   7.454   9.162   3.704  0.0646  0.0557 -0.3345
27041SOL    HW185970   7.466   9.213   3.624 -0.0466  0.7713  0.0947
27041SOL    HW285971   7.528   9.101   3.704  0.2451  0.2631 -0.8209
27042SOL     OW85972   0.140   1.690   2.625 -0.0372 -0.1429  0.4976
27042SOL    HW185973   0.048   1.700   2.601 -0.3896 -1.7820  1.0402
27042SOL    HW285974   0.139   1.678   2.720  0.7430 -0.0819  0.5147
27043SOL     OW85975   8.948   7.305   0.812 -0.3235 -0.0448 -0.8691
27043SOL    HW185976   9.025   7.327   0.759  1.1654  0.7131  1.4828
27043SOL    HW285977   8.974   7.226   0.859  0.1413  1.6299  1.9052
27044SOL     OW85978   9.070   8.144   3.873  0.5315  0.2735 -0.0133
27044SOL    HW185979   9.163   8.157   3.891  0.6076 -0.4869  0.1784
27044SOL    HW285980   9.044   8.075   3.934 -0.5391  1.5688  1.0673
27045SOL     OW85981   9.293   8.215   1.563 -0.5393 -0.1252  0.7214
27045SOL    HW185982   9.282   8.266   1.483 -2.3613 -0.1883  0.8807
27045SOL    HW285983   9.385   8.188   1.563 -0.0188  1.5319 -0.3302
27046SOL     OW85984   8.554   8.411   2.633  0.0594  0.4743  0.4363
27046SOL    HW185985   8.620   8.475   2.661  0.2817  1.5133 -2.1945
27046SOL    HW285986   8.603   8.345   2.584 -0.2074 -1.7011  2.8848
27047SOL     OW85987   8.518   8.186   9.845  0.3760  0.1723 -0.1405
27047SOL    HW185988   8.427   8.164   9.827  0.3342  0.7020 -0.5925
27047SOL    HW285989   8.521   8.281   9.845  0.6668  0.1830  1.2334
27048SOL     OW85990   7.211   7.358   1.552  0.2111  0.3622  0.1184
27048SOL    HW185991   7.225   7.383   1.460  0.4126  1.2469  0.3766
27048SOL    HW285992   7.294   7.379   1.595 -0.2684  1.0696  0.7218
27049SOL     OW85993   9.154   9.575   1.257  0.3986 -0.2559 -0.2926
27049SOL    HW185994   9.249   9.563   1.253  0.5203  0.2902  0.6732
27049SOL    HW285995   9.133   9.574   1.350 -0.3287  1.1437 -0.4069
27050SOL     OW85996   8.410   9.628   0.288  0.4977  0.5836 -0.4762
27050SOL    HW185997   8.443   9.708   0.245 -1.5865  0.7540 -1.8862
27050SOL    HW285998   8.347   9.660   0.352  0.7995  0.1136  0.0646
27051SOL     OW85999   6.957   8.433   1.887  0.0089  0.1367 -0.2519
27051SOL    HW186000   6.984   8.509   1.835 -0.4070 -0.4664 -1.3930
27051SOL    HW286001   6.997   8.447   1.973 -0.3208  1.8013 -0.3271
27052SOL     OW86002   9.129   7.986   1.443 -0.1997  0.0231 -0.3148
27052SOL    HW186003   9.169   8.013   1.525  1.9454  0.5144 -1.4592
27052SOL    HW286004   9.111   7.893   1.454  1.1205 -0.1741  0.3282
27053SOL     OW86005   0.652   8.187   4.137 -0.1638  0.0622  0.1723
27053SOL    HW186006   0.622   8.273   4.108  0.1127 -0.1986 -0.9561
27053SOL    HW286007   0.586   8.157   4.199 -0.0942  1.2259  0.8176
27054SOL     OW86008   7.869   9.284   3.720  0.0439 -0.0769 -0.0088
27054SOL    HW186009   7.832   9.244   3.799 -1.8671  2.0648  0.2807
27054SOL    HW286010   7.928   9.351   3.751  0.8347 -0.5483 -0.4554
27055SOL     OW86011   8.449   8.874   1.862 -0.0374  0.6023  0.3811
27055SOL    HW186012   8.445   8.878   1.766  0.4261 -1.3463  0.2429
27055SOL    HW286013   8.361   8.850   1.889 -0.0871  0.8416  0.4365
27056SOL     OW86014   9.496   7.206   2.424 -0.5441  0.2188  0.4058
27056SOL    HW186015   9.554   7.270   2.383 -0.5762  0.9959  1.5245
27056SOL    HW286016   9.555   7.142   2.463 -0.4984 -0.1528 -0.2695
27057SOL     OW86017   6.941   5.958   3.015 -0.2450 -0.6534 -0.7270
27057SOL    HW186018   6.985   6.043   3.025 -1.3588 -0.0947 -0.4619
27057SOL    HW286019   7.013   5.896   3.002  0.7660 -0.0367  1.4365
27058SOL     OW86020   8.447   9.446   1.400  0.1995  0.5553  0.5114
27058SOL    HW186021   8.486   9.508   1.338 -0.0182 -0.4830 -0.7070
27058SOL    HW286022   8.450   9.491   1.484  0.7716  1.8956 -0.1965
27059SOL     OW86023   9.030   6.933   5.058 -0.0741  0.2158  0.1462
27059SOL    HW186024   9.076   6.974   4.985  0.2659 -1.1791 -0.4641
27059SOL    HW286025   8.938   6.955   5.043 -0.1787 -1.1213 -1.4880
27060SOL     OW86026   0.181   9.161   2.080  0.0469  0.3908 -0.0071
27060SOL    HW186027   0.243   9.089   2.091 -1.1466 -0.5546  0.8840
27060SOL    HW286028   0.143   9.147   1.993 -0.4928 -0.3276  0.3379
27061SOL     OW86029   8.367   9.249   3.244 -0.0861 -0.2951 -0.1979
27061SOL    HW186030   8.381   9.336   3.206 -2.1302  0.2931  0.2970
27061SOL    HW286031   8.312   9.204   3.180  1.3522 -1.4565 -0.6847
27062SOL     OW86032   8.396   8.653   2.776  0.3274  0.1779 -0.1508
27062SOL    HW186033   8.486   8.620   2.769  0.5132  0.6023  0.2294
27062SOL    HW286034   8.365   8.655   2.685 -0.1684 -2.3262 -0.1187
27063SOL     OW86035   9.295   6.474   1.895  0.4867  0.2976  0.3904
27063SOL    HW186036   9.270   6.464   1.804 -0.6676  0.4996  0.6748
27063SOL    HW286037   9.237   6.542   1.929  0.2774 -0.4086  1.5045
27064SOL     OW86038   9.145   6.923   1.667 -0.3056  0.3469  0.3214
27064SOL    HW186039   9.095   6.874   1.732 -2.1207  2.6491  0.8126
27064SOL    HW286040   9.235   6.922   1.700 -1.0180  0.6573  2.3999
27065SOL     OW86041   8.010   9.527   2.152 -0.3777  0.1530  0.0826
27065SOL    HW186042   7.972   9.456   2.205 -1.8715  1.3263  0.6780
27065SOL    HW286043   7.934   9.570   2.113  0.5881  0.5914 -1.3703
27066SOL     OW86044   7.688   8.727   3.000 -0.2941 -0.4526  0.1985
27066SOL    HW186045   7.715   8.737   2.908 -0.0630 -0.8441  0.2239
27066SOL    HW286046   7.669   8.634   3.009 -1.4603 -0.2199  0.2377
27067SOL     OW86047   8.094   8.265   5.210 -0.0862 -0.0593 -0.1491
27067SOL    HW186048   8.125   8.334   5.268  0.4194 -1.5039  1.3688
27067SOL    HW286049   8.160   8.260   5.141  0.0630  0.6837 -0.0722
27068SOL     OW86050   6.205   8.436   2.942 -0.4610  0.7592 -0.2662
27068SOL    HW186051   6.121   8.427   2.896 -0.7675  1.6775  0.0893
27068SOL    HW286052   6.192   8.510   3.001  0.5534  0.8048 -0.0860
27069SOL     OW86053   6.998   8.606   1.491 -0.0449  0.1236 -0.0167
27069SOL    HW186054   7.008   8.576   1.581 -3.1479 -0.6354  0.2041
27069SOL    HW286055   7.034   8.694   1.490  1.1663 -0.3115  1.6083
27070SOL     OW86056   9.337   7.202   1.672  0.1910  0.1587 -0.0436
27070SOL    HW186057   9.430   7.218   1.661  0.6197 -0.1276  2.4966
27070SOL    HW286058   9.328   7.107   1.671 -0.1056  0.1861 -0.3685
27071SOL     OW86059   7.562   6.854   5.138 -0.4870 -0.0254  0.2608
27071SOL    HW186060   7.613   6.929   5.107 -1.5685  1.2874  1.5483
27071SOL    HW286061   7.475   6.889   5.156 -0.7119 -1.3265  1.9620
27072SOL     OW86062   8.733   8.837   3.029 -0.3041  0.2233 -0.0064
27072SOL    HW186063   8.765   8.903   2.967  0.1646 -0.3603 -0.4099
27072SOL    HW286064   8.796   8.839   3.101 -1.5791  1.8413  1.1491
27073SOL     OW86065   0.016   7.837   3.007 -0.5592 -0.1631  0.1127
27073SOL    HW186066   0.078   7.909   3.019 -1.8285  1.1841 -0.9325
27073SOL    HW286067  -0.067   7.872   3.042 -1.9292  0.1060 -3.0847
27074SOL     OW86068   9.544   8.207   1.692  0.2833 -1.5845  0.5020
27074SOL    HW186069   9.473   8.219   1.755 -0.3900 -0.4220 -0.4476
27074SOL    HW286070   9.608   8.153   1.739 -0.8870 -2.0574  1.6274
27075SOL     OW86071   8.649   8.178   2.058  0.0915 -0.1997  0.5549
27075SOL    HW186072   8.574   8.129   2.090  0.6745 -1.0148  0.6931
27075SOL    HW286073   8.716   8.168   2.125 -0.5542  2.8987  1.8607
27076SOL     OW86074   8.102   0.016   2.976 -0.2096 -0.3545  0.0725
27076SOL    HW186075   8.068   0.096   3.016 -1.4111 -1.2402  0.8805
27076SOL    HW286076   8.195   0.015   3.000 -0.4181  0.2728  0.9441
27077SOL     OW86077   0.335   8.199   2.890 -0.0580 -0.0044  0.4913
27077SOL    HW186078   0.274   8.245   2.833 -0.6809  0.7543  1.7309
27077SOL    HW286079   0.417   8.248   2.884  0.0999 -0.3520 -0.2884
27078SOL     OW86080   8.549   6.210   3.167  0.3370  0.3022  0.2438
27078SOL    HW186081   8.600   6.156   3.227 -0.1507 -0.5159 -0.0422
27078SOL    HW286082   8.493   6.263   3.223 -0.8835 -1.2214  0.5387
27079SOL     OW86083   7.945   8.166   3.916  0.3255  0.0195  0.0327
27079SOL    HW186084   7.888   8.218   3.859 -1.1052  0.2137  1.5962
27079SOL    HW286085   8.018   8.224   3.936  0.6823  0.0691 -1.2591
27080SOL     OW86086   8.651   8.259   5.426 -0.0454  0.0589 -0.2375
27080SOL    HW186087   8.746   8.263   5.414 -0.2737 -0.2023 -2.5992
27080SOL    HW286088   8.635   8.174   5.468  0.7340 -0.0417 -0.1292
27081SOL     OW86089   9.549   9.002   1.721  0.1122 -0.1297 -0.3387
27081SOL    HW186090   9.459   9.008   1.692  0.1665  0.5624 -0.3793
27081SOL    HW286091   9.598   8.973   1.644  0.2371  1.5644 -0.9317
27082SOL     OW86092   0.382   8.020   1.400  0.3015 -0.0474  0.2129
27082SOL    HW186093   0.398   7.939   1.353 -0.7542 -0.2567  0.1922
27082SOL    HW286094   0.296   8.008   1.441 -0.3968  1.4814 -0.7275
27083SOL     OW86095   6.861   8.701   7.045  0.0619  0.3355 -0.0434
27083SOL    HW186096   6.782   8.731   7.089 -0.2300  1.3079 -1.2032
27083SOL    HW286097   6.874   8.762   6.973 -0.4212 -2.1282 -2.3823
27084SOL     OW86098   8.167   6.301   1.470 -0.4075 -0.2290  0.2736
27084SOL    HW186099   8.091   6.287   1.527 -1.9753 -0.4456 -1.7579
27084SOL    HW286100   8.240   6.317   1.531 -2.3580  1.6548  2.3100
27085SOL     OW86101   9.145   8.423   4.894  0.3835  0.1109 -0.1532
27085SOL    HW186102   9.144   8.513   4.863 -1.9355  0.3245  0.3919
27085SOL    HW286103   9.155   8.430   4.989 -0.8903 -0.1031  0.0205
27086SOL     OW86104   8.070   7.480   1.440 -0.4571  0.2210 -0.3468
27086SOL    HW186105   7.994   7.447   1.488  0.0918  0.3148  0.6161
27086SOL    HW286106   8.076   7.572   1.466  0.2717  0.0849 -0.0258
27087SOL     OW86107   0.039   9.389   9.602  0.1708 -0.0062 -0.1003
27087SOL    HW186108   0.085   9.398   9.685 -0.1842  1.5373 -0.0441
27087SOL    HW286109   0.108   9.369   9.538  0.2242 -3.3807  0.8251
27088SOL     OW86110   7.326   0.282   2.679  0.5365 -0.1169 -0.6068
27088SOL    HW186111   7.342   0.294   2.772  1.2414  2.2787 -0.9739
27088SOL    HW286112   7.363   0.196   2.659  0.6097 -0.5600  1.2316
27089SOL     OW86113   8.347   8.684   3.685  0.0781  0.4561 -0.0257
27089SOL    HW186114   8.335   8.614   3.621 -1.3239  0.2691  0.4017
27089SOL    HW286115   8.260   8.698   3.722  0.5264  1.7524  0.6094
27090SOL     OW86116   8.856   0.267   3.671 -0.4936  0.3844  0.3339
27090SOL    HW186117   8.902   0.277   3.588 -2.2796  2.4921 -0.5100
27090SOL    HW286118   8.911   0.312   3.735  0.3527 -0.2737  0.0821
27091SOL     OW86119   9.687   6.815   3.172 -0.3969  0.0780  0.1594
27091SOL    HW186120   9.755   6.817   3.105  0.9719  1.4499  1.5233
27091SOL    HW286121   9.626   6.884   3.147 -0.6020 -0.2854 -0.3579
27092SOL     OW86122   9.280   8.526   1.454 -0.0573  0.3796 -0.3087
27092SOL    HW186123   9.290   8.587   1.527 -1.3349 -0.3315  0.5081
27092SOL    HW286124   9.359   8.472   1.458 -0.2126  0.1966  0.7077
27093SOL     OW86125   6.974   9.182   3.218  0.2846 -0.1348 -0.5256
27093SOL    HW186126   6.978   9.090   3.242 -1.0640  0.0695  0.6394
27093SOL    HW286127   7.035   9.225   3.279 -0.8358 -0.0012  0.5485
27094SOL     OW86128   5.920   8.811   2.233 -0.5160  0.4726  0.1495
27094SOL    HW186129   5.913   8.722   2.266 -1.3489 -0.1167 -1.4813
27094SOL    HW286130   5.839   8.854   2.261 -0.7964  0.2501 -0.2966
27095SOL     OW86131   7.973   8.914   3.477 -0.1930  0.1070 -0.2268
27095SOL    HW186132   8.064   8.907   3.507 -0.3709 -1.8347  0.0016
27095SOL    HW286133   7.974   8.875   3.389 -0.6278  1.1199 -0.7086
27096SOL     OW86134   6.969   8.104   1.625  0.2910  0.5165 -0.6704
27096SOL    HW186135   6.912   8.153   1.684  0.1112 -2.5694  1.9722
27096SOL    HW286136   7.039   8.166   1.602  0.3725  1.9584  2.8551
27097SOL     OW86137   7.888   8.850   2.781 -0.3642  0.0573 -0.4362
27097SOL    HW186138   7.895   8.783   2.713 -0.3858  0.0709 -0.4515
27097SOL    HW286139   7.906   8.932   2.736  2.6789 -0.1879  0.1334
27098SOL     OW86140   9.315   8.483   3.100 -0.1896  0.0694 -0.1617
27098SOL    HW186141   9.343   8.511   3.012 -0.2721  0.5541 -0.0372
27098SOL    HW286142   9.355   8.397   3.112 -0.9654 -0.4381 -1.0621
27099SOL     OW86143   9.344   9.761   2.833  0.3066 -0.0391  0.0512
27099SOL    HW186144   9.390   9.776   2.750 -1.6385  1.8151 -0.7736
27099SOL    HW286145   9.252   9.776   2.812 -0.2065  0.8827  2.6394
27100SOL     OW86146   7.713   8.922   4.224  0.3548  0.2774  0.8589
27100SOL    HW186147   7.661   8.921   4.143  1.4953 -1.3251  0.0895
27100SOL    HW286148   7.655   8.882   4.289 -1.0232  2.6444  1.2210
27101SOL     OW86149   0.140   8.331   1.288  0.2397 -0.2765  0.3933
27101SOL    HW186150   0.113   8.270   1.219  0.0313 -0.8480  0.9724
27101SOL    HW286151   0.236   8.328   1.287  0.2241 -1.0202  0.7713
27102SOL     OW86152   9.631   7.975   3.019  0.2178 -0.4033  0.5482
27102SOL    HW186153   9.585   8.009   2.942  2.3654  1.2364 -0.1115
27102SOL    HW286154   9.569   7.986   3.091 -0.5098  1.5317 -0.3011
27103SOL     OW86155   8.654   8.147   2.638  0.5217 -0.3851 -0.4724
27103SOL    HW186156   8.649   8.076   2.574  0.2800  0.6180 -1.5992
27103SOL    HW286157   8.615   8.111   2.718 -0.5953 -1.1677 -1.3524
27104SOL     OW86158   0.349   8.924   1.309  0.2457  0.2878 -0.1517
27104SOL    HW186159   0.427   8.968   1.342  2.1205 -2.4005 -0.7290
27104SOL    HW286160   0.372   8.900   1.219 -1.5627  0.0703 -0.5880
27105SOL     OW86161   8.909   8.180   4.362 -0.3357  0.3895  0.4871
27105SOL    HW186162   8.893   8.126   4.285 -1.3452  0.8585  0.3567
27105SOL    HW286163   8.844   8.151   4.426 -0.4510  0.9884  0.6489
27106SOL     OW86164   9.814   7.950   1.334 -0.4234 -0.4507  0.0694
27106SOL    HW186165   9.880   7.880   1.330  0.7625  0.6946 -1.0114
27106SOL    HW286166   9.761   7.937   1.255  1.4752  1.4175 -1.6137
27107SOL     OW86167   7.103   8.340   1.648  0.4215 -0.1625  0.5042
27107SOL    HW186168   7.199   8.336   1.641  0.3929 -2.7147  0.5657
27107SOL    HW286169   7.088   8.393   1.726  1.7926  0.1763  0.5754
27108SOL     OW86170   6.627   1.027   2.618  0.1649 -0.5418 -0.6958
27108SOL    HW186171   6.720   1.047   2.628  0.3731 -1.4062 -0.7831
27108SOL    HW286172   6.582   1.109   2.638  0.8283 -0.6594  1.5735
27109SOL     OW86173   8.832   5.664   0.370 -1.1269 -0.2128 -0.5856
27109SOL    HW186174   8.920   5.629   0.358 -1.4089 -1.1939  0.0605
27109SOL    HW286175   8.797   5.673   0.281 -0.8665 -1.1308 -0.7854
27110SOL     OW86176   7.245   8.181   4.230 -0.2694 -0.2590  0.0893
27110SOL    HW186177   7.227   8.194   4.137  0.4735  0.9059  0.0864
27110SOL    HW286178   7.304   8.106   4.233  1.1917  0.8166 -0.5648
27111SOL     OW86179   8.352   7.535   1.111  0.3035 -0.2139 -0.5346
27111SOL    HW186180   8.291   7.606   1.089  0.7497  0.3145 -0.1108
27111SOL    HW286181   8.401   7.520   1.031  1.0563  0.8270 -0.2955
27112SOL     OW86182   8.141   9.359   4.095 -0.3828  0.5130 -0.6188
27112SOL    HW186183   8.147   9.409   4.013 -0.2765  0.8936 -0.3795
27112SOL    HW286184   8.050   9.369   4.122 -0.2778  0.8710 -0.3888
27113SOL     OW86185   9.119   7.812   1.961  0.7533  0.3485 -0.0408
27113SOL    HW186186   9.044   7.753   1.954  0.7594  0.2538  0.6163
27113SOL    HW286187   9.146   7.828   1.870 -1.8871  2.7541 -0.5352
27114SOL     OW86188   9.592   6.853   1.495 -0.6578  0.0344  0.2106
27114SOL    HW186189   9.687   6.858   1.508 -0.8776  1.5393  1.5173
27114SOL    HW286190   9.562   6.943   1.503 -2.3409 -0.5526  0.9378
27115SOL     OW86191   8.158   8.328   3.124  0.1903  0.3453  0.0375
27115SOL    HW186192   8.161   8.416   3.164  0.8978  0.3996 -0.1230
27115SOL    HW286193   8.172   8.268   3.198 -3.7194  0.1170  0.8213
27116SOL     OW86194   8.559   9.511   4.375  0.1954 -0.2879 -0.1921
27116SOL    HW186195   8.494   9.446   4.348  0.3204 -0.8766  0.8622
27116SOL    HW286196   8.642   9.463   4.375  0.3132 -0.0946  0.4498
27117SOL     OW86197   8.754   4.769   2.805 -0.0564 -0.4852 -0.7403
27117SOL    HW186198   8.757   4.683   2.847  0.1748  0.5244  1.4471
27117SOL    HW286199   8.679   4.812   2.847  1.1568  1.1436 -0.1835
27118SOL     OW86200   8.476   7.920   0.660 -0.2795  0.1301  0.7210
27118SOL    HW186201   8.416   7.892   0.591  0.5485 -0.3690  0.1908
27118SOL    HW286202   8.473   8.016   0.658  1.7852  0.2631 -1.9054
27119SOL     OW86203   4.626   6.789   4.503  0.0148 -0.5633  0.1372
27119SOL    HW186204   4.590   6.765   4.588 -1.7642  0.1975 -0.3496
27119SOL    HW286205   4.694   6.854   4.522 -0.8504  0.1254  0.9476
27120SOL     OW86206   7.573   7.913   5.548 -0.1140 -0.2178 -0.7419
27120SOL    HW186207   7.591   7.911   5.642  1.0473  1.6143 -0.8849
27120SOL    HW286208   7.551   8.005   5.530 -1.7210 -0.8060 -2.0463
27121SOL     OW86209   6.980   7.986   3.436 -0.8148 -0.2267  0.3993
27121SOL    HW186210   6.950   8.059   3.383 -2.0617 -0.0774  1.2754
27121SOL    HW286211   7.027   8.027   3.509 -1.2206 -0.3187  0.7125
27122SOL     OW86212   8.953   8.278   3.649  0.7497 -0.1031 -0.7583
27122SOL    HW186213   8.984   8.248   3.564  0.0425 -0.3004 -0.9562
27122SOL    HW286214   8.916   8.200   3.690  2.0915 -0.2529  0.2013
27123SOL     OW86215   7.878   6.702   1.335  0.5798 -0.1963 -0.0350
27123SOL    HW186216   7.936   6.661   1.271 -1.6399 -0.6056 -1.8954
27123SOL    HW286217   7.906   6.665   1.419  1.5927 -2.0198 -1.1041
27124SOL     OW86218   7.697   7.783   9.144  0.1079 -0.0705  0.2754
27124SOL    HW186219   7.612   7.823   9.123  0.1264 -0.6727 -1.0516
27124SOL    HW286220   7.756   7.818   9.078  1.0899  0.8953  1.6128
27125SOL     OW86221   7.500   8.036   4.670 -0.2637 -0.1625 -0.2832
27125SOL    HW186222   7.571   8.074   4.617 -1.0533 -0.4304 -1.5836
27125SOL    HW286223   7.428   8.098   4.661 -0.8921 -0.9459 -0.7441
27126SOL     OW86224   6.785   9.325   2.506  0.0098  0.3828 -0.6398
27126SOL    HW186225   6.732   9.369   2.572  1.0832  1.0317 -0.1971
27126SOL    HW286226   6.824   9.395   2.454  0.8239 -0.0687 -0.6564
27127SOL     OW86227   9.321   8.663   3.770  0.2123 -0.1347  0.3055
27127SOL    HW186228   9.360   8.746   3.744  0.7833 -0.4776  0.0469
27127SOL    HW286229   9.228   8.683   3.782  0.5453  0.8182  1.4559
27128SOL     OW86230   9.127   8.205   3.209  0.0981  0.4765 -0.1522
27128SOL    HW186231   9.093   8.230   3.124 -1.4980 -1.0814 -0.0259
27128SOL    HW286232   9.173   8.122   3.193  0.2341  0.4367  0.4218
27129SOL     OW86233   7.151   8.368   0.484 -0.1414 -0.1450  0.6287
27129SOL    HW186234   7.216   8.429   0.519  0.3826  1.8685 -3.2299
27129SOL    HW286235   7.069   8.391   0.527  0.5478  1.6676  1.0360
27130SOL     OW86236   8.544   8.453   4.107 -0.0729 -0.2936  0.6742
27130SOL    HW186237   8.580   8.371   4.139 -0.6831 -0.5307  0.7518
27130SOL    HW286238   8.564   8.453   4.014  0.4925 -0.2324  0.7937
27131SOL     OW86239   0.022   8.147   2.618  0.6555 -0.0636  0.3836
27131SOL    HW186240  -0.002   8.176   2.706  1.6785 -0.4287  0.7958
27131SOL    HW286241   0.053   8.058   2.629 -1.1111 -0.8665 -0.6707
27132SOL     OW86242   9.126   5.990   4.547  0.3670 -0.1172  0.2528
27132SOL    HW186243   9.215   6.020   4.563  0.1063  0.6197  0.3575
27132SOL    HW286244   9.080   6.067   4.515 -0.2183 -0.5091  0.1279
27133SOL     OW86245   8.801   8.508   1.919 -0.6288 -0.1890  0.5569
27133SOL    HW186246   8.822   8.594   1.955 -0.5982 -0.7759  1.9851
27133SOL    HW286247   8.706   8.511   1.903 -0.3499  0.7431 -1.2371
27134SOL     OW86248   8.603   6.473   1.121 -0.1734 -0.1831 -0.1905
27134SOL    HW186249   8.574   6.492   1.210 -0.0538 -0.2580 -0.1339
27134SOL    HW286250   8.531   6.423   1.083 -0.8130  1.0134 -0.5932
27135SOL     OW86251   7.073   7.130   3.013  0.6191 -0.2601  0.0860
27135SOL    HW186252   7.090   7.056   3.071 -2.2023 -0.8293  0.3101
27135SOL    HW286253   7.160   7.156   2.982  1.8531 -2.5069  1.3770
27136SOL     OW86254   9.174   8.981   2.460  0.2454 -0.1501  0.6300
27136SOL    HW186255   9.211   8.956   2.375  1.1498  1.5009  0.5081
27136SOL    HW286256   9.248   8.972   2.521  0.0054  0.1647  0.9642
27137SOL     OW86257   8.143   8.607   4.186 -0.2207 -0.0750 -0.3696
27137SOL    HW186258   8.089   8.583   4.262 -2.4562 -1.0207 -2.1213
27137SOL    HW286259   8.093   8.677   4.143  0.5443 -0.1782 -1.4504
27138SOL     OW86260   8.453   9.385   0.400 -0.2762 -0.0699 -0.4281
27138SOL    HW186261   8.548   9.386   0.414 -0.5080  0.0271  1.3835
27138SOL    HW286262   8.435   9.467   0.355  0.7119 -1.0503 -2.8340
27139SOL     OW86263   7.817   9.076   5.800 -0.2232 -0.9321 -0.8346
27139SOL    HW186264   7.900   9.035   5.825 -0.4653 -0.7018  0.4103
27139SOL    HW286265   7.841   9.168   5.783 -0.4145 -0.5477  0.8231
27140SOL     OW86266   7.752   7.892   1.632 -0.0190 -0.0247 -0.2024
27140SOL    HW186267   7.674   7.849   1.597  0.0177 -1.3621  1.2741
27140SOL    HW286268   7.820   7.825   1.631  0.1699  0.0741  1.6945
27141SOL     OW86269   8.265   0.284   3.997 -0.9019 -0.3450 -0.4547
27141SOL    HW186270   8.188   0.321   4.041 -0.9831 -0.9830 -0.0369
27141SOL    HW286271   8.266   0.192   4.025  0.4726 -0.1533  0.1813
27142SOL     OW86272   8.873   6.302   0.414  0.3294  0.7498  0.3412
27142SOL    HW186273   8.793   6.295   0.466 -1.1290  2.9230 -1.4186
27142SOL    HW286274   8.944   6.285   0.477 -1.4355 -2.8504  1.6280
27143SOL     OW86275   0.569   6.955   4.549  0.2391 -0.3115 -0.5510
27143SOL    HW186276   0.558   7.041   4.508 -0.6728 -0.4224 -0.5441
27143SOL    HW286277   0.635   6.970   4.617  0.5045  0.2513 -0.9211
27144SOL     OW86278   7.980   5.861   1.481 -0.0308 -0.0481  0.3146
27144SOL    HW186279   8.034   5.783   1.473  0.0929  0.0279  0.4024
27144SOL    HW286280   7.991   5.889   1.572  0.0494  0.1584  0.2442
27145SOL     OW86281   7.599   8.469   1.901 -0.5286  0.3126  0.0067
27145SOL    HW186282   7.610   8.546   1.958 -1.0038  1.6219 -1.6099
27145SOL    HW286283   7.674   8.472   1.842 -0.9708 -0.0163 -0.5767
27146SOL     OW86284   6.990   0.372   2.700 -0.1242 -0.4260 -0.3080
27146SOL    HW186285   6.912   0.422   2.723  1.5569  1.7644  0.9843
27146SOL    HW286286   7.007   0.318   2.777  0.8555  0.7753  0.3471
27147SOL     OW86287   7.026   4.588   1.552 -0.4375  0.0842  0.1781
27147SOL    HW186288   7.067   4.537   1.483 -0.5605  1.9618 -1.3714
27147SOL    HW286289   7.097   4.640   1.589 -0.8246  1.0336 -0.3758
27148SOL     OW86290   8.797   7.814   2.103 -0.1376 -0.5655 -0.0067
27148SOL    HW186291   8.812   7.732   2.056 -0.1805 -1.4949  1.5375
27148SOL    HW286292   8.796   7.789   2.195 -0.1312  1.1849  0.5042
27149SOL     OW86293   8.921   8.195   0.782 -0.2974 -0.0560  0.2900
27149SOL    HW186294   8.942   8.146   0.702 -0.3188 -0.8830  0.7824
27149SOL    HW286295   8.988   8.264   0.786 -1.7096  1.5731 -1.7294
27150SOL     OW86296   6.396   0.762   1.053  0.4196  0.0000  0.0301
27150SOL    HW186297   6.323   0.799   1.004 -0.0306 -0.1403  0.5895
27150SOL    HW286298   6.414   0.827   1.121  0.3541 -0.2918  0.3262
27151SOL     OW86299   7.733   8.472   3.539  0.3464  0.8695  0.8398
27151SOL    HW186300   7.653   8.444   3.495  1.0518  0.3022 -0.1186
27151SOL    HW286301   7.719   8.565   3.559  0.4716  1.5136 -1.7380
27152SOL     OW86302   5.403   7.990   4.732 -0.1686 -0.1069 -0.3633
27152SOL    HW186303   5.481   7.982   4.677 -1.1537  0.1571 -1.8453
27152SOL    HW286304   5.341   8.040   4.679 -1.5798 -0.8296  0.5369
27153SOL     OW86305   7.276   7.416   3.687  0.1353 -0.3807 -0.0808
27153SOL    HW186306   7.345   7.370   3.734 -0.3524 -0.7958  0.2384
27153SOL    HW286307   7.217   7.449   3.755  1.0346  1.6912 -0.2141
27154SOL     OW86308   7.071   8.552   3.936  0.4108  0.0485 -0.2854
27154SOL    HW186309   7.015   8.487   3.893 -0.6384 -0.1993  1.3632
27154SOL    HW286310   7.076   8.624   3.874 -0.5512 -0.5454 -1.0824
27155SOL     OW86311   1.682   9.760   6.424  0.0222 -0.6618 -0.1605
27155SOL    HW186312   1.610   9.776   6.486 -0.3991 -1.4531 -0.4331
27155SOL    HW286313   1.721   9.678   6.452  1.3498  0.1425  0.4563
27156SOL     OW86314   8.927   7.427   5.110 -0.6418 -0.2415  0.4475
27156SOL    HW186315   9.016   7.410   5.079 -0.1021  3.6325 -0.6909
27156SOL    HW286316   8.872   7.415   5.033 -0.8438 -0.6943  0.6570
27157SOL     OW86317   8.597   9.588   3.310 -0.3334 -0.9111 -0.3858
27157SOL    HW186318   8.584   9.575   3.404  2.2695  0.8197  0.3367
27157SOL    HW286319   8.579   9.681   3.295 -0.0233 -0.9960 -1.4317
27158SOL     OW86320   0.778   5.180   6.055  0.3582 -0.5499 -0.1443
27158SOL    HW186321   0.697   5.131   6.070  0.2597 -1.1194 -2.1772
27158SOL    HW286322   0.751   5.272   6.061 -0.3445 -0.7327 -0.3392
27159SOL     OW86323   6.503   8.935   4.266 -0.0396 -0.1073 -0.1138
27159SOL    HW186324   6.522   8.975   4.351 -0.5994  2.3726 -1.0952
27159SOL    HW286325   6.410   8.952   4.251 -0.2968 -1.7574 -0.6413
27160SOL     OW86326   8.427   6.502   5.718 -0.2819  0.5485 -0.1421
27160SOL    HW186327   8.512   6.514   5.760 -0.5801 -0.2492  0.7419
27160SOL    HW286328   8.447   6.457   5.636  0.1403  0.0933  0.1992
27161SOL     OW86329   7.916   0.160   4.615 -0.7494 -0.6490 -0.4648
27161SOL    HW186330   7.954   0.242   4.583 -0.5232  0.0951  1.6142
27161SOL    HW286331   7.822   0.169   4.597 -0.6519 -0.1973 -0.7730
27162SOL     OW86332   6.859   7.872   4.923 -0.2187  0.4466 -0.4985
27162SOL    HW186333   6.835   7.962   4.902  0.4800  0.4831 -1.2000
27162SOL    HW286334   6.783   7.836   4.968  0.2064  1.9921  1.6179
27163SOL     OW86335   4.421   5.075   3.614  0.6094 -0.0460  0.3509
27163SOL    HW186336   4.465   4.989   3.622  1.6316  0.2932 -1.1815
27163SOL    HW286337   4.445   5.121   3.694 -0.5009 -1.3961  1.5207
27164SOL     OW86338   6.055   1.072   4.090 -0.4645 -0.4770  0.3826
27164SOL    HW186339   6.081   1.162   4.071  0.9971 -0.7536  0.9590
27164SOL    HW286340   6.088   1.021   4.016 -1.1352 -0.5748  0.1432
27165SOL     OW86341   8.905   7.460   5.427  0.1325 -1.2605 -0.1393
27165SOL    HW186342   8.919   7.380   5.377  1.3295 -0.8526 -0.4951
27165SOL    HW286343   8.839   7.437   5.492  0.9230 -2.7227  0.1805
27166SOL     OW86344   6.473   7.062   3.029 -0.0416  0.1383 -0.2446
27166SOL    HW186345   6.547   7.047   2.971  1.1140  0.3745  1.1214
27166SOL    HW286346   6.416   6.986   3.015  0.7519 -0.3544 -0.8765
27167SOL     OW86347   7.988   9.496   4.947  0.2438 -0.2697  0.5381
27167SOL    HW186348   7.989   9.524   4.855 -0.9170 -3.2474 -0.4977
27167SOL    HW286349   8.080   9.484   4.969  0.7782  3.2456  0.8289
27168SOL     OW86350   9.640   7.686   3.927  0.3249 -0.1589  0.2057
27168SOL    HW186351   9.705   7.738   3.879  1.3943 -0.3668  1.3580
27168SOL    HW286352   9.556   7.714   3.893  0.9941  0.6777 -0.8029
27169SOL     OW86353   6.733   6.605   3.640  0.0229 -0.5296  0.2224
27169SOL    HW186354   6.665   6.543   3.666 -0.2673 -1.4471 -2.3513
27169SOL    HW286355   6.800   6.550   3.599  0.6145  0.6825 -0.4880
27170SOL     OW86356   7.025   7.019   5.237 -0.0663  0.3832  0.7781
27170SOL    HW186357   6.980   6.965   5.302 -1.7445  1.6520  0.7404
27170SOL    HW286358   6.984   7.105   5.245 -0.3543  0.6045 -1.9308
27171SOL     OW86359   7.138   9.169   3.477 -0.1612  0.4906  0.4439
27171SOL    HW186360   7.222   9.198   3.443  0.3817  1.4801  2.4596
27171SOL    HW286361   7.090   9.250   3.494 -0.3319  0.0940  2.0770
27172SOL     OW86362   9.675   9.743   4.203 -0.0292  0.7748  0.0175
27172SOL    HW186363   9.669   9.825   4.253 -0.7792  1.0039 -0.4281
27172SOL    HW286364   9.584   9.715   4.192  0.1672  0.3762 -0.6380
27173SOL     OW86365   7.917   7.436   3.956  0.6868 -0.0603  0.5473
27173SOL    HW186366   7.958   7.450   4.041 -0.2969  0.2537  0.9767
27173SOL    HW286367   7.969   7.488   3.895  1.2741 -0.1294  0.9863
27174SOL     OW86368   8.347   7.590   3.736  0.2106  0.0806  0.0426
27174SOL    HW186369   8.363   7.512   3.790 -1.5437  0.0348  0.5335
27174SOL    HW286370   8.312   7.655   3.796  1.0331  1.0670 -0.4991
27175SOL     OW86371   9.653   9.260   2.695 -0.9359 -0.2864 -0.1026
27175SOL    HW186372   9.629   9.171   2.723 -1.6382  0.1049  0.5509
27175SOL    HW286373   9.611   9.269   2.609 -2.2741 -0.0024  0.5555
27176SOL     OW86374   6.648   5.754   4.686 -0.6930  0.3747 -0.1489
27176SOL    HW186375   6.621   5.718   4.770 -1.3603  0.3378 -0.3725
27176SOL    HW286376   6.731   5.710   4.667  0.1631  1.3753  1.1172
27177SOL     OW86377   7.947   8.115   4.483 -0.4107  0.0053  0.5865
27177SOL    HW186378   8.014   8.184   4.481 -0.5974  0.2942  2.5570
27177SOL    HW286379   7.869   8.158   4.518 -0.8932 -0.9211  0.6797
27178SOL     OW86380   8.961   8.299   1.809  0.1489 -0.1939 -0.2043
27178SOL    HW186381   8.887   8.347   1.845  0.0899 -0.5892  0.2075
27178SOL    HW286382   8.925   8.250   1.735 -0.0208 -0.4747  0.0672
27179SOL     OW86383   5.674   7.824   4.494  0.0717 -0.5267 -0.4203
27179SOL    HW186384   5.632   7.910   4.493  0.2556 -0.4440 -1.5223
27179SOL    HW286385   5.764   7.841   4.522 -0.2241 -0.5307  0.5803
27180SOL     OW86386   7.808   7.861   4.479 -0.3051  0.3027 -0.1398
27180SOL    HW186387   7.897   7.826   4.489  0.1370  1.0600 -1.1547
27180SOL    HW286388   7.820   7.956   4.485 -0.9875  0.4306 -0.7338
27181SOL     OW86389   7.251   0.597   4.231  0.0408  0.3623 -0.5453
27181SOL    HW186390   7.186   0.578   4.163 -2.0534 -0.1584  1.4506
27181SOL    HW286391   7.280   0.686   4.212  1.0434 -0.4305 -3.2019
27182SOL     OW86392   8.256   8.919   5.017  0.0856  0.1439 -0.4546
27182SOL    HW186393   8.263   8.966   4.934  0.3602  1.6249  0.3691
27182SOL    HW286394   8.256   8.826   4.993 -2.4030  0.5183 -2.3059
27183SOL     OW86395   8.901   8.873   6.006  0.5688  0.4377  0.0796
27183SOL    HW186396   8.939   8.880   6.093  2.4440  2.7659 -0.7959
27183SOL    HW286397   8.854   8.956   5.994  0.6724  0.3339 -1.2232
27184SOL     OW86398   8.279   8.944   3.968  0.2508 -0.3489  0.1298
27184SOL    HW186399   8.273   8.866   3.912 -1.5593  0.8361 -1.4403
27184SOL    HW286400   8.366   8.980   3.949  0.0156 -0.4684 -1.2975
27185SOL     OW86401   7.591   6.352   3.728  0.1245  0.5474  0.7317
27185SOL    HW186402   7.544   6.409   3.788  0.0540  0.9459  0.3020
27185SOL    HW286403   7.681   6.351   3.760  0.2701  1.4167  0.3718
27186SOL     OW86404   8.898   6.407   3.581 -0.0148  0.1901  0.3327
27186SOL    HW186405   8.813   6.448   3.563  0.5246  1.7749  1.2468
27186SOL    HW286406   8.944   6.409   3.497 -0.2182  0.9551  0.2304
27187SOL     OW86407   0.019   8.372   4.525 -0.0460 -0.2754  0.1990
27187SOL    HW186408   0.111   8.368   4.499 -0.2046  1.9508 -0.9497
27187SOL    HW286409  -0.028   8.394   4.445 -1.3945  0.0175  1.0334
27188SOL     OW86410   6.911   0.420   6.640  0.0383 -0.4710 -0.0527
27188SOL    HW186411   6.854   0.352   6.604 -1.5533 -0.3919  2.1436
27188SOL    HW286412   6.852   0.488   6.670  1.4886  0.8999 -0.1724
27189SOL     OW86413   7.636   7.553   4.274  0.0210 -0.2285 -0.0369
27189SOL    HW186414   7.604   7.496   4.204  0.3766 -1.2314  0.5982
27189SOL    HW286415   7.718   7.589   4.240 -1.0831  1.3517 -1.1574
27190SOL     OW86416   6.190   8.853   3.667 -0.2879 -0.4999  0.0914
27190SOL    HW186417   6.116   8.914   3.666  1.6386  1.9983  0.4682
27190SOL    HW286418   6.239   8.873   3.587  0.4610 -1.5001  0.2828
27191SOL     OW86419   6.618   7.320   6.607  0.2707 -0.3683 -0.1820
27191SOL    HW186420   6.702   7.351   6.641 -0.7895  0.5479  1.7693
27191SOL    HW286421   6.568   7.401   6.591 -0.8201 -0.9478  0.2554
27192SOL     OW86422   7.389   6.704   7.266 -0.4877 -0.1086 -0.2907
27192SOL    HW186423   7.467   6.712   7.211  0.6820 -2.2739  0.9036
27192SOL    HW286424   7.318   6.689   7.204 -0.1669  2.5717 -1.4516
27193SOL     OW86425   6.954   8.634   4.880 -0.2833  0.3900 -0.4310
27193SOL    HW186426   6.913   8.558   4.839  0.7654  0.4734 -1.7082
27193SOL    HW286427   7.012   8.597   4.946  0.5486  0.0268 -1.3378
27194SOL     OW86428   9.024   1.720   3.385 -0.1542  0.4747  0.0074
27194SOL    HW186429   9.100   1.711   3.328  0.7787 -0.0913  1.2793
27194SOL    HW286430   9.000   1.631   3.408  0.0942  0.7028  1.2309
27195SOL     OW86431   7.789   6.461   4.405 -0.4956  0.0578  0.1398
27195SOL    HW186432   7.772   6.484   4.496 -0.4534 -0.9204  0.4116
27195SOL    HW286433   7.830   6.374   4.410 -1.2089 -0.3543 -0.8484
27196SOL     OW86434   2.432   6.242   6.282 -0.4271 -0.2005  0.0572
27196SOL    HW186435   2.447   6.303   6.354  0.3466 -1.7728  1.3020
27196SOL    HW286436   2.410   6.159   6.326  0.2538 -1.2499 -1.5099
27197SOL     OW86437   9.185   1.530   2.432 -0.3865  0.2432 -0.2091
27197SOL    HW186438   9.120   1.591   2.397 -0.4913  0.1797 -0.1247
27197SOL    HW286439   9.269   1.575   2.420 -0.3763  0.0270 -0.9615
27198SOL     OW86440   7.069   8.860   6.123  0.0686 -0.2496  0.8874
27198SOL    HW186441   7.065   8.767   6.103  0.6917 -0.1057  0.0274
27198SOL    HW286442   7.048   8.866   6.217 -0.4121 -1.1984  0.8455
27199SOL     OW86443   6.202   8.988   7.069 -0.3870 -0.1329 -0.1282
27199SOL    HW186444   6.108   8.976   7.057 -0.6251 -0.3401  1.6670
27199SOL    HW286445   6.226   8.926   7.138  1.0565 -0.0276 -0.4949
27200SOL     OW86446   9.616   0.404   5.790 -0.5305  0.2695  0.1190
27200SOL    HW186447   9.685   0.444   5.842  0.5046  0.4029 -1.3194
27200SOL    HW286448   9.649   0.316   5.770  0.6038  1.2842 -2.9876
27201SOL     OW86449   0.656   9.076   5.916  0.2515 -0.3657  0.2337
27201SOL    HW186450   0.663   9.144   5.849  0.9678 -2.1982 -1.6742
27201SOL    HW286451   0.584   9.020   5.886  0.4046 -1.0603  1.1341
27202SOL     OW86452   6.379   9.134   7.339 -0.1604 -0.7716  0.0234
27202SOL    HW186453   6.415   9.204   7.284  0.0771 -0.3294  0.7348
27202SOL    HW286454   6.366   9.061   7.278  0.0726 -0.2838 -0.6275
27203SOL     OW86455   8.510   8.518   5.464 -0.1201 -0.0227 -0.3178
27203SOL    HW186456   8.503   8.568   5.545  2.0347  0.5154 -0.4094
27203SOL    HW286457   8.545   8.434   5.490  1.2644  0.4024 -0.7444
27204SOL     OW86458   8.696   8.356   4.643 -0.0641 -0.2002  0.2435
27204SOL    HW186459   8.630   8.382   4.707 -1.1072 -0.6773 -0.6064
27204SOL    HW286460   8.667   8.271   4.611 -1.1935  1.2258 -2.9340
27205SOL     OW86461   9.389   7.681   4.474  0.6174  0.1439 -0.6206
27205SOL    HW186462   9.481   7.660   4.487  0.5923 -0.6856 -1.6595
27205SOL    HW286463   9.383   7.775   4.491  1.7747  0.3278 -1.1665
27206SOL     OW86464   8.704   1.130   3.756  0.6388  0.5496  0.5138
27206SOL    HW186465   8.739   1.202   3.703  2.1434 -0.2815  0.2904
27206SOL    HW286466   8.729   1.051   3.707  1.3624 -0.2113  2.0475
27207SOL     OW86467   8.226   8.177   6.168  0.5238  0.1872  0.3334
27207SOL    HW186468   8.293   8.203   6.105 -1.1059  1.5715 -0.8871
27207SOL    HW286469   8.222   8.250   6.230 -0.2593  0.3786  0.0599
27208SOL     OW86470   6.646   8.813   3.320 -0.1770  0.4597 -0.0274
27208SOL    HW186471   6.713   8.758   3.360  0.4608  0.5708 -0.9273
27208SOL    HW286472   6.671   8.903   3.344  1.2355  0.6778 -2.1091
27209SOL     OW86473   9.350   0.036   5.282  0.1407 -0.2943  0.8340
27209SOL    HW186474   9.407   0.108   5.254 -0.3231  0.7540  2.4262
27209SOL    HW286475   9.393  -0.000   5.359 -0.9152 -0.0258  1.5661
27210SOL     OW86476   9.307   8.144   2.281  0.3026 -0.7609 -0.2526
27210SOL    HW186477   9.248   8.070   2.269 -1.5299  0.4431  0.8419
27210SOL    HW286478   9.340   8.134   2.370  0.0610 -0.3035 -0.1079
27211SOL     OW86479   8.983   7.141   6.608  0.0702 -0.4033  0.2905
27211SOL    HW186480   8.950   7.229   6.631  0.6464  0.0964 -0.7372
27211SOL    HW286481   9.047   7.122   6.677 -0.6097 -0.3633  0.9541
27212SOL     OW86482   7.315   8.507   2.455  0.0383  0.5919  0.4402
27212SOL    HW186483   7.394   8.498   2.508  0.4882  1.5383 -0.0502
27212SOL    HW286484   7.255   8.557   2.511  0.2025  0.8528  0.3861
27213SOL     OW86485   7.405   5.948   7.206  0.8712  0.6149  0.0462
27213SOL    HW186486   7.497   5.921   7.204  1.2594  1.9360 -0.8568
27213SOL    HW286487   7.361   5.889   7.145  1.7759  2.1751 -2.2051
27214SOL     OW86488   7.849   9.515   6.098  0.1277  0.3221  0.0954
27214SOL    HW186489   7.857   9.532   6.192  2.9808 -0.6031  0.1213
27214SOL    HW286490   7.763   9.473   6.089 -0.6808  1.3775  2.0862
27215SOL     OW86491   7.291   8.393   4.408 -0.4062  0.6987 -0.1888
27215SOL    HW186492   7.287   8.318   4.348 -1.2396 -0.1449  0.8831
27215SOL    HW286493   7.237   8.460   4.365  0.3978  0.7417 -1.1852
27216SOL     OW86494   8.308   8.166   4.095 -0.0389 -0.1077 -1.0126
27216SOL    HW186495   8.242   8.235   4.100 -0.6542 -0.7180 -0.5414
27216SOL    HW286496   8.361   8.178   4.174 -0.3826 -0.3944 -0.7312
27217SOL     OW86497   9.133   8.365   5.468 -0.0713 -0.2741  0.4323
27217SOL    HW186498   9.132   8.330   5.557  3.1870  1.2521  1.2270
27217SOL    HW286499   9.209   8.325   5.427 -0.6760  0.1738 -1.2073
27218SOL     OW86500   6.313   6.605   6.730  0.3677 -0.0987 -0.1151
27218SOL    HW186501   6.393   6.636   6.688  0.1636  0.6105 -0.0032
27218SOL    HW286502   6.343   6.566   6.812  0.7613 -1.4350 -0.8682
27219SOL     OW86503   8.760   7.318   3.348  0.1998 -0.1026 -0.0178
27219SOL    HW186504   8.744   7.231   3.312 -0.1072  0.0531 -0.2681
27219SOL    HW286505   8.762   7.305   3.443  0.5099 -0.4374 -0.0703
27220SOL     OW86506   8.485   6.175   4.386  0.0615  0.9326 -0.1889
27220SOL    HW186507   8.477   6.132   4.301  0.1452  1.4272 -0.4497
27220SOL    HW286508   8.534   6.114   4.440 -1.4622 -0.1519  0.0372
27221SOL     OW86509   9.818   8.443   5.096 -0.4053  0.4826  0.2833
27221SOL    HW186510   9.835   8.528   5.055  0.8637  0.1045 -0.0162
27221SOL    HW286511   9.818   8.381   5.024 -0.8061  0.1513  0.5640
27222SOL     OW86512   6.357   8.924   4.764  0.0288 -0.2203  0.4793
27222SOL    HW186513   6.301   8.896   4.837  1.5092 -1.6206  1.1249
27222SOL    HW286514   6.296   8.968   4.704 -1.4490 -0.1358  1.9496
27223SOL     OW86515   5.758   8.235   2.936 -0.3764 -0.1162  0.4295
27223SOL    HW186516   5.829   8.249   2.874 -0.5234 -2.5596 -0.4211
27223SOL    HW286517   5.775   8.298   3.006 -0.5120  3.1368 -2.2216
27224SOL     OW86518   9.388   9.188   7.228 -0.0326  0.2343  0.0749
27224SOL    HW186519   9.329   9.169   7.301 -0.3019 -0.9345 -0.4262
27224SOL    HW286520   9.330   9.203   7.154  0.2644 -2.0491 -0.6916
27225SOL     OW86521   7.175   0.528   4.504 -0.1540  0.5993  0.3197
27225SOL    HW186522   7.097   0.478   4.481 -0.8892  1.4800  0.8212
27225SOL    HW286523   7.215   0.552   4.421  0.0243 -0.5097  0.0691
27226SOL     OW86524   8.914   8.115   3.349  0.1166  0.0282  0.1475
27226SOL    HW186525   8.985   8.140   3.289 -0.1168  1.8464  0.5807
27226SOL    HW286526   8.953   8.048   3.405  0.8963 -0.3751 -0.8422
27227SOL     OW86527   3.975   8.674   4.595  0.0740  0.1340  0.0912
27227SOL    HW186528   3.905   8.735   4.574 -0.3232 -0.8914 -1.7343
27227SOL    HW286529   4.047   8.699   4.537  0.1228 -0.7378 -0.2377
27228SOL     OW86530   8.026   9.675   3.616  0.5173  0.0773 -0.4211
27228SOL    HW186531   7.933   9.693   3.635  0.6611  0.6329 -0.2124
27228SOL    HW286532   8.024   9.603   3.554 -0.0034 -1.4842  1.2953
27229SOL     OW86533   9.019   9.039   5.258 -0.1186  1.1510 -0.2894
27229SOL    HW186534   8.923   9.042   5.260 -0.3834 -2.8294  0.5577
27229SOL    HW286535   9.041   9.025   5.166 -0.4758  0.2844 -0.2451
27230SOL     OW86536   7.207   8.877   1.830 -0.4550 -0.2733  0.1946
27230SOL    HW186537   7.269   8.947   1.808 -1.6133  1.0275  0.9388
27230SOL    HW286538   7.231   8.849   1.918 -1.3052  0.7080  0.7613
27231SOL     OW86539   1.708   8.502   7.068 -0.4418  0.5211 -0.2437
27231SOL    HW186540   1.709   8.534   6.977 -0.7434  3.2242  0.6344
27231SOL    HW286541   1.796   8.518   7.100 -0.6660  0.6836  0.2975
27232SOL     OW86542   9.553   6.825   4.490  0.1825 -0.2711  0.0221
27232SOL    HW186543   9.522   6.912   4.518  0.0938 -1.0239  2.5184
27232SOL    HW286544   9.627   6.843   4.433 -0.9507  1.4644 -0.9870
27233SOL     OW86545   0.373   7.225   2.647 -0.2608  0.0663 -0.0575
27233SOL    HW186546   0.424   7.158   2.602 -1.5205 -1.3583  0.5355
27233SOL    HW286547   0.303   7.248   2.586 -1.5529 -1.3527  0.8129
27234SOL     OW86548   6.546   0.235   5.003  0.3525 -0.0678 -0.4454
27234SOL    HW186549   6.533   0.277   5.088  1.0392  0.0514 -0.3926
27234SOL    HW286550   6.507   0.295   4.940  0.9778  0.4685 -0.3335
27235SOL     OW86551   0.783   6.742   2.294 -0.0643 -0.2154  0.2272
27235SOL    HW186552   0.727   6.820   2.292 -1.5472 -1.2287 -1.8362
27235SOL    HW286553   0.866   6.771   2.256 -0.1747  0.6266  0.6080
27236SOL     OW86554   8.642   2.019   5.468  0.3139  0.2624  0.4761
27236SOL    HW186555   8.607   2.086   5.409 -0.0149  0.2094  0.6052
27236SOL    HW286556   8.568   1.960   5.484  1.2263 -1.5709 -1.5875
27237SOL     OW86557   7.530   6.828   3.851  0.2450  0.6647  0.1329
27237SOL    HW186558   7.559   6.765   3.785  2.0065  0.6641  0.8448
27237SOL    HW286559   7.435   6.819   3.853  0.3808 -1.3566 -0.4032
27238SOL     OW86560   9.125   7.969   4.271  0.2869 -0.0492 -0.5364
27238SOL    HW186561   9.152   8.057   4.298  0.0282 -0.3952  0.9545
27238SOL    HW286562   9.047   7.983   4.218  0.0327  0.6201 -0.0020
27239SOL     OW86563   9.127   8.463   6.630  0.1216 -0.0351  0.0660
27239SOL    HW186564   9.194   8.523   6.664  0.6534 -1.3832  1.5801
27239SOL    HW286565   9.097   8.416   6.708 -1.4601 -0.5748 -0.8344
27240SOL     OW86566   0.795   9.034   6.176 -0.3196 -0.9574  0.2211
27240SOL    HW186567   0.797   9.124   6.208  0.3611 -0.5838 -0.8091
27240SOL    HW286568   0.755   9.040   6.090  0.7381 -1.4754 -0.3213
27241SOL     OW86569   5.611   0.829   2.469  0.1299 -0.2899  0.4764
27241SOL    HW186570   5.539   0.795   2.416 -0.0925  1.0591 -0.1232
27241SOL    HW286571   5.686   0.775   2.445 -0.4389 -1.0297  0.3312
27242SOL     OW86572   8.421   7.384   3.919 -0.4314  0.1935  0.1986
27242SOL    HW186573   8.417   7.288   3.917  1.5877  0.0789 -0.7439
27242SOL    HW286574   8.508   7.405   3.886 -0.5179  2.3483  1.1861
27243SOL     OW86575   9.583   6.153   3.882  0.1677 -0.7414  0.6631
27243SOL    HW186576   9.543   6.166   3.968  2.3822 -1.0832  1.8233
27243SOL    HW286577   9.509   6.134   3.824 -1.5691  1.1352  2.1104
27244SOL     OW86578   8.168   7.350   6.051  0.8724 -0.2364 -0.1128
27244SOL    HW186579   8.234   7.367   5.984  0.4173  0.9518 -0.2911
27244SOL    HW286580   8.188   7.262   6.083 -0.5597 -2.1116 -3.7494
27245SOL     OW86581   7.430   7.602   2.741 -0.0669  0.0990  0.0267
27245SOL    HW186582   7.453   7.534   2.678 -0.1665 -0.4838  0.6142
27245SOL    HW286583   7.424   7.682   2.688  0.4390 -0.2688 -0.6038
27246SOL     OW86584   6.585   8.531   7.090 -0.6375  0.0262 -0.1786
27246SOL    HW186585   6.635   8.612   7.081 -0.9013  0.1790 -0.2853
27246SOL    HW286586   6.608   8.498   7.177 -1.5147  0.8975  0.3982
27247SOL     OW86587   8.432   8.403   4.734 -0.1235 -0.6175  0.1847
27247SOL    HW186588   8.458   8.350   4.809 -0.7599 -0.7010  0.3464
27247SOL    HW286589   8.339   8.385   4.722 -0.2039 -0.0182 -0.1515
27248SOL     OW86590   5.530   0.549   4.492  0.3153 -0.1753 -0.4088
27248SOL    HW186591   5.436   0.540   4.507 -0.1772  1.0621 -2.3969
27248SOL    HW286592   5.537   0.612   4.420  2.6348 -0.9138 -0.9150
27249SOL     OW86593   6.912   6.558   4.870 -0.1148  0.2395 -0.0034
27249SOL    HW186594   6.912   6.600   4.956 -0.2629 -0.2057  0.2179
27249SOL    HW286595   7.004   6.537   4.854  0.1667  1.8441 -0.7240
27250SOL     OW86596   0.563   7.687   5.742 -0.0643 -0.4400 -0.2664
27250SOL    HW186597   0.605   7.631   5.676  0.6907  2.4711 -2.4772
27250SOL    HW286598   0.606   7.663   5.824  1.3053 -2.0137 -1.3549
27251SOL     OW86599   8.269   0.275   4.689 -0.0926  0.3151 -0.6003
27251SOL    HW186600   8.217   0.207   4.731 -1.3939  0.1144 -2.4254
27251SOL    HW286601   8.282   0.243   4.600  0.6211  1.7663 -1.0446
27252SOL     OW86602   7.556   6.963   5.698  0.6907  0.3785 -0.2136
27252SOL    HW186603   7.617   6.951   5.626  0.5797 -0.7609 -0.1522
27252SOL    HW286604   7.609   6.953   5.777  0.3829 -1.1376 -0.1580
27253SOL     OW86605   6.522   8.302   7.429  0.3253  0.4634 -0.0569
27253SOL    HW186606   6.568   8.238   7.376  0.2872  0.0232  0.4242
27253SOL    HW286607   6.451   8.252   7.470  1.1328  0.4770  1.4298
27254SOL     OW86608   9.481   8.858   4.901  0.4287 -0.1357  0.3372
27254SOL    HW186609   9.404   8.820   4.945  0.0314 -1.1301 -1.1380
27254SOL    HW286610   9.520   8.915   4.967 -2.5653  1.8198  0.6223
27255SOL     OW86611   5.546   6.309   7.366 -0.9312 -0.1403 -0.0998
27255SOL    HW186612   5.576   6.229   7.409 -2.7131 -0.5182  0.5141
27255SOL    HW286613   5.589   6.380   7.414  0.0530 -0.6885 -0.1490
27256SOL     OW86614   9.060   8.785   5.822  0.4376  0.9578 -0.3641
27256SOL    HW186615   8.978   8.809   5.866  1.2260  1.1012  1.0930
27256SOL    HW286616   9.078   8.696   5.852  1.2492  1.2444  0.0211
27257SOL     OW86617   7.105   8.902   4.601  0.4569  0.0227 -0.3049
27257SOL    HW186618   7.099   8.806   4.600 -0.6105  0.0462 -2.3745
27257SOL    HW286619   7.158   8.923   4.525  0.5388  1.0837  0.0378
27258SOL     OW86620   7.241   8.266   3.950  0.2130 -0.0564  0.1215
27258SOL    HW186621   7.225   8.313   3.868  1.4699  1.6683  0.8180
27258SOL    HW286622   7.316   8.310   3.989  1.4713 -2.6532  0.8587
27259SOL     OW86623   7.012   8.427   4.173  0.0283 -0.5171  0.0192
27259SOL    HW186624   7.054   8.489   4.233 -0.6248 -1.3323  1.3737
27259SOL    HW286625   7.034   8.459   4.086 -0.3411  1.6516  0.6597
27260SOL     OW86626   9.519   9.220   5.187 -0.3367 -0.2046 -0.0701
27260SOL    HW186627   9.520   9.306   5.230 -1.1133 -0.0669 -0.3101
27260SOL    HW286628   9.536   9.239   5.095  0.8992 -0.4581  0.0940
27261SOL     OW86629   8.022   4.977   4.950 -0.4437 -0.5654 -0.2616
27261SOL    HW186630   7.962   4.906   4.927  0.9681 -2.4009  1.3551
27261SOL    HW286631   8.100   4.959   4.898 -0.0683 -0.2281  0.1812
27262SOL     OW86632   7.603   8.956   3.972 -0.1497  0.4557  0.2852
27262SOL    HW186633   7.520   9.001   3.983 -1.2853 -1.3855 -0.2906
27262SOL    HW286634   7.606   8.932   3.879  1.0489  0.5061  0.2869
27263SOL     OW86635   0.008   8.293   4.868  0.2372  0.7958 -0.4569
27263SOL    HW186636  -0.037   8.343   4.800  0.9921  0.3888 -1.2642
27263SOL    HW286637   0.093   8.271   4.830  0.1168 -0.6901  0.0685
27264SOL     OW86638   6.086   8.089   4.890 -0.8367 -0.4563  0.1302
27264SOL    HW186639   6.169   8.098   4.842 -0.9758  1.1779  0.1376
27264SOL    HW286640   6.111   8.048   4.973 -0.1776 -0.8427 -0.2528
27265SOL     OW86641   8.390   8.166   4.373 -0.1617 -0.1433 -0.1245
27265SOL    HW186642   8.443   8.096   4.410 -2.2171 -1.5864  0.2559
27265SOL    HW286643   8.434   8.247   4.401  1.3754 -1.2336  0.7755
27266SOL     OW86644   6.523   9.515   4.035  0.5850 -0.0846  0.2699
27266SOL    HW186645   6.551   9.425   4.049 -0.9307 -0.3631  1.7645
27266SOL    HW286646   6.586   9.550   3.972  3.0069 -1.2844  1.8696
27267SOL     OW86647   9.013   7.877   5.593  0.2545  0.1394  0.3485
27267SOL    HW186648   9.102   7.852   5.618  0.4801  0.1468 -0.4203
27267SOL    HW286649   8.988   7.945   5.655  0.3327 -0.6896  1.3154
27268SOL     OW86650   6.476   6.222   5.620 -0.0038 -0.1401  0.2426
27268SOL    HW186651   6.505   6.310   5.644 -1.7176  0.3271  0.7474
27268SOL    HW286652   6.402   6.236   5.561 -0.6576 -1.2176  0.7652
27269SOL     OW86653   9.069   6.724   5.608 -0.5577 -0.6747  0.2679
27269SOL    HW186654   9.124   6.677   5.545 -0.0201 -0.0779  0.2749
27269SOL    HW286655   9.091   6.687   5.693  1.0377  0.6280  0.4692
27270SOL     OW86656   8.389   7.327   3.421  0.0757  0.3949  0.6634
27270SOL    HW186657   8.472   7.300   3.382 -0.3235  1.1448 -0.7466
27270SOL    HW286658   8.411   7.403   3.474  0.3104  0.5016  0.4137
27271SOL     OW86659   6.125   9.082   6.564 -0.1727  0.8766 -0.2452
27271SOL    HW186660   6.168   9.167   6.549  3.4108 -0.6865  0.1263
27271SOL    HW286661   6.083   9.062   6.480  1.0655  1.9333 -1.1716
27272SOL     OW86662   6.140   6.960   5.533 -0.2504  0.1239  0.2923
27272SOL    HW186663   6.115   6.883   5.483  0.0690 -0.2675  0.7248
27272SOL    HW286664   6.234   6.949   5.548  0.3433  1.8181 -1.7611
27273SOL     OW86665   8.491   7.201   4.212 -0.4814  0.1609  0.8376
27273SOL    HW186666   8.417   7.260   4.229 -1.1881 -0.4917  0.1329
27273SOL    HW286667   8.467   7.120   4.257  1.3729  0.9388  3.4674
27274SOL     OW86668   8.440   7.640   7.623 -0.0485  0.3248 -0.0278
27274SOL    HW186669   8.528   7.608   7.603  0.2526 -0.9872  2.9582
27274SOL    HW286670   8.383   7.564   7.612 -0.6867  0.9104 -0.9414
27275SOL     OW86671   5.764   6.495   5.256  0.0319 -0.2487 -0.5977
27275SOL    HW186672   5.841   6.525   5.208 -0.9626  1.4380 -1.2347
27275SOL    HW286673   5.795   6.421   5.308  2.1734  0.6404 -0.5149
27276SOL     OW86674   6.683   9.309   2.868  0.4730  0.0405  0.5289
27276SOL    HW186675   6.633   9.361   2.807  0.5096  2.6281  2.5295
27276SOL    HW286676   6.635   9.226   2.875 -1.1061  0.8064 -0.7673
27277SOL     OW86677   8.972   7.933   4.650 -0.5274 -0.1399 -0.5400
27277SOL    HW186678   8.958   7.885   4.568  0.2630  0.9056 -1.3266
27277SOL    HW286679   9.065   7.919   4.670 -0.8470 -0.8808  0.5321
27278SOL     OW86680   7.913   8.480   2.829 -0.0335  0.4117  0.5498
27278SOL    HW186681   7.828   8.449   2.861  1.0509 -0.7881  2.4573
27278SOL    HW286682   7.936   8.420   2.759  0.4869 -1.0461  1.9264
27279SOL     OW86683   6.299   8.547   6.425  0.0070  0.3183 -0.3432
27279SOL    HW186684   6.380   8.578   6.466 -0.0353 -0.0394  0.0175
27279SOL    HW286685   6.243   8.625   6.421  0.3560  0.5620 -0.5694
27280SOL     OW86686   6.848   9.325   6.109  0.3791 -0.0382 -0.4464
27280SOL    HW186687   6.896   9.245   6.132  1.2464  0.6578  0.2169
27280SOL    HW286688   6.757   9.296   6.101  0.3849 -0.7979  1.5446
27281SOL     OW86689   8.797   9.183   3.921 -0.3161 -0.3986  0.1171
27281SOL    HW186690   8.831   9.258   3.970 -0.3273 -0.1653 -0.2302
27281SOL    HW286691   8.868   9.159   3.862 -1.2195  0.9881 -1.6346
27282SOL     OW86692   5.459   5.268   3.109  0.1587  0.0954  0.1161
27282SOL    HW186693   5.414   5.186   3.134 -0.5214  0.9168  1.7571
27282SOL    HW286694   5.388   5.328   3.088  0.5784  0.7776  0.6289
27283SOL     OW86695   1.374   0.583   3.487 -0.2597 -0.0006  0.0255
27283SOL    HW186696   1.366   0.496   3.448  1.2226 -1.4182  2.5747
27283SOL    HW286697   1.453   0.620   3.448 -1.8387  1.0784 -2.4001
27284SOL     OW86698   8.432   7.082   3.667 -0.1125 -0.6970 -0.1037
27284SOL    HW186699   8.460   7.107   3.755 -0.3048 -0.4252 -0.1190
27284SOL    HW286700   8.496   7.124   3.609 -0.5235 -0.0991 -0.1375
27285SOL     OW86701   7.190   6.992   4.256  0.0812 -0.1200  0.0572
27285SOL    HW186702   7.175   7.075   4.210 -0.3022 -0.3394 -0.2235
27285SOL    HW286703   7.102   6.964   4.283  0.3796  0.4434  1.7033
27286SOL     OW86704   7.830   8.240   5.082 -0.1568 -0.0610  0.2609
27286SOL    HW186705   7.771   8.212   5.152  0.3228 -1.0537  0.2983
27286SOL    HW286706   7.903   8.281   5.128 -1.2273  2.0729  0.1693
27287SOL     OW86707   7.895   7.303   3.607  0.2587  0.0338  0.2077
27287SOL    HW186708   7.982   7.343   3.608  0.9723 -1.3026 -1.7610
27287SOL    HW286709   7.857   7.332   3.524 -0.6929 -0.3848  0.4920
27288SOL     OW86710   5.345   9.071   5.293 -0.7966  0.5581  0.1437
27288SOL    HW186711   5.335   9.166   5.287  0.3623  0.7741  1.3096
27288SOL    HW286712   5.439   9.056   5.289 -1.0242 -0.6996 -1.7170
27289SOL     OW86713   6.830   8.552   1.267 -0.2935  0.0395 -0.4941
27289SOL    HW186714   6.834   8.638   1.224 -0.2652  1.6183  2.4211
27289SOL    HW286715   6.850   8.570   1.359 -0.0209 -3.1737  0.1886
27290SOL     OW86716   0.629   6.796   3.271  0.3567 -0.2233 -0.6997
27290SOL    HW186717   0.613   6.840   3.188  0.3038  1.3509  0.1139
27290SOL    HW286718   0.664   6.710   3.246  0.8924  0.4306 -2.3187
27291SOL     OW86719   8.599   9.534   3.962  0.0929  0.1088  0.2062
27291SOL    HW186720   8.685   9.503   3.934 -1.1620 -1.6241 -2.1277
27291SOL    HW286721   8.553   9.455   3.991 -1.0832  0.8300  0.3976
27292SOL     OW86722   9.245   9.008   3.993 -0.0333 -0.3476 -0.2290
27292SOL    HW186723   9.221   9.086   3.943 -0.8027  0.6377  1.5653
27292SOL    HW286724   9.175   9.000   4.059  0.4928 -2.0617  0.1728
27293SOL     OW86725   9.327   9.065   5.309 -0.5531 -0.8280  0.3265
27293SOL    HW186726   9.271   9.078   5.232  0.7243  0.2051 -0.4687
27293SOL    HW286727   9.415   9.086   5.278  0.0978 -1.1899  1.8759
27294SOL     OW86728   0.373   5.170   6.776 -0.1591 -0.2253 -0.5295
27294SOL    HW186729   0.280   5.191   6.766 -0.4200 -1.2831 -0.4652
27294SOL    HW286730   0.388   5.172   6.871 -0.4199 -1.2619 -0.4613
27295SOL     OW86731   9.359   6.123   3.720  0.3727  0.3281  0.2521
27295SOL    HW186732   9.325   6.209   3.743  1.5543  0.8333  0.1336
27295SOL    HW286733   9.329   6.108   3.630 -0.5023  0.2526  0.5427
27296SOL     OW86734   8.115   8.409   3.718 -0.1295  0.4619  0.5723
27296SOL    HW186735   8.163   8.422   3.637 -0.4701 -2.1339 -0.1363
27296SOL    HW286736   8.023   8.416   3.694 -0.2226  0.0548  0.7858
27297SOL     OW86737   7.854   8.984   4.884  0.5383 -0.2485  0.6073
27297SOL    HW186738   7.815   9.023   4.806  2.4004 -0.2218 -0.3432
27297SOL    HW286739   7.885   8.898   4.856  0.3104 -0.6808  1.6073
27298SOL     OW86740   8.593   7.570   5.799  0.1472 -0.0814  0.7399
27298SOL    HW186741   8.560   7.482   5.818 -0.6367  0.1135  0.3212
27298SOL    HW286742   8.514   7.622   5.783  0.6692  0.2025 -1.1710
27299SOL     OW86743   8.514   6.956   5.524 -0.5229 -0.3333 -0.1023
27299SOL    HW186744   8.490   7.013   5.451 -0.4598 -1.8056 -1.3065
27299SOL    HW286745   8.553   6.879   5.484  0.2579 -0.8502  1.5338
27300SOL     OW86746   8.904   8.115   1.592 -0.7607 -0.1557  0.3297
27300SOL    HW186747   8.870   8.043   1.645 -3.5338 -0.3657 -1.5131
27300SOL    HW286748   8.981   8.078   1.548 -0.5087 -1.0803  1.5128
27301SOL     OW86749   8.881   9.486   4.813  0.0097 -0.2372  0.0373
27301SOL    HW186750   8.955   9.536   4.848 -0.4744 -0.2377  1.1123
27301SOL    HW286751   8.826   9.552   4.770  0.1156 -0.0664  0.1607
27302SOL     OW86752   0.765   6.097   3.336 -0.5053 -0.0181  0.4440
27302SOL    HW186753   0.724   6.142   3.410 -1.8887  0.7864 -0.7616
27302SOL    HW286754   0.699   6.099   3.267  0.5262 -1.2913 -0.6251
27303SOL     OW86755   9.239   9.031   4.809 -0.0404 -0.2149  0.2930
27303SOL    HW186756   9.177   9.050   4.738  0.5615  1.1848  0.1044
27303SOL    HW286757   9.307   8.979   4.767 -0.3409 -0.5028  0.1545
27304SOL     OW86758   8.746   7.394   6.140 -0.1881 -0.7985  0.6202
27304SOL    HW186759   8.835   7.359   6.143  0.0078 -0.5554 -1.0314
27304SOL    HW286760   8.739   7.431   6.052 -1.3333  0.7766  1.3377
27305SOL     OW86761   0.339   8.375   5.482  0.4058  0.2180  0.5282
27305SOL    HW186762   0.411   8.433   5.506 -0.5711  1.0387  1.5843
27305SOL    HW286763   0.362   8.343   5.395  2.5467 -0.3988  1.2693
27306SOL     OW86764   0.146   8.134   3.921 -0.2379 -0.4680  0.1064
27306SOL    HW186765   0.212   8.199   3.898 -0.0319 -0.2350  1.3371
27306SOL    HW286766   0.063   8.177   3.904 -0.1005 -0.4955 -0.7094
27307SOL     OW86767   7.400   8.939   5.473  0.2995  0.2383  0.5228
27307SOL    HW186768   7.472   9.002   5.461 -2.0135  2.8761 -0.6759
27307SOL    HW286769   7.427   8.862   5.424  1.7963  1.6376 -0.9929
27308SOL     OW86770   7.312   9.841   3.769  0.6692  0.8674 -0.1880
27308SOL    HW186771   7.317   9.912   3.705  0.0800  1.1916  0.1215
27308SOL    HW286772   7.234   9.792   3.745  0.7398  0.6791 -0.0366
27309SOL     OW86773   8.570   9.265   4.577  0.8524 -0.2251 -0.2401
27309SOL    HW186774   8.575   9.249   4.483  3.3717  0.1362 -0.2377
27309SOL    HW286775   8.656   9.242   4.610  0.0533 -0.2612  1.9904
27310SOL     OW86776   0.702   7.973   5.105 -0.3443 -0.0907  0.5879
27310SOL    HW186777   0.648   7.905   5.145  1.4888 -0.7374  2.1126
27310SOL    HW286778   0.735   7.933   5.024 -0.8752 -0.2757  0.4620
27311SOL     OW86779   6.230   0.393   4.338 -0.2907 -0.3593  0.2391
27311SOL    HW186780   6.308   0.382   4.393 -2.1989 -1.6165  2.8816
27311SOL    HW286781   6.191   0.305   4.334 -0.1160 -0.4462 -3.5440
27312SOL     OW86782   6.583   0.806   3.385  0.6494 -0.0605  0.9051
27312SOL    HW186783   6.502   0.816   3.335 -0.7822 -1.5051  2.7684
27312SOL    HW286784   6.625   0.728   3.348  0.0842 -0.5652  1.3149
27313SOL     OW86785   8.243   8.387   5.403  0.4999 -0.0308  0.0720
27313SOL    HW186786   8.322   8.440   5.396  0.7188 -0.4585 -0.8469
27313SOL    HW286787   8.184   8.440   5.457  1.4060  0.2846  0.7983
27314SOL     OW86788   7.542   0.687   4.438  0.0299  0.1989 -1.1225
27314SOL    HW186789   7.477   0.745   4.398  0.0002  0.3516 -0.8538
27314SOL    HW286790   7.575   0.633   4.366 -2.0038 -1.4476 -0.9135
27315SOL     OW86791   7.057   2.697   2.420  0.3787  0.1478 -0.2557
27315SOL    HW186792   7.013   2.615   2.397  0.4289 -0.1046  0.5002
27315SOL    HW286793   6.999   2.766   2.386 -0.0902 -0.1933 -0.1621
27316SOL     OW86794   0.559   7.956   4.850  0.3559 -0.2121  0.9318
27316SOL    HW186795   0.514   7.989   4.929  2.9234  1.0294  1.9822
27316SOL    HW286796   0.600   7.875   4.879 -0.9424 -1.2242  0.0372
27317SOL     OW86797   7.681   9.478   3.607  0.1822 -0.1426 -0.3433
27317SOL    HW186798   7.695   9.569   3.633 -0.7741  0.4026 -1.6501
27317SOL    HW286799   7.722   9.427   3.677 -1.2566  1.2375  1.6280
27318SOL     OW86800   0.525   7.761   5.160  0.3643  0.3238 -0.6071
27318SOL    HW186801   0.509   7.680   5.111 -1.3660 -0.4201  1.0701
27318SOL    HW286802   0.564   7.732   5.243  0.7069  1.3064 -0.4078
27319SOL     OW86803   8.900   7.190   3.998  0.7781 -0.2424  0.1294
27319SOL    HW186804   8.929   7.117   3.943  0.5351 -0.1048 -0.1863
27319SOL    HW286805   8.894   7.264   3.938  0.6085 -0.0675  0.3606
27320SOL     OW86806   8.430   8.301   3.675 -0.4197 -0.6225  0.5335
27320SOL    HW186807   8.374   8.353   3.618  0.1175 -0.0283  0.5410
27320SOL    HW286808   8.487   8.365   3.718  1.9647 -1.3504 -1.3019
27321SOL     OW86809   7.465   6.963   4.313  0.1580 -0.5899 -0.0813
27321SOL    HW186810   7.480   6.934   4.403  0.2673 -2.1532 -0.5727
27321SOL    HW286811   7.370   6.959   4.302  0.0497  0.6104  0.2612
27322SOL     OW86812   9.336   1.225   5.259 -0.1073  0.1915 -0.1851
27322SOL    HW186813   9.387   1.191   5.333  0.5368  0.1730 -0.6338
27322SOL    HW286814   9.399   1.277   5.208 -0.8748  1.3843  0.0412
27323SOL     OW86815   5.618   8.718   5.336  0.3612 -0.2524  0.3868
27323SOL    HW186816   5.616   8.647   5.271  2.1237 -2.3238  2.3753
27323SOL    HW286817   5.530   8.719   5.373 -1.3429  2.3685 -3.2176
27324SOL     OW86818   8.265   9.404   4.495  0.1433  0.4171 -0.3152
27324SOL    HW186819   8.172   9.415   4.474  0.0552 -0.1963 -0.2684
27324SOL    HW286820   8.308   9.392   4.410  0.0324 -0.3067 -0.2775
27325SOL     OW86821   7.518   8.601   5.766  0.6670 -0.4902  0.0628
27325SOL    HW186822   7.564   8.681   5.789 -0.7312  0.0630  1.0689
27325SOL    HW286823   7.429   8.629   5.744 -0.2085 -1.8421  1.6462
27326SOL     OW86824   9.217   9.199   2.740  0.9830  0.1286  0.2281
27326SOL    HW186825   9.245   9.126   2.685  1.2894  1.1812 -1.0730
27326SOL    HW286826   9.134   9.227   2.702  0.9293  0.5382  0.6337
27327SOL     OW86827   9.085   7.614   4.698 -0.3097  0.1674  0.2244
27327SOL    HW186828   9.095   7.634   4.605  2.4018 -2.1100 -0.1049
27327SOL    HW286829   9.011   7.553   4.702  0.5715 -1.0128 -0.7331
27328SOL     OW86830   8.869   9.450   4.320 -0.2592 -1.0758 -0.0029
27328SOL    HW186831   8.896   9.527   4.369  1.8669 -0.6794 -1.6306
27328SOL    HW286832   8.911   9.377   4.365 -1.4637 -1.2030  0.9579
27329SOL     OW86833   7.808   9.170   2.155  0.0758  0.3201 -0.1865
27329SOL    HW186834   7.828   9.243   2.213 -2.5952  0.6948  0.3884
27329SOL    HW286835   7.755   9.208   2.085  3.1203 -0.1234 -2.9817
27330SOL     OW86836   6.345   0.036   6.223 -0.1088 -0.0797 -0.3130
27330SOL    HW186837   6.411   0.014   6.157 -1.2970  0.5156 -1.7621
27330SOL    HW286838   6.363   0.127   6.246  1.5381 -0.8573  1.7379
27331SOL     OW86839   7.731   7.453   4.678 -0.2206  0.0495  0.4351
27331SOL    HW186840   7.681   7.529   4.708  0.6892  1.2847 -1.0482
27331SOL    HW286841   7.785   7.486   4.606  0.6410 -1.8782  0.1280
27332SOL     OW86842   7.570   7.485   3.111 -0.0450  0.4146  0.6689
27332SOL    HW186843   7.504   7.478   3.043  0.2096  1.4131  0.2961
27332SOL    HW286844   7.565   7.402   3.159 -2.4449  0.9271  1.4682
27333SOL     OW86845   8.956   8.044   2.540  0.4252  0.6605 -0.4296
27333SOL    HW186846   9.014   7.969   2.553 -1.2112 -0.2914  2.3179
27333SOL    HW286847   9.009   8.120   2.563  0.8621 -0.1234  1.3163
27334SOL     OW86848   7.827   0.145   4.256 -0.2343  0.3048  0.0805
27334SOL    HW186849   7.804   0.058   4.290  1.5794 -1.2160 -2.2636
27334SOL    HW286850   7.916   0.160   4.289  0.2016  0.3754 -1.0994
27335SOL     OW86851   5.933   7.233   3.369  0.5550 -0.1085 -0.5046
27335SOL    HW186852   6.028   7.235   3.373  0.5422  0.6970 -0.3584
27335SOL    HW286853   5.912   7.281   3.289  0.2645 -0.0856 -0.4143
27336SOL     OW86854   9.150   9.328   7.571 -0.1867 -0.2383 -0.2855
27336SOL    HW186855   9.229   9.275   7.566  0.1340  0.1910  0.1069
27336SOL    HW286856   9.103   9.310   7.490  0.7989  0.2610 -0.9853
27337SOL     OW86857   9.465   6.746   4.011 -0.3918 -0.1100 -0.2316
27337SOL    HW186858   9.434   6.755   3.921  1.8736 -0.7058 -1.1421
27337SOL    HW286859   9.529   6.817   4.022  0.1720 -0.7073  0.5169
27338SOL     OW86860   6.431   1.249   4.224  0.2608 -0.7233  0.0988
27338SOL    HW186861   6.470   1.305   4.158 -0.2288  0.0210  0.4230
27338SOL    HW286862   6.381   1.185   4.174  2.7893 -2.4700 -0.3844
27339SOL     OW86863   7.043   0.870   4.956  0.0502 -0.0711 -0.3195
27339SOL    HW186864   7.050   0.832   5.043  0.2653 -0.7770 -0.6405
27339SOL    HW286865   7.132   0.865   4.920  0.2872  1.5649 -0.0334
27340SOL     OW86866   8.365   7.868   4.982  0.8028  0.2024 -0.1042
27340SOL    HW186867   8.273   7.891   4.983  1.1880  1.9013 -0.2985
27340SOL    HW286868   8.397   7.887   5.070  0.5414 -2.5308  0.6767
27341SOL     OW86869   6.999   0.755   3.394 -0.1213  0.0560  0.0793
27341SOL    HW186870   6.976   0.831   3.341 -0.9210 -0.3322 -0.1610
27341SOL    HW286871   7.058   0.704   3.339  0.2529  0.4026  0.1606
27342SOL     OW86872   0.236   6.265   5.180  0.5040 -0.5395 -0.0641
27342SOL    HW186873   0.175   6.223   5.119  0.4414 -1.3171  0.5098
27342SOL    HW286874   0.276   6.335   5.129 -1.5109  0.5909 -0.2066
27343SOL     OW86875   7.715   9.136   5.100 -0.0511 -0.4849  0.1808
27343SOL    HW186876   7.717   9.215   5.045 -0.2061 -0.6919 -0.1254
27343SOL    HW286877   7.790   9.084   5.069  0.2360 -0.3176  0.5930
27344SOL     OW86878   8.481   8.429   1.664 -0.0448  0.1208  0.0378
27344SOL    HW186879   8.549   8.364   1.680  1.2628  1.2605 -0.7146
27344SOL    HW286880   8.452   8.455   1.751 -0.6354 -1.4778  0.3531
27345SOL     OW86881   7.744   6.955   5.488  0.4677 -0.1431  0.0971
27345SOL    HW186882   7.737   6.863   5.464  1.9994 -0.8205  1.9475
27345SOL    HW286883   7.838   6.971   5.495  0.2123  1.3638  0.4574
27346SOL     OW86884   8.671   7.039   3.071  0.2570 -0.1574  0.1761
27346SOL    HW186885   8.720   6.957   3.067  0.3437 -0.1710  1.2526
27346SOL    HW286886   8.714   7.089   3.140 -1.2189 -0.1566  1.1407
27347SOL     OW86887   7.456   7.286   3.832  0.0075 -0.1420  0.4920
27347SOL    HW186888   7.511   7.294   3.910  0.5418  0.3303  0.0727
27347SOL    HW286889   7.505   7.227   3.775  0.0420  0.2149  0.1520
27348SOL     OW86890   8.109   9.056   3.219  0.0363  0.5282 -1.3364
27348SOL    HW186891   8.074   8.967   3.207  0.9938 -0.0185 -0.2687
27348SOL    HW286892   8.055   9.094   3.287  0.1168  0.4676 -1.2366
27349SOL     OW86893   8.344   0.930   4.015  0.1517  0.0430 -0.5282
27349SOL    HW186894   8.403   0.868   3.973  1.3664  0.8771 -0.1017
27349SOL    HW286895   8.298   0.878   4.081 -0.3700 -0.8406 -1.5390
27350SOL     OW86896   7.685   5.904   5.943 -0.0082 -0.9480  0.0674
27350SOL    HW186897   7.775   5.923   5.968 -0.3136  3.2748 -1.2357
27350SOL    HW286898   7.693   5.845   5.867  1.6918 -0.2217 -0.3536
27351SOL     OW86899   9.417   7.938   5.262  0.1178 -0.5252 -0.0005
27351SOL    HW186900   9.328   7.926   5.295 -1.1478  0.2951 -2.8384
27351SOL    HW286901   9.435   8.031   5.276 -0.9639  0.1482 -2.6226
27352SOL     OW86902   4.006   8.191   5.247 -0.7816 -0.6105 -0.3664
27352SOL    HW186903   4.059   8.268   5.265  0.6507 -1.6814  0.2182
27352SOL    HW286904   3.944   8.186   5.319  0.3655 -1.0213  0.6251
27353SOL     OW86905   5.786   9.251   6.201 -0.0406 -0.0951  0.5206
27353SOL    HW186906   5.814   9.308   6.130 -0.5228 -0.8214 -0.2748
27353SOL    HW286907   5.746   9.310   6.265  2.6743  0.8973  1.4236
27354SOL     OW86908   1.363   6.055   5.676 -0.0167  0.4504 -0.1069
27354SOL    HW186909   1.401   6.120   5.617 -2.1645 -0.1252 -2.3183
27354SOL    HW286910   1.394   5.971   5.641  0.9347  0.1539  1.3648
27355SOL     OW86911   5.788   6.865   6.888  0.1825  0.6040 -0.0787
27355SOL    HW186912   5.837   6.819   6.956 -2.0780  0.9010  1.8932
27355SOL    HW286913   5.735   6.797   6.846 -0.8297  0.8901  0.7039
27356SOL     OW86914   8.003   7.115   5.389  0.0467 -0.4489 -0.0860
27356SOL    HW186915   8.063   7.073   5.450  0.3247 -0.9535 -0.7004
27356SOL    HW286916   8.049   7.116   5.306 -0.4009  0.0694 -0.3402
27357SOL     OW86917   8.729   9.665   6.426  0.5256 -0.4634 -0.3163
27357SOL    HW186918   8.768   9.582   6.401 -0.3875 -1.0349  0.1094
27357SOL    HW286919   8.681   9.646   6.506  1.6718  0.8563  0.7321
27358SOL     OW86920   8.865   8.578   8.324 -0.6118 -0.6540  0.0915
27358SOL    HW186921   8.909   8.498   8.349  1.8122 -0.1454 -2.1389
27358SOL    HW286922   8.773   8.553   8.314  0.0177 -3.0632 -0.1961
27359SOL     OW86923   8.138   9.122   7.680 -0.2221  0.1497 -0.5627
27359SOL    HW186924   8.227   9.148   7.705 -0.3867 -1.2796  1.8007
27359SOL    HW286925   8.089   9.203   7.677  0.8534  0.8237 -0.4765
27360SOL     OW86926   7.286   8.782   5.674  0.3325 -0.2619 -0.6525
27360SOL    HW186927   7.195   8.807   5.691  1.3587  1.7406  3.4363
27360SOL    HW286928   7.316   8.845   5.609 -0.7961  0.1315 -0.8202
27361SOL     OW86929   9.210   8.334   9.206 -0.1929  0.1733 -0.3810
27361SOL    HW186930   9.271   8.360   9.275 -0.8527  0.6872  0.0210
27361SOL    HW286931   9.125   8.330   9.250 -0.9160  2.0685 -1.4805
27362SOL     OW86932   9.686   8.228   5.750  0.1152  0.1806  0.5600
27362SOL    HW186933   9.697   8.230   5.655  0.2120 -0.8912  0.5323
27362SOL    HW286934   9.759   8.173   5.782 -0.5921 -0.4584  1.1244
27363SOL     OW86935   5.750   6.465   6.132 -0.1001  0.4569  0.1575
27363SOL    HW186936   5.838   6.481   6.098 -0.8050 -0.9194 -2.5824
27363SOL    HW286937   5.764   6.432   6.221  2.0714  1.0064  0.0700
27364SOL     OW86938   7.659   7.358   4.038  0.2774 -0.2306  0.5228
27364SOL    HW186939   7.748   7.385   4.016  0.7113 -2.1294 -0.3347
27364SOL    HW286940   7.670   7.281   4.093 -0.7440 -1.8173 -1.3352
27365SOL     OW86941   0.397   0.168   6.358 -0.0230  0.0909 -0.1272
27365SOL    HW186942   0.367   0.255   6.386 -1.6866 -0.2158 -0.8416
27365SOL    HW286943   0.377   0.165   6.264 -1.4045 -1.5925  0.1715
27366SOL     OW86944   8.063   8.670   6.880  0.4472  0.1891 -0.1017
27366SOL    HW186945   8.076   8.689   6.787 -0.3991 -0.9248 -0.4674
27366SOL    HW286946   7.997   8.733   6.909  1.0061  0.8044 -0.1482
27367SOL     OW86947   7.214   8.843   6.657 -0.6388  0.0497  0.2600
27367SOL    HW186948   7.161   8.848   6.577 -0.9265 -1.6639  0.3013
27367SOL    HW286949   7.269   8.766   6.644  1.7898  1.6582  0.3003
27368SOL     OW86950   8.674   8.364   5.994  0.2175 -0.3351 -0.2363
27368SOL    HW186951   8.687   8.459   5.997 -2.6861  0.1398  1.4784
27368SOL    HW286952   8.739   8.329   6.055 -1.5921  1.1512  2.8272
27369SOL     OW86953   7.181   7.690   3.254  0.4602  0.1125  0.9438
27369SOL    HW186954   7.102   7.636   3.246  0.9658 -0.4759 -0.3541
27369SOL    HW286955   7.184   7.715   3.346 -1.2902  0.2263  1.0088
27370SOL     OW86956   8.260   4.038   5.014 -0.0385 -0.1221  0.0915
27370SOL    HW186957   8.339   4.039   5.068  0.2797  0.7621 -0.3859
27370SOL    HW286958   8.276   3.969   4.950  0.8771  0.8541 -0.7688
27371SOL     OW86959   7.101   9.814   4.686 -0.2387 -0.2347  0.4692
27371SOL    HW186960   7.124   9.826   4.778  0.0774  0.5125  0.3016
27371SOL    HW286961   7.156   9.877   4.639  0.5398 -1.4828 -0.3513
27372SOL     OW86962   7.215   9.063   4.365  0.6421 -0.2428  0.0127
27372SOL    HW186963   7.288   9.117   4.334  0.4137 -0.3891 -0.7827
27372SOL    HW286964   7.136   9.113   4.343  0.4863 -0.2041  0.6381
27373SOL     OW86965   0.920   8.425   7.638  0.3243  0.1652 -0.4144
27373SOL    HW186966   0.990   8.445   7.701 -1.1802  1.9397  0.7919
27373SOL    HW286967   0.896   8.510   7.601 -0.0752 -0.6349 -2.0861
27374SOL     OW86968   9.521   7.657   7.799  0.4782 -0.0064  0.3236
27374SOL    HW186969   9.572   7.614   7.867  0.1296 -1.3358 -0.2094
27374SOL    HW286970   9.529   7.598   7.723 -0.7387  0.4388 -0.1717
27375SOL     OW86971   7.393   9.092   8.688 -0.0019 -0.6241  0.3396
27375SOL    HW186972   7.398   9.002   8.719 -0.4741 -1.1246 -0.9611
27375SOL    HW286973   7.302   9.101   8.657  0.6096 -0.4151 -1.5371
27376SOL     OW86974   9.217   8.458   9.712  0.2405  0.6730  0.0878
27376SOL    HW186975   9.251   8.374   9.682 -0.2347  0.5217 -0.0450
27376SOL    HW286976   9.260   8.474   9.795 -0.3453 -0.1459  0.5605
27377SOL     OW86977   6.796   8.315   7.030  0.0383  0.0831  0.0778
27377SOL    HW186978   6.775   8.404   7.005 -0.4212  0.3137  1.2243
27377SOL    HW286979   6.821   8.321   7.122  2.3514 -0.6130 -0.4126
27378SOL     OW86980   8.545   9.823   5.877  0.2847  0.0854 -0.0133
27378SOL    HW186981   8.532   9.797   5.786  1.0401  1.9451 -0.7095
27378SOL    HW286982   8.580   9.745   5.920 -2.3488 -1.5647 -0.6865
27379SOL     OW86983   0.509   0.035   4.398  0.1383 -0.3700  0.1380
27379SOL    HW186984   0.475   0.008   4.483 -1.8550  1.2688 -0.0456
27379SOL    HW286985   0.473   0.123   4.385 -0.9707 -1.1488 -3.0647
27380SOL     OW86986   9.459   7.785   8.097 -0.7231 -1.0962  0.3377
27380SOL    HW186987   9.395   7.856   8.093 -0.2778 -0.7440 -1.4671
27380SOL    HW286988   9.543   7.826   8.075 -0.3251 -2.0166  0.0683
27381SOL     OW86989   7.592   8.839   8.156 -0.5963  0.1528  0.7642
27381SOL    HW186990   7.622   8.858   8.245 -0.4950 -0.9601  0.9809
27381SOL    HW286991   7.672   8.819   8.108 -0.6224  1.0266  0.3358
27382SOL     OW86992   8.104   7.995   5.782 -0.3971  0.6643 -0.7167
27382SOL    HW186993   8.040   8.001   5.711 -0.6206 -0.6740 -0.6595
27382SOL    HW286994   8.187   8.020   5.742 -0.3602 -0.9000 -1.6960
27383SOL     OW86995   8.554   7.447   4.721  0.2565  0.4018 -0.1242
27383SOL    HW186996   8.475   7.498   4.702 -0.1199  0.0381  0.4331
27383SOL    HW286997   8.600   7.499   4.787  1.1980  1.3016 -1.4220
27384SOL     OW86998   6.848   8.617   7.463 -0.3533  0.6440 -0.0158
27384SOL    HW186999   6.838   8.712   7.475  1.3265  0.9130 -0.3938
27384SOL    HW287000   6.916   8.592   7.525 -0.1008 -0.1404 -0.5915
27385SOL     OW87001   8.893   9.168   7.121  0.8075 -0.3163  0.3345
27385SOL    HW187002   8.845   9.234   7.072  0.2654  0.5181  1.9123
27385SOL    HW287003   8.972   9.151   7.069  0.4939  0.8755 -0.5624
27386SOL     OW87004   9.068   8.281   6.446 -0.1707 -0.9435  0.3020
27386SOL    HW187005   9.096   8.340   6.517  1.4053 -2.1147  0.7086
27386SOL    HW287006   9.067   8.194   6.486 -1.3788 -1.3565 -0.5786
27387SOL     OW87007   7.581   7.732   6.730 -0.2577 -0.1870  0.7087
27387SOL    HW187008   7.522   7.808   6.736  0.3434  0.3278  0.2474
27387SOL    HW287009   7.647   7.748   6.797  0.7097  0.4555 -0.3762
27388SOL     OW87010   7.723   9.461   8.296 -0.2849  0.1942  0.4783
27388SOL    HW187011   7.668   9.539   8.295 -0.5883 -0.0179  0.5776
27388SOL    HW287012   7.742   9.443   8.204 -0.1545  0.4275  0.4597
27389SOL     OW87013   7.272   8.358   6.663 -0.7410 -0.6120  0.1583
27389SOL    HW187014   7.225   8.405   6.594 -0.7215 -0.1544  0.4552
27389SOL    HW287015   7.286   8.423   6.731  0.1948 -0.7884  0.1376
27390SOL     OW87016   7.323   9.256   7.627 -0.1723 -0.5322 -1.0045
27390SOL    HW187017   7.390   9.191   7.603  0.9839  0.3792 -0.3328
27390SOL    HW287018   7.318   9.250   7.722  1.6904  1.9674 -0.6652
27391SOL     OW87019   7.349   6.217   5.418 -0.2222  0.0914  0.2247
27391SOL    HW187020   7.419   6.271   5.455  0.3445 -1.2758  1.2304
27391SOL    HW287021   7.278   6.223   5.482 -0.3286 -0.0050  0.1169
27392SOL     OW87022   9.093   6.892   6.515  0.0964  0.2636  0.3618
27392SOL    HW187023   9.040   6.832   6.462  0.6150  0.4228 -0.3490
27392SOL    HW287024   9.029   6.943   6.564 -0.3647 -0.7834  0.8935
27393SOL     OW87025   8.515   6.767   6.202 -0.7732 -0.4039 -0.1493
27393SOL    HW187026   8.549   6.714   6.275 -1.1147 -2.0862 -1.1623
27393SOL    HW287027   8.423   6.782   6.224 -1.0622 -1.5130 -0.5379
27394SOL     OW87028   5.955   6.746   4.451  0.3268 -0.7662  0.0284
27394SOL    HW187029   5.937   6.671   4.395 -0.4940  0.1232 -0.9528
27394SOL    HW287030   5.884   6.807   4.433  1.4000  0.5887  0.1916
27395SOL     OW87031   9.066   9.244   5.489 -0.2121 -0.0359  0.4103
27395SOL    HW187032   9.067   9.183   5.415 -0.1203  0.0251  0.3603
27395SOL    HW287033   8.982   9.228   5.532  1.6799 -3.6541  3.3180
27396SOL     OW87034   8.281   0.672   7.068 -0.2812  0.4013  0.6444
27396SOL    HW187035   8.322   0.758   7.080 -0.6955  1.0298 -1.7900
27396SOL    HW287036   8.216   0.687   6.999 -0.7308 -1.7602  0.5513
27397SOL     OW87037   9.438   8.329   7.647  0.4280 -0.0479  0.2467
27397SOL    HW187038   9.496   8.396   7.684  0.2822  0.2833 -0.1216
27397SOL    HW287039   9.440   8.258   7.712  1.7737 -0.3279 -0.0631
27398SOL     OW87040   0.275   9.017   8.946  0.2491  0.0201  0.2103
27398SOL    HW187041   0.355   9.054   8.909  0.7091  0.5798  1.6905
27398SOL    HW287042   0.207   9.080   8.922  0.3442 -0.1729 -0.5817
27399SOL     OW87043   9.178   8.889   9.241 -0.5331  0.1626 -0.3060
27399SOL    HW187044   9.234   8.954   9.198 -1.3704 -0.0989 -1.8454
27399SOL    HW287045   9.238   8.818   9.264  0.1932  0.9677  0.4086
27400SOL     OW87046   0.608   5.805   6.329  0.2796  0.4213 -0.1467
27400SOL    HW187047   0.600   5.715   6.296  2.3701 -0.1597  0.7492
27400SOL    HW287048   0.644   5.854   6.255  0.6976  0.1365 -0.1365
27401SOL     OW87049   9.159   7.854   6.244  0.2853 -0.0747 -0.1093
27401SOL    HW187050   9.245   7.891   6.263 -0.5550  1.8408  0.2649
27401SOL    HW287051   9.167   7.761   6.263  2.2301  0.0826  0.0041
27402SOL     OW87052   0.066   6.955   7.014 -0.4868 -0.0137  0.4086
27402SOL    HW187053   0.004   6.899   6.967 -1.0891 -1.2532  2.5417
27402SOL    HW287054   0.138   6.969   6.952 -3.0191  1.9534 -2.3873
27403SOL     OW87055   8.711   8.564   7.122 -0.2415 -0.5734 -0.0638
27403SOL    HW187056   8.650   8.492   7.108 -0.3204 -0.4050 -0.5860
27403SOL    HW287057   8.766   8.535   7.195 -1.0369 -0.6648  0.5074
27404SOL     OW87058   9.294   8.971   8.504  0.5271  0.0064  0.6041
27404SOL    HW187059   9.336   8.944   8.422  1.0805  1.6486  0.3174
27404SOL    HW287060   9.367   8.984   8.565  0.0539 -3.3861  2.1633
27405SOL     OW87061   8.532   8.945   6.294 -0.0085 -0.4444 -0.0192
27405SOL    HW187062   8.549   8.977   6.382 -0.6681  1.1687 -0.4271
27405SOL    HW287063   8.577   9.008   6.237  0.5646 -1.5582 -0.8548
27406SOL     OW87064   0.172   8.293   6.105  0.3254  0.8298  0.4603
27406SOL    HW187065   0.093   8.327   6.064 -0.0430  1.1413  1.3993
27406SOL    HW287066   0.163   8.315   6.198  0.8063 -0.4349  0.8399
27407SOL     OW87067   6.964   8.077   4.696  0.0632 -0.1687  0.5301
27407SOL    HW187068   6.945   8.018   4.769 -0.9701  0.3721  0.7189
27407SOL    HW287069   6.884   8.130   4.686  1.0614  1.4158  0.5852
27408SOL     OW87070   8.863   1.446   4.453 -0.6117 -0.2996 -0.1182
27408SOL    HW187071   8.889   1.443   4.545 -1.2428 -1.0162  0.0490
27408SOL    HW287072   8.942   1.472   4.406 -0.4379  0.6538  0.6800
27409SOL     OW87073   1.117   6.171   6.024 -0.1377  0.4690 -0.3454
27409SOL    HW187074   1.088   6.134   5.941  0.3858 -2.3084  0.6136
27409SOL    HW287075   1.049   6.234   6.047 -2.6023 -1.8375 -0.8274
27410SOL     OW87076   8.926   6.211   3.930 -0.2091  0.0416 -0.1854
27410SOL    HW187077   8.951   6.289   3.979  2.8941 -0.2581 -1.1008
27410SOL    HW287078   8.915   6.242   3.840 -0.3385 -0.3526 -0.3077
27411SOL     OW87079   8.018   9.518   8.814  0.0364  0.1652 -0.3410
27411SOL    HW187080   7.968   9.436   8.824 -1.5705  0.8572 -1.9972
27411SOL    HW287081   7.983   9.557   8.734  1.6293  1.8992 -0.2538
27412SOL     OW87082   9.846   7.381   6.507 -0.6595  0.2725  0.5628
27412SOL    HW187083   9.813   7.399   6.419  0.3707  0.8147  0.2702
27412SOL    HW287084   9.897   7.458   6.530  1.0452 -0.8108  0.6599
27413SOL     OW87085   8.529   8.145   6.108  1.3004 -0.0334 -0.3918
27413SOL    HW187086   8.603   8.104   6.152  0.2066 -1.5535  0.1610
27413SOL    HW287087   8.564   8.225   6.070  3.8525 -1.9008 -2.3528
27414SOL     OW87088   9.496   0.530   6.848 -0.2818 -0.1188  0.6139
27414SOL    HW187089   9.426   0.464   6.841 -0.5392  0.2214 -0.0773
27414SOL    HW287090   9.449   0.613   6.856  0.0400  0.1626 -0.3531
27415SOL     OW87091   8.408   7.429   6.965 -0.4475 -0.0671  0.1983
27415SOL    HW187092   8.381   7.476   6.886 -3.1699  1.8582  2.0624
27415SOL    HW287093   8.481   7.481   6.999  0.1683 -0.4054 -0.5884
27416SOL     OW87094   7.114   7.998   7.810  0.4225 -0.4040 -0.1292
27416SOL    HW187095   7.114   8.014   7.716 -0.0449 -0.8790 -0.2185
27416SOL    HW287096   7.197   8.034   7.840  1.1511 -1.3492 -0.9268
27417SOL     OW87097   9.059   8.066   6.082  0.1765 -0.2173 -0.0895
27417SOL    HW187098   9.135   8.124   6.092 -1.0691  1.4371  0.3684
27417SOL    HW287099   9.074   7.996   6.145  1.2841  0.1194  0.0450
27418SOL     OW87100   6.183   6.108   3.714 -1.0896  0.5640 -0.0358
27418SOL    HW187101   6.260   6.150   3.675 -0.3114  0.2239  1.0431
27418SOL    HW287102   6.115   6.175   3.711 -0.2956  1.4317  0.3498
27419SOL     OW87103   6.630   6.265   7.052 -0.1436  0.2528 -0.2200
27419SOL    HW187104   6.596   6.315   6.979  0.5914  0.6331 -0.3080
27419SOL    HW287105   6.722   6.290   7.058  0.2484 -1.1008 -0.2896
27420SOL     OW87106   0.970   7.967   5.264  1.0316  0.3442  0.3841
27420SOL    HW187107   0.954   7.875   5.245  1.7112  0.6184 -1.7754
27420SOL    HW287108   1.061   7.970   5.294  1.6066  0.4825 -1.2780
27421SOL     OW87109   8.122   7.366   6.846 -0.0623 -0.2792  0.1849
27421SOL    HW187110   8.183   7.439   6.833  0.4691 -0.6541  0.5308
27421SOL    HW287111   8.170   7.305   6.902 -0.2892 -1.1538 -0.5524
27422SOL     OW87112   7.066   7.964   6.694 -0.5927 -0.5057 -0.1499
27422SOL    HW187113   7.118   8.025   6.642  0.3681 -1.1130  0.0774
27422SOL    HW287114   7.024   8.020   6.760 -0.7495  0.0798 -0.7373
27423SOL     OW87115   7.578   5.963   3.995 -0.2271  0.8122 -0.1388
27423SOL    HW187116   7.558   6.051   3.962  0.4048  1.3002  0.7149
27423SOL    HW287117   7.552   5.966   4.087  2.1802  0.9617  0.5887
27424SOL     OW87118   8.603   6.573   4.859  0.4845 -0.2606 -0.8389
27424SOL    HW187119   8.593   6.565   4.954 -0.4694  3.7568 -0.4380
27424SOL    HW287120   8.572   6.489   4.825  1.2319 -2.0020  2.3605
27425SOL     OW87121   7.483   0.037   4.087  0.4845  0.9575  0.3304
27425SOL    HW187122   7.561   0.089   4.068  2.1213 -1.2015  0.7724
27425SOL    HW287123   7.479   0.033   4.182  2.0816 -1.9072  0.4046
27426SOL     OW87124   0.206   8.086   6.525  0.2951  0.2537  0.6535
27426SOL    HW187125   0.153   8.074   6.603 -1.7086  1.8611 -0.3474
27426SOL    HW287126   0.182   8.173   6.492 -0.6408 -1.1504 -2.9136
27427SOL     OW87127   7.468   7.499   5.644 -0.4910  0.5889 -0.0153
27427SOL    HW187128   7.527   7.460   5.709 -0.7137  1.1222  0.5146
27427SOL    HW287129   7.392   7.441   5.642 -0.4950  0.5859  0.2228
27428SOL     OW87130   7.654   8.195   5.328  0.8931  0.8018  0.2405
27428SOL    HW187131   7.569   8.185   5.370  0.8071 -0.2885 -0.1624
27428SOL    HW287132   7.702   8.256   5.384 -0.3101  1.7851  0.2219
27429SOL     OW87133   8.584   7.605   7.100 -0.4801 -0.0136 -0.6331
27429SOL    HW187134   8.656   7.574   7.154 -0.7049 -0.4197 -0.5699
27429SOL    HW287135   8.568   7.695   7.131  0.2583  0.2226 -0.9171
27430SOL     OW87136   7.415   7.423   7.406 -0.3149  0.6438 -0.0796
27430SOL    HW187137   7.464   7.487   7.458 -1.0799 -0.3505  1.9594
27430SOL    HW287138   7.481   7.361   7.375  0.2715  1.7398 -1.0942
27431SOL     OW87139   7.951   8.210   7.753  0.6520 -0.1815 -0.0912
27431SOL    HW187140   7.856   8.215   7.760  0.6257 -0.7801  0.0567
27431SOL    HW287141   7.975   8.285   7.698  0.1055  0.0190 -0.0640
27432SOL     OW87142   7.615   6.973   5.962  0.0726  0.4961  0.8437
27432SOL    HW187143   7.562   6.984   6.041 -1.6928 -0.0673 -0.2102
27432SOL    HW287144   7.680   7.044   5.966  0.7814 -0.2001  3.3308
27433SOL     OW87145   8.568   8.883   5.869 -0.0332 -0.0185  0.4656
27433SOL    HW187146   8.639   8.839   5.822 -0.1766  1.1377 -0.8997
27433SOL    HW287147   8.593   8.976   5.867 -1.9589  0.5160 -0.7814
27434SOL     OW87148   5.859   6.891   6.170 -0.3514 -0.2286 -0.4413
27434SOL    HW187149   5.884   6.871   6.260 -1.1669  0.7187  0.0140
27434SOL    HW287150   5.777   6.843   6.156 -1.3528  1.2710  0.0537
27435SOL     OW87151   0.577   8.536   5.517 -0.1894 -0.2092 -0.1803
27435SOL    HW187152   0.581   8.550   5.423 -0.5106  0.4700 -0.0989
27435SOL    HW287153   0.666   8.553   5.548 -0.0449 -0.5937 -0.3767
27436SOL     OW87154   8.330   9.439   6.655 -0.4287 -0.1871 -0.2010
27436SOL    HW187155   8.338   9.350   6.692  2.3399 -0.8271 -1.9949
27436SOL    HW287156   8.285   9.426   6.572 -0.7234  0.2255 -0.1068
27437SOL     OW87157   0.653   8.383   5.901 -0.5895  0.6275  0.1002
27437SOL    HW187158   0.600   8.354   5.975 -1.5496 -0.9085 -1.0994
27437SOL    HW287159   0.739   8.401   5.938 -0.9567 -0.4086  1.5345
27438SOL     OW87160   7.090   7.590   6.027 -0.0912 -0.2527  0.4217
27438SOL    HW187161   7.008   7.603   5.980  0.3997  0.3625 -0.2876
27438SOL    HW287162   7.147   7.546   5.964  0.4644  0.2815  0.5441
27439SOL     OW87163   1.585   7.969   6.356  0.8353 -0.2767  0.5458
27439SOL    HW187164   1.493   7.994   6.372  1.1598  1.2461  0.2562
27439SOL    HW287165   1.631   8.053   6.352  2.0546 -0.9686 -0.4568
27440SOL     OW87166   6.483   5.149   5.689  0.0247  0.0995 -0.0079
27440SOL    HW187167   6.412   5.185   5.636  0.2756  2.0511  0.8982
27440SOL    HW287168   6.470   5.054   5.686 -0.4636  0.1746 -2.8217
27441SOL     OW87169   6.431   0.763   7.518  0.4907 -0.1372 -0.5010
27441SOL    HW187170   6.523   0.740   7.508  0.4032 -0.0508 -1.6418
27441SOL    HW287171   6.393   0.690   7.568  1.3440  0.2591  0.7555
27442SOL     OW87172   8.426   9.493   8.103  0.3887  0.1232  0.4608
27442SOL    HW187173   8.353   9.436   8.079  0.8712 -0.2720 -0.0718
27442SOL    HW287174   8.496   9.434   8.131  0.2446  0.5287  1.7714
27443SOL     OW87175   8.944   0.054   4.659 -0.4001 -0.6321  0.4922
27443SOL    HW187176   8.879   0.118   4.686 -0.7116 -0.7632  0.0716
27443SOL    HW287177   9.026   0.103   4.652 -0.9084  0.0646 -1.2179
27444SOL     OW87178   8.895   7.420   4.742  0.3929  0.2531 -0.0364
27444SOL    HW187179   8.878   7.334   4.780 -0.2650 -0.2798 -1.4821
27444SOL    HW287180   8.819   7.473   4.768 -1.0842 -0.6700 -2.1443
27445SOL     OW87181   6.656   7.377   5.161  0.0133 -0.2944  0.0815
27445SOL    HW187182   6.657   7.407   5.070 -0.7215  0.1491  0.2162
27445SOL    HW287183   6.725   7.311   5.165  1.3835  1.0720 -0.3197
27446SOL     OW87184   8.267   7.344   5.601 -0.0620  0.1030 -0.0055
27446SOL    HW187185   8.333   7.353   5.670  0.6757 -1.4183 -0.4640
27446SOL    HW287186   8.184   7.344   5.648  0.2840  1.2582  0.6565
27447SOL     OW87187   7.117   7.850   6.124 -0.3752  0.0742 -0.6591
27447SOL    HW187188   7.167   7.839   6.205  2.2363 -0.1782 -2.1911
27447SOL    HW287189   7.113   7.762   6.086 -1.0335  0.2927 -1.1048
27448SOL     OW87190   9.168   5.878   3.969  0.2023 -0.5756  0.7849
27448SOL    HW187191   9.153   5.798   4.020  1.2229 -2.6908 -1.9660
27448SOL    HW287192   9.220   5.849   3.894  0.7724  2.7577 -0.2633
27449SOL     OW87193   0.682   7.828   6.306 -0.5196 -0.2463  0.3292
27449SOL    HW187194   0.617   7.883   6.263 -0.3481 -1.7225 -1.9756
27449SOL    HW287195   0.763   7.846   6.259 -0.5400 -2.6695 -0.7592
27450SOL     OW87196   8.516   7.406   6.273  0.0488 -0.0295 -0.0716
27450SOL    HW187197   8.456   7.335   6.249 -0.0850 -0.4208  1.3298
27450SOL    HW287198   8.592   7.394   6.217 -1.4829  1.0146 -2.5696
27451SOL     OW87199   9.381   8.591   7.490 -0.2985 -0.4515 -0.0975
27451SOL    HW187200   9.426   8.675   7.483 -1.3900  0.0520 -1.9570
27451SOL    HW287201   9.440   8.536   7.542  2.2214  0.3272 -1.9178
27452SOL     OW87202   9.667   8.140   7.162 -0.0714  0.3355 -0.1999
27452SOL    HW187203   9.715   8.090   7.095 -0.2523  0.4818 -0.4416
27452SOL    HW287204   9.608   8.077   7.201  2.0884 -0.5275  1.9071
27453SOL     OW87205   8.376   7.555   6.031 -0.0914  0.5623  0.2108
27453SOL    HW187206   8.352   7.622   5.968 -0.8205 -1.0569 -1.3175
27453SOL    HW287207   8.385   7.475   5.979 -2.1860 -1.1945  2.3142
27454SOL     OW87208   8.559   9.046   6.748  0.3778 -0.4816  0.4743
27454SOL    HW187209   8.586   9.088   6.666  1.7661 -0.4632  0.9296
27454SOL    HW287210   8.511   9.115   6.794 -0.0126 -0.3466 -0.1117
27455SOL     OW87211   7.317   8.571   6.837  0.3731  0.3318 -0.4032
27455SOL    HW187212   7.255   8.638   6.868  0.8331  0.7224 -0.3109
27455SOL    HW287213   7.400   8.618   6.830  1.0226 -0.5652  1.0024
27456SOL     OW87214   0.897   6.335   7.090 -0.5047  0.2599 -0.8268
27456SOL    HW187215   0.893   6.254   7.039  0.7529 -0.0391 -0.4931
27456SOL    HW287216   0.982   6.331   7.134 -1.2446  0.8558  0.7127
27457SOL     OW87217   0.250   8.646   6.048 -0.0499 -0.0702 -0.1741
27457SOL    HW187218   0.299   8.686   6.119 -0.8916  0.3698  0.1793
27457SOL    HW287219   0.215   8.720   5.998 -1.3323 -0.3391  0.2773
27458SOL     OW87220   8.911   8.241   5.345 -0.5311  0.0499 -0.2634
27458SOL    HW187221   8.961   8.321   5.355 -1.7532  0.9816 -1.3385
27458SOL    HW287222   8.974   8.177   5.312  0.6563  0.2915  1.4210
27459SOL     OW87223   7.557   8.162   8.112  0.5616  0.1752  0.6878
27459SOL    HW187224   7.555   8.245   8.064  0.4578  0.2686  0.8552
27459SOL    HW287225   7.576   8.187   8.203  1.4236 -0.0505  0.5852
27460SOL     OW87226   8.546   0.341   9.673  0.0764  0.0200 -0.5852
27460SOL    HW187227   8.558   0.246   9.670 -0.4388 -0.0749  0.2547
27460SOL    HW287228   8.518   0.359   9.762  0.1751  0.9674 -0.7406
27461SOL     OW87229   5.740   7.911   5.182  0.4231  0.2290 -0.7521
27461SOL    HW187230   5.768   7.825   5.212  1.2388  0.8799  0.4581
27461SOL    HW287231   5.813   7.969   5.205 -0.3335  1.3298 -1.0408
27462SOL     OW87232   0.096   8.281   5.280  0.0414  0.1995  0.0704
27462SOL    HW187233   0.062   8.349   5.222 -0.1815  0.9198  1.0238
27462SOL    HW287234   0.191   8.294   5.280  0.3423 -1.4175 -2.0974
27463SOL     OW87235   0.437   8.140   5.023  0.2506  0.7714  0.2873
27463SOL    HW187236   0.420   8.189   5.103  2.0882 -0.0756  1.2649
27463SOL    HW287237   0.481   8.202   4.965  1.7620  0.5802  1.1750
27464SOL     OW87238   1.302   7.529   5.933 -0.2858 -0.5032  0.1398
27464SOL    HW187239   1.224   7.565   5.976  0.5410  1.9248 -0.2126
27464SOL    HW287240   1.352   7.490   6.005 -0.1201  1.2405  1.0391
27465SOL     OW87241   7.562   8.575   7.541 -0.4932  0.0557 -0.3060
27465SOL    HW187242   7.649   8.551   7.573 -1.0263 -0.5241  0.7888
27465SOL    HW287243   7.531   8.641   7.603 -1.9656 -1.8422  1.0912
27466SOL     OW87244   9.312   7.936   7.418  0.0668  0.5129  0.0318
27466SOL    HW187245   9.378   7.925   7.350 -0.1351 -1.1114  0.0599
27466SOL    HW287246   9.302   7.849   7.455 -0.8717  1.0884  1.1779
27467SOL     OW87247   6.939   6.001   3.966 -0.0342  0.3187 -0.0456
27467SOL    HW187248   6.944   5.951   4.047  1.5972  2.0410  1.0091
27467SOL    HW287249   6.943   6.092   3.994  3.5165  0.9823 -2.0680
27468SOL     OW87250   6.638   9.589   7.656 -0.6156 -0.7570 -0.2254
27468SOL    HW187251   6.686   9.514   7.692 -0.9642 -1.6123 -1.4708
27468SOL    HW287252   6.651   9.582   7.561 -0.9774  0.5460 -0.3881
27469SOL     OW87253   5.231   7.459   5.857 -0.0357 -0.0233  0.4068
27469SOL    HW187254   5.147   7.443   5.901 -1.4114  0.2897 -1.9208
27469SOL    HW287255   5.223   7.549   5.824  0.5391 -0.5222 -1.1844
27470SOL     OW87256   7.503   6.350   6.790 -0.1247 -0.6267  0.0513
27470SOL    HW187257   7.466   6.351   6.702 -0.4998 -2.2108  0.1725
27470SOL    HW287258   7.502   6.258   6.816 -1.3111 -0.0623  2.2527
27471SOL     OW87259   7.509   7.886   6.077 -0.3950  0.5083 -0.2694
27471SOL    HW187260   7.426   7.861   6.117 -1.1892 -0.0730 -2.1524
27471SOL    HW287261   7.560   7.805   6.075 -0.5473  0.4217 -0.8283
27472SOL     OW87262   7.731   8.621   7.283 -0.2366 -0.1055 -0.0567
27472SOL    HW187263   7.773   8.640   7.367  1.1325  0.1667 -0.7940
27472SOL    HW287264   7.747   8.528   7.269  0.3232  0.0494 -0.4494
27473SOL     OW87265   6.159   8.665   3.376  0.1444 -0.1197 -0.7669
27473SOL    HW187266   6.217   8.595   3.345 -0.2191 -0.0434 -1.6220
27473SOL    HW287267   6.219   8.732   3.409  0.4883 -1.0550  0.5869
27474SOL     OW87268   8.732   8.751   5.700 -0.9565 -0.6406 -0.2377
27474SOL    HW187269   8.708   8.668   5.660 -1.3719 -0.4033 -0.4917
27474SOL    HW287270   8.782   8.797   5.632  0.4166 -1.2080  0.3520
27475SOL     OW87271   7.225   6.187   7.896 -0.0018  0.2883  0.0841
27475SOL    HW187272   7.156   6.249   7.919 -0.4115 -0.0997 -0.0748
27475SOL    HW287273   7.289   6.239   7.847 -0.8023  0.3979 -0.8738
27476SOL     OW87274   7.459   1.134   7.960 -0.2085  0.1310  0.0108
27476SOL    HW187275   7.462   1.039   7.970  1.1495  0.2086  0.4463
27476SOL    HW287276   7.515   1.153   7.885  0.7467  0.6972  0.8389
27477SOL     OW87277   9.213   8.285   6.993 -0.3332  0.7021  0.4862
27477SOL    HW187278   9.248   8.238   7.069  0.8921 -1.3867 -1.2571
27477SOL    HW287279   9.287   8.335   6.960  0.2725 -1.2221 -1.3345
27478SOL     OW87280   7.955   8.788   4.094 -0.5811  0.2940 -0.2583
27478SOL    HW187281   7.864   8.799   4.123 -1.2210  1.2944 -2.4332
27478SOL    HW287282   7.972   8.865   4.039  1.0475 -0.6546 -1.1584
27479SOL     OW87283   6.699   9.038   7.898  0.5794 -0.2766  0.0827
27479SOL    HW187284   6.639   8.965   7.880 -3.6753  2.7691  0.4540
27479SOL    HW287285   6.669   9.109   7.842  2.5852  2.1292  1.7923
27480SOL     OW87286   6.154   8.790   6.505 -0.5759 -0.4637  0.0731
27480SOL    HW187287   6.063   8.811   6.525 -0.2875 -0.3292  1.3434
27480SOL    HW287288   6.202   8.870   6.525 -0.1557 -0.5934 -0.4153
27481SOL     OW87289   0.572   6.901   4.147 -0.2845 -0.0534  0.2293
27481SOL    HW187290   0.497   6.949   4.114  0.2752 -0.5976 -1.9914
27481SOL    HW287291   0.547   6.809   4.142  0.6047 -0.2670 -0.8976
27482SOL     OW87292   7.387   8.665   6.538 -0.5890 -0.9542  0.0294
27482SOL    HW187293   7.437   8.612   6.599 -0.5801  0.1147  0.9898
27482SOL    HW287294   7.451   8.723   6.497 -1.1328  1.3271  2.2229
27483SOL     OW87295   7.312   8.825   6.986 -0.4258 -0.6706 -0.0843
27483SOL    HW187296   7.320   8.769   7.063  0.0932 -1.4702 -0.7019
27483SOL    HW287297   7.399   8.823   6.946 -0.9649 -1.1623 -1.2937
27484SOL     OW87298   8.327   9.286   5.792 -1.0819  0.0627 -0.3601
27484SOL    HW187299   8.319   9.282   5.696  2.8530 -0.9867 -0.8288
27484SOL    HW287300   8.380   9.364   5.808  0.0809 -0.9179  0.7368
27485SOL     OW87301   7.241   9.741   5.244 -0.3253  0.4164  0.1449
27485SOL    HW187302   7.306   9.672   5.254 -0.4678  0.2542 -0.0496
27485SOL    HW287303   7.158   9.695   5.227 -0.5912  0.6029  0.9033
27486SOL     OW87304   1.648   9.478   8.281 -0.5023  0.1509 -0.1027
27486SOL    HW187305   1.718   9.428   8.324 -0.2698 -1.6411 -2.3752
27486SOL    HW287306   1.690   9.557   8.250  0.1995 -0.2694 -0.2457
27487SOL     OW87307   5.877   7.317   6.457  0.3653 -0.1241 -0.1710
27487SOL    HW187308   5.887   7.250   6.390  0.2044 -0.0652 -0.2541
27487SOL    HW287309   5.917   7.395   6.419  0.7832 -0.2374  0.0265
27488SOL     OW87310   8.061   0.745   7.375  0.1240  0.1037  0.1866
27488SOL    HW187311   7.996   0.790   7.321 -0.8136 -0.2098  0.9954
27488SOL    HW287312   8.079   0.664   7.329  1.1466  0.8772 -0.8286
27489SOL     OW87313   7.519   6.548   6.510 -0.4830  0.3354  0.0824
27489SOL    HW187314   7.613   6.555   6.525 -0.7213  1.1538  1.3514
27489SOL    HW287315   7.501   6.609   6.438  0.1560 -0.9618 -1.2279
27490SOL     OW87316   8.053   7.822   5.500  0.1617 -0.4843 -0.0159
27490SOL    HW187317   7.986   7.868   5.550  0.7446 -1.3216  1.6143
27490SOL    HW287318   8.069   7.878   5.424 -0.6285  0.9326  0.8187
27491SOL     OW87319   8.712   0.060   7.504  0.3464  0.2329  0.7156
27491SOL    HW187320   8.786   0.108   7.468 -0.1202  1.9723  1.9350
27491SOL    HW287321   8.719   0.072   7.599 -2.1212  1.5572  0.8334
27492SOL     OW87322   8.839   9.410   6.360  0.2855  0.0363 -0.3591
27492SOL    HW187323   8.909   9.351   6.388 -0.2021 -0.1863  0.4516
27492SOL    HW287324   8.762   9.378   6.407 -0.3362  0.3520 -1.1322
27493SOL     OW87325   6.315   9.654   8.517 -0.2622  0.5013 -0.4594
27493SOL    HW187326   6.327   9.561   8.500 -1.5638  0.4547 -1.2652
27493SOL    HW287327   6.231   9.660   8.561  0.6574  1.1530  1.2914
27494SOL     OW87328   7.880   7.725   5.798 -0.4460 -0.0852  0.3802
27494SOL    HW187329   7.970   7.694   5.788  0.9883  3.9116 -1.0555
27494SOL    HW287330   7.829   7.668   5.740  1.2236 -2.0285  0.7184
27495SOL     OW87331   8.295   8.726   7.027  0.6772 -0.0245  0.8153
27495SOL    HW187332   8.231   8.698   6.962  1.8967  1.3885 -1.1199
27495SOL    HW287333   8.245   8.780   7.089 -0.6370 -1.9551  1.5470
27496SOL     OW87334   9.249   6.908   5.878  0.2045  0.1612 -0.6461
27496SOL    HW187335   9.242   6.928   5.785  0.7123  0.2778 -0.6630
27496SOL    HW287336   9.250   6.812   5.882 -1.6207  0.0999 -0.6112
27497SOL     OW87337   6.006   6.547   5.149  0.5045 -0.0622 -0.5599
27497SOL    HW187338   6.058   6.586   5.079 -0.0330  2.9348  0.5750
27497SOL    HW287339   6.071   6.517   5.213  0.9262 -0.8061 -1.3209
27498SOL     OW87340   7.347   9.220   5.456 -0.1437 -0.7063 -0.0014
27498SOL    HW187341   7.371   9.218   5.364  0.8270  0.8506  0.1804
27498SOL    HW287342   7.330   9.129   5.479  0.6117 -1.2363 -1.4599
27499SOL     OW87343   8.152   7.387   4.624 -0.2513  0.1757  0.0219
27499SOL    HW187344   8.184   7.298   4.611 -1.0378  0.0985 -1.5568
27499SOL    HW287345   8.230   7.438   4.645  0.0587 -1.0778  2.2495
27500SOL     OW87346   8.035   8.801   4.509 -0.1530 -0.0426  0.2830
27500SOL    HW187347   8.073   8.720   4.473  0.7333 -0.1199  1.3478
27500SOL    HW287348   8.097   8.828   4.577 -1.3605  0.5502  1.1761
27501SOL     OW87349   5.309   0.004   6.361  0.3749  0.4955 -0.1647
27501SOL    HW187350   5.243   0.057   6.405  2.5165  2.7372  0.5874
27501SOL    HW287351   5.329   0.053   6.281  0.3703 -0.7166 -0.9270
27502SOL     OW87352   7.991   8.013   5.017 -0.3042  0.3864 -0.2431
27502SOL    HW187353   7.927   7.943   5.009  0.9594 -0.9173  0.6329
27502SOL    HW287354   7.939   8.092   5.031 -1.7489 -0.3631 -1.1737
27503SOL     OW87355   8.848   5.985   6.410 -0.0193 -0.6898 -0.5185
27503SOL    HW187356   8.783   6.017   6.348  0.0886  1.1692  0.2791
27503SOL    HW287357   8.896   6.063   6.438  1.2823 -1.7585  0.3690
27504SOL     OW87358   8.904   0.900   6.800  0.5061 -0.0641 -0.0651
27504SOL    HW187359   8.863   0.934   6.880 -0.1550  0.3486 -0.5668
27504SOL    HW287360   8.940   0.815   6.826 -0.6172 -0.4177  0.4338
27505SOL     OW87361   9.494   9.505   8.474  0.5555 -0.1808  0.1714
27505SOL    HW187362   9.485   9.447   8.398  2.5462 -0.6266  0.2045
27505SOL    HW287363   9.534   9.585   8.439 -0.0562  0.2698  0.4925
27506SOL     OW87364   7.791   8.725   5.751 -0.4378 -0.4288 -0.9028
27506SOL    HW187365   7.762   8.722   5.842 -2.1030 -0.0523 -1.3940
27506SOL    HW287366   7.797   8.818   5.731 -1.2761 -0.4950 -1.5218
27507SOL     OW87367   9.068   8.528   7.995 -0.0267  0.5424  0.4407
27507SOL    HW187368   9.034   8.549   7.908 -1.0517 -0.5040  0.5527
27507SOL    HW287369   9.159   8.503   7.980  0.1984  1.6451 -0.1357
27508SOL     OW87370   8.409   7.298   5.370 -0.3779  0.2622  0.5896
27508SOL    HW187371   8.495   7.301   5.412 -0.2250 -1.6247  0.4969
27508SOL    HW287372   8.347   7.316   5.441  0.0110 -0.2021  1.0530
27509SOL     OW87373   4.816   7.311   6.445  0.1565  0.2422  0.2375
27509SOL    HW187374   4.735   7.358   6.463 -0.3936  0.1384 -1.8199
27509SOL    HW287375   4.875   7.377   6.409  0.7376  0.1360  0.9468
27510SOL     OW87376   8.743   8.703   8.017 -0.5752 -0.1093 -0.0367
27510SOL    HW187377   8.660   8.732   8.054 -0.7895 -2.1671  1.2937
27510SOL    HW287378   8.726   8.695   7.923 -1.7740 -0.1580  0.1660
27511SOL     OW87379   7.292   9.401   5.964 -0.1588  0.1473 -0.3850
27511SOL    HW187380   7.257   9.329   5.910  1.7810 -0.3376 -1.0769
27511SOL    HW287381   7.364   9.437   5.912  0.4717  0.9984  1.0253
27512SOL     OW87382   3.112   8.595   7.180  0.2635  0.2668  0.7742
27512SOL    HW187383   3.133   8.683   7.213  0.6874  0.4154  0.1307
27512SOL    HW287384   3.129   8.537   7.255  2.1976  0.4799  0.5455
27513SOL     OW87385   8.312   7.358   9.420 -0.1270  0.0481 -0.5705
27513SOL    HW187386   8.351   7.422   9.361 -0.6521  1.6604  0.7691
27513SOL    HW287387   8.345   7.382   9.507  2.3552 -3.5340 -0.2879
27514SOL     OW87388   7.815   9.204   6.102  0.1351 -0.4721 -0.6182
27514SOL    HW187389   7.838   9.118   6.139 -0.8546 -0.2461  0.5998
27514SOL    HW287390   7.840   9.198   6.010  0.6868 -1.8341 -0.4106
27515SOL     OW87391   8.721   7.651   7.554 -0.3403  0.3985 -0.2326
27515SOL    HW187392   8.717   7.740   7.519  0.0100  0.5309  0.0572
27515SOL    HW287393   8.753   7.598   7.480 -1.2353  0.3873 -0.6243
27516SOL     OW87394   9.470   2.061   4.747  0.3579 -0.0136 -0.3926
27516SOL    HW187395   9.395   2.014   4.782  1.7111 -1.2394  1.0275
27516SOL    HW287396   9.465   2.047   4.652  0.0192 -2.0404 -0.1233
27517SOL     OW87397   9.033   9.679   6.393 -0.4900 -0.8824  0.6072
27517SOL    HW187398   8.987   9.617   6.451 -0.6659 -0.3734  1.0259
27517SOL    HW287399   8.998   9.765   6.419 -0.8872 -0.6777 -0.5501
27518SOL     OW87400   0.137   9.433   7.302  0.4267  0.3162  0.6004
27518SOL    HW187401   0.104   9.516   7.336 -0.3410 -0.1534  1.0291
27518SOL    HW287402   0.075   9.367   7.334  0.1271 -0.2539 -1.0096
27519SOL     OW87403   7.352   6.244   7.568  0.4343  0.0437 -0.0092
27519SOL    HW187404   7.413   6.171   7.558  0.5651  0.3348 -1.4713
27519SOL    HW287405   7.304   6.247   7.485 -0.1777  1.0799  0.3639
27520SOL     OW87406   7.299   8.216   5.906  0.2961 -0.3212 -0.0804
27520SOL    HW187407   7.325   8.125   5.917  1.1009 -0.1777 -0.7227
27520SOL    HW287408   7.381   8.265   5.907 -0.1515  0.4525  0.6772
27521SOL     OW87409   8.746   9.334   7.867  0.4097 -0.4339 -0.0045
27521SOL    HW187410   8.842   9.337   7.867  0.4336 -0.0684  1.6333
27521SOL    HW287411   8.722   9.325   7.775  1.9758  0.5651 -0.5539
27522SOL     OW87412   0.819   7.507   5.778  0.4492 -0.1298  0.5388
27522SOL    HW187413   0.766   7.489   5.700 -1.9287  0.1239  1.9673
27522SOL    HW287414   0.866   7.425   5.794 -0.2326 -0.7081 -0.2957
27523SOL     OW87415   0.315   0.275   6.120 -0.1092  0.0511  0.5142
27523SOL    HW187416   0.364   0.315   6.048  1.7744 -0.9862  1.1215
27523SOL    HW287417   0.297   0.347   6.180 -1.1799  0.8177 -0.6810
27524SOL     OW87418   8.719   5.675   4.966 -0.4341 -0.4677 -0.1919
27524SOL    HW187419   8.721   5.716   5.052  0.3835 -0.9885  0.0495
27524SOL    HW287420   8.656   5.603   4.975 -0.4473 -0.4407 -0.0668
27525SOL     OW87421   1.133   6.605   7.530  0.3250  0.4168  0.4137
27525SOL    HW187422   1.172   6.517   7.529 -0.3247  0.0538 -2.6905
27525SOL    HW287423   1.197   6.659   7.577  2.3237 -1.0953 -0.4300
27526SOL     OW87424   0.959   8.059   1.002  0.0960 -0.6664 -0.5866
27526SOL    HW187425   0.959   7.992   0.933  0.8312 -0.9163 -0.3558
27526SOL    HW287426   1.048   8.095   1.000 -0.1189 -0.1000 -0.3129
27527SOL     OW87427   8.416   7.553   5.292 -0.2537 -0.3526 -0.2578
27527SOL    HW187428   8.409   7.463   5.323  0.4299  0.1959  1.6146
27527SOL    HW287429   8.501   7.556   5.248  0.5943 -0.2096  1.3079
27528SOL     OW87430   0.658   7.936   7.465 -0.3845  0.0611  0.2735
27528SOL    HW187431   0.632   8.008   7.408  0.2002  0.7757  0.8880
27528SOL    HW287432   0.615   7.955   7.549 -1.0176 -0.8313  0.1731
27529SOL     OW87433   1.623   7.592   7.573 -0.4682  0.0976 -0.1017
27529SOL    HW187434   1.709   7.634   7.567  0.1488 -1.1818 -0.5877
27529SOL    HW287435   1.619   7.557   7.663  0.1596 -1.1072 -0.5178
27530SOL     OW87436   7.588   5.876   7.885 -0.4826 -0.0175 -0.0147
27530SOL    HW187437   7.557   5.943   7.947  0.6704  1.3702 -0.8630
27530SOL    HW287438   7.678   5.902   7.866 -1.1550  0.3883 -3.2416
27531SOL     OW87439   9.647   7.965   7.458  0.2575 -0.3064  0.3648
27531SOL    HW187440   9.587   7.977   7.384 -0.2352  0.4541  0.8668
27531SOL    HW287441   9.657   7.871   7.465  1.0789 -0.3783 -1.2688
27532SOL     OW87442   7.494   9.532   6.851  0.3702  0.2177  0.0178
27532SOL    HW187443   7.400   9.516   6.845  0.5106 -0.3615 -0.8724
27532SOL    HW287444   7.501   9.628   6.851 -0.2997  0.3260  2.1449
27533SOL     OW87445   7.697   8.372   4.795  0.8091 -0.3975 -0.4981
27533SOL    HW187446   7.696   8.320   4.876  1.1089  1.5457  0.8457
27533SOL    HW287447   7.690   8.463   4.826  0.7072  0.3961 -2.6987
27534SOL     OW87448   7.542   8.347   5.867 -0.1195  0.1403  0.1608
27534SOL    HW187449   7.627   8.381   5.896 -0.3760  0.1859  0.8609
27534SOL    HW287450   7.521   8.399   5.790  0.1549  0.6133  0.4025
27535SOL     OW87451   7.750   8.247   6.844 -0.2236 -0.0342 -0.0711
27535SOL    HW187452   7.827   8.189   6.847  0.1362  0.4611  0.4521
27535SOL    HW287453   7.676   8.188   6.833  0.2577 -0.5002 -0.8823
27536SOL     OW87454   8.839   8.961   5.024  0.3172 -0.0079 -0.0139
27536SOL    HW187455   8.814   9.048   5.055  0.4181 -0.1307  0.4196
27536SOL    HW287456   8.865   8.975   4.933 -1.3045  0.1196 -0.4814
27537SOL     OW87457   6.793   8.780   4.533  0.2005  0.0740 -0.0119
27537SOL    HW187458   6.777   8.789   4.439  0.5676  0.3300 -0.0555
27537SOL    HW287459   6.730   8.715   4.563  0.4066 -0.3631 -0.5276
27538SOL     OW87460   1.754   7.610   7.201  0.3259 -0.0503  0.3265
27538SOL    HW187461   1.840   7.633   7.235  0.4773 -0.5058  0.2475
27538SOL    HW287462   1.697   7.682   7.231  1.2075  1.6758 -1.8535
27539SOL     OW87463   7.127   8.286   5.336  0.5147  0.3493 -0.6126
27539SOL    HW187464   7.044   8.304   5.293 -0.5186  1.6494  1.7370
27539SOL    HW287465   7.104   8.231   5.411  1.0361  3.6836  2.2517
27540SOL     OW87466   8.184   1.246   7.028  0.4008 -0.9225  0.6473
27540SOL    HW187467   8.138   1.203   6.956 -0.4226  0.2490  0.4417
27540SOL    HW287468   8.140   1.215   7.107 -0.1950 -0.4683  0.5006
27541SOL     OW87469   8.657   8.255   7.272 -0.2614  0.1356 -0.4606
27541SOL    HW187470   8.615   8.199   7.206 -0.0384 -0.2828 -0.2489
27541SOL    HW287471   8.750   8.254   7.249 -0.0108 -0.9306  0.5154
27542SOL     OW87472   8.071   7.638   9.312  0.3695 -0.0485 -0.0391
27542SOL    HW187473   8.130   7.709   9.288  0.6208 -0.3532 -0.3326
27542SOL    HW287474   8.126   7.560   9.315  0.3712 -0.0194  1.6333
27543SOL     OW87475   6.995   8.599   7.953  0.2059 -0.2553 -0.5529
27543SOL    HW187476   6.925   8.659   7.980  0.3112 -0.5132  0.3280
27543SOL    HW287477   6.983   8.522   8.009  1.2381 -0.2796 -0.3489
27544SOL     OW87478   7.610   8.976   9.343 -0.5662  0.1123 -0.4011
27544SOL    HW187479   7.521   8.945   9.354  0.1187 -1.3272  2.0661
27544SOL    HW287480   7.606   9.069   9.366 -1.2607 -0.2446  1.0815
27545SOL     OW87481   7.590   7.609   7.536 -0.1827  0.8531  0.1875
27545SOL    HW187482   7.660   7.555   7.571 -1.2761 -0.8916 -0.1860
27545SOL    HW287483   7.554   7.655   7.612 -0.2764 -0.2177  0.8064
27546SOL     OW87484   7.864   9.719   7.137 -0.3482 -0.0695  0.0943
27546SOL    HW187485   7.798   9.777   7.098 -0.6674 -0.8163 -0.5001
27546SOL    HW287486   7.822   9.682   7.214 -0.6610 -0.5983 -0.3230
27547SOL     OW87487   8.872   0.232   7.713 -0.3276 -0.4109  0.0081
27547SOL    HW187488   8.879   0.310   7.767  1.2922  0.3869 -1.2729
27547SOL    HW287489   8.881   0.159   7.775 -1.5843  0.3820  1.1732
27548SOL     OW87490   5.993   8.050   0.367  0.7738 -0.1057  0.6436
27548SOL    HW187491   6.015   7.990   0.295 -0.3445 -1.0353  1.0530
27548SOL    HW287492   6.023   8.005   0.446 -0.6384 -0.4286  1.0101
27549SOL     OW87493   7.916   8.991   9.698 -0.1687  0.3276  0.3303
27549SOL    HW187494   7.993   8.934   9.703 -0.7230 -0.4330  0.3977
27549SOL    HW287495   7.926   9.038   9.615  0.0961 -0.1754  0.0696
27550SOL     OW87496   7.379   7.033   7.780 -0.5899 -0.1191 -0.5182
27550SOL    HW187497   7.429   7.029   7.698 -1.1740 -2.4754 -0.8311
27550SOL    HW287498   7.296   7.074   7.756  0.3800  2.0531 -0.3941
27551SOL     OW87499   7.135   8.070   8.727 -0.3827  0.1173  0.4790
27551SOL    HW187500   7.218   8.080   8.775  1.0472 -1.5974 -1.4330
27551SOL    HW287501   7.109   7.979   8.744 -1.1733  0.2485  0.0024
27552SOL     OW87502   7.826   7.884   8.905 -0.8431 -0.1369 -0.6789
27552SOL    HW187503   7.899   7.915   8.959 -0.7993 -0.1230 -0.7455
27552SOL    HW287504   7.799   7.962   8.856 -1.2398 -0.0137 -0.2741
27553SOL     OW87505   8.996   0.065   8.779  0.6007 -0.4919 -0.1698
27553SOL    HW187506   9.083   0.095   8.751  0.6373 -1.2363 -0.8993
27553SOL    HW287507   8.999  -0.031   8.769 -0.2661 -0.5365 -0.0897
27554SOL     OW87508   8.576   1.090   8.733 -0.4359  0.4658 -0.1866
27554SOL    HW187509   8.558   1.004   8.770 -2.7011  0.8773 -0.2250
27554SOL    HW287510   8.667   1.108   8.757 -0.9465 -0.4619  2.7859
27555SOL     OW87511   7.934   8.649   7.874 -0.3568 -0.5783 -0.2627
27555SOL    HW187512   7.986   8.590   7.929 -0.4040 -0.1629  0.2332
27555SOL    HW287513   7.997   8.714   7.842 -0.5338 -0.1628  0.2165
27556SOL     OW87514   7.786   0.901   9.131  0.2582 -0.0905 -0.3872
27556SOL    HW187515   7.858   0.839   9.145  0.4782  0.3170  0.2970
27556SOL    HW287516   7.722   0.851   9.080  0.3999 -0.9136  0.2186
27557SOL     OW87517   7.859   8.849   9.375  0.2653 -0.1858 -0.0973
27557SOL    HW187518   7.778   8.896   9.355 -1.0714 -1.5700  1.7584
27557SOL    HW287519   7.929   8.910   9.350 -1.3115  1.1430 -1.5371
27558SOL     OW87520   7.701   9.315   7.694 -0.3812  0.1277 -0.6381
27558SOL    HW187521   7.689   9.222   7.711  0.5839  0.1595  0.3716
27558SOL    HW287522   7.668   9.358   7.773  0.9933  0.5079 -0.2444
27559SOL     OW87523   8.800   0.455   6.476  0.2644  0.3605  0.1382
27559SOL    HW187524   8.831   0.370   6.509  0.2782 -0.6477 -2.3131
27559SOL    HW287525   8.746   0.434   6.401  0.6882  2.5544 -0.8630
27560SOL     OW87526   1.287   8.823   0.610 -0.3684 -0.1193  0.0842
27560SOL    HW187527   1.265   8.912   0.636 -2.1304 -0.8922  1.4790
27560SOL    HW287528   1.351   8.793   0.675  0.6735  0.2774 -0.7230
27561SOL     OW87529   0.489   8.702   9.005 -0.6607 -0.3174 -0.2356
27561SOL    HW187530   0.415   8.736   9.055  0.0249  0.3519  0.3370
27561SOL    HW287531   0.540   8.779   8.980  1.1041 -0.8956  1.3779
27562SOL     OW87532   8.206   8.382   0.697 -0.2643 -0.2184  0.1356
27562SOL    HW187533   8.280   8.336   0.656 -0.5594 -1.1602  0.6442
27562SOL    HW287534   8.140   8.388   0.628 -0.5134 -1.2386  0.2694
27563SOL     OW87535   8.549   8.849   9.299 -0.4537 -0.1109 -0.4563
27563SOL    HW187536   8.533   8.915   9.367 -1.7922  0.2356 -1.0770
27563SOL    HW287537   8.618   8.887   9.244 -1.0782  0.6848 -0.6944
27564SOL     OW87538   9.773   0.354   4.927 -0.2142  0.1253  0.2979
27564SOL    HW187539   9.841   0.331   4.863  0.0306  1.2124  0.1531
27564SOL    HW287540   9.691   0.343   4.879 -0.0580  0.4437 -0.0448
27565SOL     OW87541   7.312   8.105   9.323 -0.4762  0.3333 -0.1848
27565SOL    HW187542   7.406   8.086   9.319 -0.2461  1.3914 -0.2859
27565SOL    HW287543   7.278   8.073   9.240 -0.0370  0.7252 -0.5230
27566SOL     OW87544   0.435   8.030   7.086 -0.2402 -0.0300  0.7565
27566SOL    HW187545   0.448   8.061   7.175 -1.1292 -0.1741  0.9470
27566SOL    HW287546   0.491   8.086   7.032 -0.0264  0.3406  1.3562
27567SOL     OW87547   9.233   7.274   9.542 -0.1712 -0.3722 -0.1176
27567SOL    HW187548   9.262   7.330   9.614 -0.6632 -1.7204  1.1876
27567SOL    HW287549   9.308   7.219   9.523 -0.1135 -0.1670 -0.4808
27568SOL     OW87550   6.460   5.217   9.320 -0.2733  0.0771 -0.3914
27568SOL    HW187551   6.452   5.129   9.283 -0.8064 -0.2835  0.5371
27568SOL    HW287552   6.408   5.213   9.400  0.5081  0.9534  0.1668
27569SOL     OW87553   9.155   9.602   7.691  0.3176  0.8018  0.1422
27569SOL    HW187554   9.096   9.544   7.642  0.4361  0.6745  0.1490
27569SOL    HW287555   9.117   9.604   7.779  0.3726  0.6452  0.1712
27570SOL     OW87556   8.962   9.123   8.045 -0.1225 -0.1983  0.2918
27570SOL    HW187557   8.879   9.165   8.022  0.6188  0.2018 -1.8373
27570SOL    HW287558   9.018   9.195   8.073  0.5374  0.0345 -1.5157
27571SOL     OW87559   6.779   9.635   8.782  0.3473 -0.3636  0.5390
27571SOL    HW187560   6.838   9.679   8.844 -0.8047  1.2865  0.5426
27571SOL    HW287561   6.693   9.671   8.802 -0.2333 -0.6398 -1.2700
27572SOL     OW87562   8.902   0.881   7.952  0.1824 -0.3522  0.0488
27572SOL    HW187563   8.814   0.899   7.986  0.1607  1.5354 -0.8699
27572SOL    HW287564   8.945   0.832   8.022 -0.4985  1.6662  2.0102
27573SOL     OW87565   9.085   9.512   0.077 -0.0889 -0.2639 -0.1057
27573SOL    HW187566   9.169   9.503   0.123  0.7403 -1.5653 -1.7672
27573SOL    HW287567   9.071   9.606   0.071 -0.4958 -0.0070  3.1462
27574SOL     OW87568   7.245   8.066   0.127 -0.1162 -0.2931 -0.1309
27574SOL    HW187569   7.209   8.149   0.161 -0.4357  0.2253 -1.6465
27574SOL    HW287570   7.204   7.999   0.181  1.0431  0.5443  1.9224
27575SOL     OW87571   8.949   9.481   9.232 -0.0372 -0.0910  0.3571
27575SOL    HW187572   9.039   9.492   9.203 -0.1262  0.1640  0.1763
27575SOL    HW287573   8.954   9.480   9.327  0.1543 -0.0552  0.3472
27576SOL     OW87574   9.130   0.207   8.280  0.1080 -0.1153  0.2831
27576SOL    HW187575   9.095   0.142   8.340 -3.3159  0.6080 -0.6946
27576SOL    HW287576   9.146   0.284   8.334  0.7046 -0.6317  0.8520
27577SOL     OW87577   7.734   6.996   6.823 -0.1405 -0.7295  0.4426
27577SOL    HW187578   7.708   7.066   6.763  0.7622 -0.0921  0.7588
27577SOL    HW287579   7.652   6.956   6.851 -0.6399 -0.1948 -0.2135
27578SOL     OW87580   6.801   6.795   8.051 -0.2126 -0.3751  0.9175
27578SOL    HW187581   6.808   6.878   8.004 -0.2213 -1.3177 -0.8229
27578SOL    HW287582   6.800   6.820   8.144 -1.5837  1.6614  0.4246
27579SOL     OW87583   0.885   8.923   6.761 -0.0534  0.3616 -0.5998
27579SOL    HW187584   0.966   8.974   6.770  0.5428 -0.2753 -2.1484
27579SOL    HW287585   0.911   8.833   6.780 -0.2429  0.0549 -1.7430
27580SOL     OW87586   8.917   8.965   0.616 -0.1681 -0.3577  0.2130
27580SOL    HW187587   8.980   8.903   0.582  0.4297  0.1131  0.4440
27580SOL    HW287588   8.967   9.019   0.677 -0.8359 -0.1033  0.5454
27581SOL     OW87589   8.582   7.579   9.801 -0.3054 -0.3608  0.2838
27581SOL    HW187590   8.631   7.502   9.828 -1.7720 -1.1557  0.7763
27581SOL    HW287591   8.515   7.590   9.869 -0.0189  1.4779  0.3394
27582SOL     OW87592   6.212   8.581   8.521  0.3031 -0.5068  0.1149
27582SOL    HW187593   6.262   8.529   8.459  1.1941 -0.3785  0.7028
27582SOL    HW287594   6.130   8.532   8.533  0.5910 -1.1027 -0.3113
27583SOL     OW87595   7.846   9.567   6.388  0.3919  0.3609  0.0878
27583SOL    HW187596   7.759   9.559   6.427  0.3831  1.1818  0.2344
27583SOL    HW287597   7.874   9.655   6.409  1.5378 -0.1131  0.5940
27584SOL     OW87598   0.309   9.718   8.317  0.2921  0.2388  0.8912
27584SOL    HW187599   0.289   9.693   8.227 -0.5391 -1.3252  1.4671
27584SOL    HW287600   0.273   9.806   8.326  0.4378  0.4394 -0.3065
27585SOL     OW87601   9.538   7.888   9.356 -0.3520  0.2754  0.1965
27585SOL    HW187602   9.540   7.952   9.427 -0.3775 -0.1149  0.5524
27585SOL    HW287603   9.457   7.838   9.371 -0.1042 -0.1346  0.1876
27586SOL     OW87604   7.998   9.710   9.143 -0.0585 -0.4808 -0.0889
27586SOL    HW187605   8.047   9.759   9.210 -0.4089 -0.2947  0.0361
27586SOL    HW287606   8.004   9.764   9.065  1.8336 -1.5196 -0.7237
27587SOL     OW87607   9.277   9.558   8.639  0.6835 -0.2252  0.1442
27587SOL    HW187608   9.371   9.548   8.622  0.7321 -3.9882  1.7471
27587SOL    HW287609   9.235   9.506   8.571  0.0400 -1.8356  1.7096
27588SOL     OW87610   0.113   8.937   1.450  0.1994  0.8714  0.5154
27588SOL    HW187611   0.124   8.872   1.519 -0.2486 -0.3812 -0.5545
27588SOL    HW287612   0.197   8.940   1.406 -0.4861 -0.9741 -1.0728
27589SOL     OW87613   8.624   6.409   6.771 -0.0895 -0.0044  0.1619
27589SOL    HW187614   8.548   6.451   6.731  0.1621  0.5780  0.2887
27589SOL    HW287615   8.586   6.342   6.828 -0.4455 -1.3240 -1.5276
27590SOL     OW87616   8.536   7.672   8.984  0.0638 -0.2951  0.3330
27590SOL    HW187617   8.613   7.718   9.016  0.5133 -0.4217 -0.5130
27590SOL    HW287618   8.461   7.721   9.018  0.4823 -0.9370  2.2850
27591SOL     OW87619   9.616   8.590   0.732  0.1372 -0.6985 -0.0800
27591SOL    HW187620   9.538   8.641   0.709  1.5579  1.6939 -0.0007
27591SOL    HW287621   9.675   8.654   0.773  1.6365 -2.6935  1.0797
27592SOL     OW87622   5.271   1.028   8.254 -0.1324 -0.5524  0.2439
27592SOL    HW187623   5.308   0.973   8.323 -1.0622 -1.0251  0.3850
27592SOL    HW287624   5.219   1.093   8.299  0.1631 -0.1611  0.0294
27593SOL     OW87625   8.397   9.190   7.737 -0.1733  0.2545 -0.6160
27593SOL    HW187626   8.485   9.183   7.700 -0.0745  1.6138 -0.7045
27593SOL    HW287627   8.379   9.284   7.737 -1.7615 -0.0280 -0.8794
27594SOL     OW87628   8.613   1.960   6.946 -0.3083  0.1859 -0.0209
27594SOL    HW187629   8.613   2.016   7.024 -0.0008 -1.9534  1.6229
27594SOL    HW287630   8.700   1.920   6.945 -0.7464 -0.7956 -0.7085
27595SOL     OW87631   7.639   8.614   5.508 -0.3525  0.6888  0.6411
27595SOL    HW187632   7.568   8.658   5.461 -0.5271  2.9033  2.7618
27595SOL    HW287633   7.609   8.610   5.599  1.3103 -0.3940  1.1827
27596SOL     OW87634   9.403   0.486   9.266  0.6997  0.5631 -0.5914
27596SOL    HW187635   9.468   0.517   9.329  0.5826  1.2021 -0.7853
27596SOL    HW287636   9.441   0.505   9.180 -0.3414  2.2687 -0.7241
27597SOL     OW87637   7.181   0.554   9.535 -0.1302  0.4910  0.3916
27597SOL    HW187638   7.116   0.568   9.466  1.8628  0.2117 -1.6632
27597SOL    HW287639   7.265   0.549   9.488  1.2518 -0.3706  2.7916
27598SOL     OW87640   8.919   8.937   6.501 -0.0616  0.1032 -0.2796
27598SOL    HW187641   8.942   8.929   6.593  1.2352  0.7503 -0.5250
27598SOL    HW287642   8.982   9.000   6.465 -2.0462  1.7575 -1.0948
27599SOL     OW87643   8.535   6.806   8.275 -0.5288  0.3093  0.6595
27599SOL    HW187644   8.561   6.761   8.196 -0.8260 -0.0092  0.7420
27599SOL    HW287645   8.524   6.737   8.340 -2.5585  0.2883  0.3754
27600SOL     OW87646   9.806   8.483   8.153  0.8149 -0.5687  0.2311
27600SOL    HW187647   9.771   8.550   8.211 -1.9382  0.3597 -2.2223
27600SOL    HW287648   9.865   8.531   8.094 -1.2253 -0.1252 -1.5839
27601SOL     OW87649   7.405   9.007   8.022 -0.2075 -0.3369 -0.3056
27601SOL    HW187650   7.444   8.931   8.064 -0.4413  0.1203  0.7692
27601SOL    HW287651   7.417   9.078   8.085  2.4033  1.1956 -2.3520
27602SOL     OW87652   6.734   7.876   8.528  0.4076  0.4629 -0.0923
27602SOL    HW187653   6.658   7.821   8.547  0.8546 -0.9752 -2.1254
27602SOL    HW287654   6.808   7.830   8.568  0.4871  0.8460  0.2139
27603SOL     OW87655   8.836   0.572   9.708 -0.1768 -0.3694 -0.3261
27603SOL    HW187656   8.894   0.496   9.709 -1.0730 -1.0700 -0.0137
27603SOL    HW287657   8.866   0.625   9.781  0.1753 -0.6511 -0.2630
27604SOL     OW87658   8.037   0.889   6.702 -1.0814 -0.3469 -0.2781
27604SOL    HW187659   8.003   0.975   6.727  0.7350 -0.0195  1.3771
27604SOL    HW287660   8.117   0.908   6.653  0.1524 -1.0262  1.3685
27605SOL     OW87661   8.325   8.745   9.564  0.1456  0.1485  0.9919
27605SOL    HW187662   8.418   8.766   9.567  0.1615 -0.0184  1.9069
27605SOL    HW287663   8.320   8.654   9.594 -0.1339 -0.5158 -0.9006
27606SOL     OW87664   9.469   9.300   8.924  0.3234  0.1388 -0.4399
27606SOL    HW187665   9.503   9.211   8.916  0.8715  0.2658  0.3457
27606SOL    HW287666   9.430   9.318   8.838 -0.6053 -1.1794 -0.3215
27607SOL     OW87667   6.405   6.270   8.086  0.4622 -0.1425 -0.4143
27607SOL    HW187668   6.418   6.176   8.080  0.2421 -0.3124  1.2907
27607SOL    HW287669   6.491   6.305   8.110 -0.0068 -0.2067  1.4386
27608SOL     OW87670   6.315   6.815   8.561 -0.3982  0.4175 -0.0228
27608SOL    HW187671   6.330   6.735   8.611  1.3615 -0.0901 -1.2708
27608SOL    HW287672   6.270   6.786   8.482 -0.1979  0.7360 -0.2549
27609SOL     OW87673   8.767   7.823   8.547  0.3693 -0.3452 -0.8406
27609SOL    HW187674   8.855   7.850   8.518  0.2002  1.3900  0.1056
27609SOL    HW287675   8.771   7.728   8.549  2.4002 -0.3071 -0.3354
27610SOL     OW87676   8.329   8.828   9.102 -0.1254  0.2019  0.1254
27610SOL    HW187677   8.364   8.824   9.191  1.0361 -0.4447 -0.3440
27610SOL    HW287678   8.390   8.884   9.055  0.1332 -0.6932 -0.6326
27611SOL     OW87679   8.803   9.018   6.895  0.0867  0.0803 -0.3128
27611SOL    HW187680   8.721   9.047   6.854 -0.4346 -0.7602  0.1257
27611SOL    HW287681   8.799   9.052   6.984 -0.7234 -1.6379  0.3415
27612SOL     OW87682   9.408   6.664   5.147  0.0569 -0.1888 -0.1475
27612SOL    HW187683   9.340   6.658   5.081 -1.0954 -1.7553  1.0858
27612SOL    HW287684   9.444   6.575   5.153  0.4577  0.0222  0.9741
27613SOL     OW87685   9.692   8.763   8.085  0.1144  0.0657  0.4593
27613SOL    HW187686   9.766   8.738   8.031  0.6898 -0.2895  1.3802
27613SOL    HW287687   9.722   8.749   8.175 -1.0136  0.0714  0.8559
27614SOL     OW87688   6.033   5.274   8.610 -0.0621 -0.4459 -0.1325
27614SOL    HW187689   5.982   5.336   8.558 -0.9074 -0.5584  0.5496
27614SOL    HW287690   6.100   5.327   8.652 -0.5648 -0.0531  0.1719
27615SOL     OW87691   8.196   8.728   8.897  0.0122  0.3727 -0.1347
27615SOL    HW187692   8.242   8.759   8.975  0.0341 -0.0434  0.0236
27615SOL    HW287693   8.263   8.684   8.845 -0.2631 -0.5448  0.2669
27616SOL     OW87694   8.892   7.594   8.357 -0.2454 -0.2913 -0.0071
27616SOL    HW187695   8.832   7.582   8.431  0.6286  0.5091  0.8634
27616SOL    HW287696   8.972   7.548   8.383  1.6596  3.3981  1.5716
27617SOL     OW87697   7.147   0.908   7.837 -0.0624  0.4090  0.2466
27617SOL    HW187698   7.149   0.863   7.752  1.1746  2.7529 -1.0641
27617SOL    HW287699   7.089   0.982   7.822 -0.7446  0.2250  1.8524
27618SOL     OW87700   8.740   9.338   6.935  0.2920  0.2934 -0.2125
27618SOL    HW187701   8.731   9.359   6.842 -1.2235  1.3276  0.1310
27618SOL    HW287702   8.667   9.278   6.952 -0.0261  0.8886  0.5250
27619SOL     OW87703   8.445   8.506   7.532 -0.2318  0.0067 -0.1189
27619SOL    HW187704   8.383   8.498   7.604 -1.0506 -0.7195 -0.8815
27619SOL    HW287705   8.525   8.465   7.565 -0.2274  0.7043  0.7749
27620SOL     OW87706   8.367   6.446   5.077 -0.7528  0.8056  0.1889
27620SOL    HW187707   8.441   6.500   5.105  0.5347 -0.1138 -1.3077
27620SOL    HW287708   8.336   6.487   4.996  0.8576 -1.1148 -1.5106
27621SOL     OW87709   7.680   7.855   7.407 -0.0012 -0.1543 -0.0789
27621SOL    HW187710   7.636   7.770   7.412 -0.3123  0.0677  2.8500
27621SOL    HW287711   7.683   7.885   7.498  0.7153  2.6728 -0.9487
27622SOL     OW87712   6.640   5.804   8.305  0.2954  0.3898  0.0003
27622SOL    HW187713   6.600   5.763   8.382  0.1105 -1.5334 -1.0671
27622SOL    HW287714   6.734   5.791   8.317  0.3003  0.5610  0.1504
27623SOL     OW87715   7.965   9.281   8.439 -0.4337 -0.4037  0.4332
27623SOL    HW187716   7.917   9.347   8.390  1.5143  0.5144 -0.3437
27623SOL    HW287717   7.910   9.263   8.515 -1.0964  2.0271  0.6102
27624SOL     OW87718   7.516   8.408   6.484  0.4842  0.3906  0.6092
27624SOL    HW187719   7.608   8.407   6.511  0.5494  0.2508  0.3853
27624SOL    HW287720   7.468   8.389   6.564  0.7928 -2.6056  0.2265
27625SOL     OW87721   8.721   9.694   8.470 -0.2248 -0.4124  0.0414
27625SOL    HW187722   8.779   9.769   8.484  1.2597 -1.5867  0.4750
27625SOL    HW287723   8.670   9.718   8.393  1.1709  0.4938 -0.6578
27626SOL     OW87724   6.828   8.581   9.623 -0.2520 -0.0589  0.1774
27626SOL    HW187725   6.896   8.558   9.560  0.3885 -0.5945  1.0235
27626SOL    HW287726   6.819   8.503   9.678  1.8132  1.4872  3.0031
27627SOL     OW87727   8.135   8.186   8.061  0.0721 -0.1746  0.1424
27627SOL    HW187728   8.131   8.139   7.977  0.4660  0.0150  0.0120
27627SOL    HW287729   8.179   8.124   8.120 -1.4223 -0.8422  0.5893
27628SOL     OW87730   8.315   1.698   7.115 -0.5163 -0.1443 -0.4512
27628SOL    HW187731   8.257   1.647   7.060  1.5932  0.3127 -3.3229
27628SOL    HW287732   8.367   1.632   7.162  0.9418 -0.7778 -2.7587
27629SOL     OW87733   0.436   9.399   7.925 -0.1814 -0.0753  0.4622
27629SOL    HW187734   0.487   9.337   7.977  0.2349 -0.0670  0.0739
27629SOL    HW287735   0.473   9.485   7.948  0.9521 -0.1771 -0.8627
27630SOL     OW87736   6.849   7.229   8.724  0.3181 -0.1450  0.1526
27630SOL    HW187737   6.917   7.228   8.656  0.2378  0.1757  0.0648
27630SOL    HW287738   6.767   7.235   8.676  0.2783  0.4484  0.2824
27631SOL     OW87739   8.529   5.908   8.278  0.1431  0.5436 -0.5281
27631SOL    HW187740   8.478   5.961   8.218 -0.2706  0.1115 -0.5680
27631SOL    HW287741   8.619   5.939   8.268  0.1408  0.2360 -1.6331
27632SOL     OW87742   7.369   0.946   9.238 -0.2987 -0.2622  0.1953
27632SOL    HW187743   7.410   0.872   9.195  1.1814  0.9507 -0.5857
27632SOL    HW287744   7.280   0.947   9.205  0.5313  0.1000 -2.2156
27633SOL     OW87745   9.374   1.613   8.952 -0.2999  0.3501 -0.2489
27633SOL    HW187746   9.374   1.536   9.010 -0.4470  0.9167  0.5177
27633SOL    HW287747   9.287   1.652   8.965  0.2933  1.4786  0.5088
27634SOL     OW87748   9.215   7.339   8.170 -0.3095 -0.4052 -0.4350
27634SOL    HW187749   9.151   7.274   8.199 -0.5632  0.2601  0.5443
27634SOL    HW287750   9.171   7.387   8.099 -0.8051 -0.1409  0.0412
27635SOL     OW87751   8.618   9.149   0.957  0.0904 -0.1088  0.0001
27635SOL    HW187752   8.696   9.148   1.011  0.6090  0.1914 -0.7203
27635SOL    HW287753   8.553   9.197   1.008  0.0873 -1.1293  0.9777
27636SOL     OW87754   8.450   8.224   6.393 -0.6436 -0.3655 -0.2532
27636SOL    HW187755   8.453   8.241   6.299 -1.9073  2.5813  0.1360
27636SOL    HW287756   8.540   8.238   6.423 -0.4706 -0.1541 -0.8627
27637SOL     OW87757   9.565   0.616   9.064  0.2721  0.2727  0.2178
27637SOL    HW187758   9.619   0.671   9.121  1.2453 -0.7990  0.3818
27637SOL    HW287759   9.612   0.612   8.981  0.9906 -1.4120  0.6478
27638SOL     OW87760   6.258   9.418   9.596 -0.7532 -0.0876  0.0101
27638SOL    HW187761   6.276   9.412   9.502 -0.4761  1.9794 -0.1227
27638SOL    HW287762   6.318   9.355   9.636 -1.2034 -1.3428 -1.2056
27639SOL     OW87763   9.735   8.474   4.723  0.7725 -0.6718  0.0682
27639SOL    HW187764   9.704   8.565   4.722  3.2121  0.2409 -0.7337
27639SOL    HW287765   9.789   8.467   4.644  0.6960 -2.8262  0.1582
27640SOL     OW87766   9.602   9.576   0.275  0.3470 -0.1744  0.0168
27640SOL    HW187767   9.629   9.586   0.366 -0.2350 -1.7300  0.3908
27640SOL    HW287768   9.671   9.522   0.235  0.0944 -0.3352 -0.2037
27641SOL     OW87769   0.244   8.794   9.110  0.2878 -0.4239 -0.5144
27641SOL    HW187770   0.179   8.814   9.177  3.2545  0.8405  2.3009
27641SOL    HW287771   0.254   8.874   9.060 -0.6668 -0.8102 -1.3571
27642SOL     OW87772   7.580   8.529   1.455  0.1257 -0.1551  0.1543
27642SOL    HW187773   7.578   8.613   1.502  2.0495 -0.3141  0.5933
27642SOL    HW287774   7.571   8.553   1.363 -0.7953  0.4030  0.3805
27643SOL     OW87775   5.038   7.292   7.357 -0.2654  0.0225 -0.2425
27643SOL    HW187776   4.962   7.234   7.356  0.4408 -0.9108 -1.0917
27643SOL    HW287777   5.083   7.271   7.439  0.5599 -1.4264 -1.0306
27644SOL     OW87778   9.141   0.885   9.741  0.5888  0.1893 -0.2632
27644SOL    HW187779   9.168   0.956   9.800  2.1287  0.1516 -0.8845
27644SOL    HW287780   9.076   0.836   9.791  0.5112  1.2276  0.6969
27645SOL     OW87781   7.148   8.848   8.711  0.6673  0.5655 -0.0778
27645SOL    HW187782   7.094   8.915   8.752 -0.1448 -0.2172  0.1473
27645SOL    HW287783   7.233   8.857   8.754  0.0647  0.3033  1.2123
27646SOL     OW87784   1.385   1.733   8.550 -0.1377 -0.2991 -0.0416
27646SOL    HW187785   1.433   1.816   8.548  0.8654 -0.8689 -0.0611
27646SOL    HW287786   1.293   1.759   8.561 -0.0883  0.8911 -2.0311
27647SOL     OW87787   8.681   0.034   8.104 -0.1959 -0.0033  0.6211
27647SOL    HW187788   8.638   0.006   8.184 -0.7953  0.2558  0.3951
27647SOL    HW287789   8.610   0.063   8.046  0.2080 -0.3434 -0.0659
27648SOL     OW87790   0.100   0.986   4.647 -0.9874 -0.0950 -0.2806
27648SOL    HW187791   0.060   1.064   4.608 -0.5361  0.1732 -0.2086
27648SOL    HW287792   0.189   1.013   4.670 -0.4232 -0.9830 -1.3496
27649SOL     OW87793   0.522   9.565   8.743 -0.2290 -0.3172 -0.0848
27649SOL    HW187794   0.600   9.524   8.705 -0.0311  1.0339 -1.2316
27649SOL    HW287795   0.481   9.495   8.795  1.3931 -1.2303  0.0355
27650SOL     OW87796   9.128   6.586   6.989  0.8007  0.4663 -0.1371
27650SOL    HW187797   9.158   6.676   6.994  0.9284  0.3948  0.3492
27650SOL    HW287798   9.208   6.533   6.994  0.6662  0.3035  0.3457
27651SOL     OW87799   8.515   8.510   8.535  0.0675  0.1529 -1.1499
27651SOL    HW187800   8.519   8.483   8.443  2.4303  0.1175 -1.1075
27651SOL    HW287801   8.570   8.446   8.581 -2.9196 -1.2850  0.7580
27652SOL     OW87802   7.902   1.055   0.895 -0.2455  0.0722  0.3126
27652SOL    HW187803   7.935   1.087   0.979  1.3613  0.0749 -0.2838
27652SOL    HW287804   7.947   0.971   0.882  0.1572  0.4607 -0.9287
27653SOL     OW87805   0.746   7.675   9.235 -0.2342  0.3543  0.3984
27653SOL    HW187806   0.751   7.659   9.329 -0.5467  2.3230  0.8041
27653SOL    HW287807   0.656   7.653   9.211 -0.3227  0.4057  0.6807
27654SOL     OW87808   9.403   7.036   5.183  0.2623  0.3827 -0.1186
27654SOL    HW187809   9.318   7.027   5.226  0.5410 -0.8162  0.2078
27654SOL    HW287810   9.388   7.001   5.095  0.0314  1.6215 -0.5929
27655SOL     OW87811   8.856   8.494   1.042  0.2654 -0.0192  0.0067
27655SOL    HW187812   8.828   8.518   1.130  0.4419 -0.0811  0.0792
27655SOL    HW287813   8.775   8.493   0.991  0.2773  1.0316 -0.0698
27656SOL     OW87814   6.941   7.275   8.357 -0.0430 -0.3095  0.3431
27656SOL    HW187815   6.945   7.369   8.376 -0.7068  0.1824 -1.7009
27656SOL    HW287816   7.027   7.254   8.322 -0.4858  0.0111 -1.0070
27657SOL     OW87817   7.152   9.224   7.050  0.4594  0.3664  0.5117
27657SOL    HW187818   7.074   9.277   7.042  0.7075  0.6727  0.1109
27657SOL    HW287819   7.134   9.145   6.999  0.9328  1.0415 -0.7341
27658SOL     OW87820   7.492   8.880   0.899  0.3706 -0.1651 -0.1828
27658SOL    HW187821   7.497   8.973   0.923 -1.2893  1.0118 -3.6476
27658SOL    HW287822   7.410   8.850   0.937 -0.3646  0.5882 -1.1014
27659SOL     OW87823   5.719   8.751   9.338 -0.2020  0.0665  0.1003
27659SOL    HW187824   5.740   8.835   9.297 -1.3888 -1.0047 -3.0836
27659SOL    HW287825   5.803   8.708   9.351  0.2626  0.2896 -1.8442
27660SOL     OW87826   9.171   7.844   9.021 -0.1271 -0.0473  0.2317
27660SOL    HW187827   9.233   7.774   9.039  1.3983  0.8381 -1.2894
27660SOL    HW287828   9.212   7.922   9.059 -1.0080  0.3178  0.4520
27661SOL     OW87829   8.824   6.835   5.621 -1.0984  0.4092  0.8194
27661SOL    HW187830   8.899   6.777   5.610 -0.8629  0.9853 -1.0901
27661SOL    HW287831   8.818   6.850   5.715  0.3967 -0.6652  1.1164
27662SOL     OW87832   8.015   1.902   0.189 -0.2563  0.6507  0.3729
27662SOL    HW187833   7.999   1.813   0.221 -2.3098  1.0323  0.5289
27662SOL    HW287834   8.095   1.929   0.234  0.0010 -0.8409  0.8797
27663SOL     OW87835   8.347   7.014   8.347 -0.2031  0.0066  0.5724
27663SOL    HW187836   8.276   6.952   8.362  0.5225 -0.7796  0.8564
27663SOL    HW287837   8.423   6.959   8.328  0.0560  0.8598 -1.0143
27664SOL     OW87838   1.472   7.853   9.825  0.0923 -0.7751  1.2012
27664SOL    HW187839   1.513   7.867   9.740  0.0147 -1.0980  1.1108
27664SOL    HW287840   1.425   7.771   9.816  3.0801 -2.8324  2.6633
27665SOL     OW87841   8.690   9.431   9.086  0.1228  0.3359 -0.0891
27665SOL    HW187842   8.624   9.485   9.129 -0.2639 -0.3416  0.1944
27665SOL    HW287843   8.770   9.447   9.136 -0.3325 -0.4960  0.9660
27666SOL     OW87844   7.884   8.839   6.978  0.5843 -0.5521 -0.2249
27666SOL    HW187845   7.853   8.900   6.911  1.7054 -0.0281 -0.2881
27666SOL    HW287846   7.848   8.871   7.060 -1.1884 -1.4593 -0.5946
27667SOL     OW87847   9.758   9.637   7.172  0.0518  0.4032  0.2811
27667SOL    HW187848   9.789   9.605   7.257 -1.6125  0.1696  0.8426
27667SOL    HW287849   9.718   9.560   7.131  0.2905  0.6631 -0.4516
27668SOL     OW87850   5.775   6.747   8.961  0.4098 -0.2971  0.2321
27668SOL    HW187851   5.832   6.800   9.016 -0.6151 -0.2065  1.2499
27668SOL    HW287852   5.803   6.766   8.871  1.1054  0.7315  0.6512
27669SOL     OW87853   8.261   9.110   8.615  0.3511 -0.4416  0.1814
27669SOL    HW187854   8.233   9.021   8.635  1.7139 -0.9419 -0.0059
27669SOL    HW287855   8.244   9.160   8.695  1.1646 -1.2706  0.8924
27670SOL     OW87856   8.958   7.070   2.296  0.2646 -0.3460  0.3177
27670SOL    HW187857   8.890   7.136   2.291 -0.5365 -1.2319 -1.3454
27670SOL    HW287858   9.014   7.098   2.369 -1.1494  1.0688  0.9128
27671SOL     OW87859   7.632   9.284   6.696 -0.5629  0.5871 -0.1481
27671SOL    HW187860   7.631   9.261   6.604 -0.9691 -0.7861  0.1866
27671SOL    HW287861   7.539   9.289   6.721 -0.4528  0.6806  0.2551
27672SOL     OW87862   7.696   8.260   7.762  0.3739  0.5686 -0.5379
27672SOL    HW187863   7.691   8.356   7.759 -0.7059  0.5313 -0.5692
27672SOL    HW287864   7.669   8.237   7.851  2.5699  0.3599  0.1190
27673SOL     OW87865   6.522   9.833   7.465  0.7140  0.2148 -0.2649
27673SOL    HW187866   6.607   9.794   7.448  0.8566  0.2590  0.3439
27673SOL    HW287867   6.459   9.763   7.447  0.8450  0.2902 -1.0739
27674SOL     OW87868   8.603   7.913   7.067  0.9291  0.5077 -0.1263
27674SOL    HW187869   8.691   7.882   7.087 -0.0524 -2.9587 -0.4165
27674SOL    HW287870   8.591   7.893   6.974 -1.1458 -2.3368  0.5830
27675SOL     OW87871   7.119   0.605   1.509 -0.3288 -0.6775  0.2682
27675SOL    HW187872   7.024   0.601   1.515 -0.2894 -1.1112  0.7899
27675SOL    HW287873   7.149   0.537   1.570  0.3258 -0.0676  0.6473
27676SOL     OW87874   8.458   0.497   0.955 -0.6326 -0.0781  0.0851
27676SOL    HW187875   8.461   0.444   0.875 -0.8322 -0.1823  0.1466
27676SOL    HW287876   8.395   0.452   1.011 -1.6192  0.7835 -0.2815
27677SOL     OW87877   7.336   7.938   6.920  0.0290  0.3569 -0.2549
27677SOL    HW187878   7.283   7.876   6.971  0.5691  1.2483  1.4614
27677SOL    HW287879   7.273   8.003   6.889 -0.5289 -0.9735 -2.0030
27678SOL     OW87880   7.660   6.343   7.120  0.1094 -0.0234 -0.3515
27678SOL    HW187881   7.724   6.412   7.135  0.0928  0.0613 -0.6640
27678SOL    HW287882   7.712   6.263   7.114  0.3423  0.2281 -2.0522
27679SOL     OW87883   9.747   7.202   8.427 -0.1310  0.2139 -0.1943
27679SOL    HW187884   9.832   7.218   8.469  0.5232 -0.6787 -1.1046
27679SOL    HW287885   9.766   7.135   8.361 -2.2753 -2.9273  2.0774
27680SOL     OW87886   9.109   7.906   9.506  0.0063 -0.3248  0.0167
27680SOL    HW187887   9.157   7.823   9.505  0.8465  0.1458 -0.7250
27680SOL    HW287888   9.101   7.929   9.414 -1.0332 -0.0232  0.1709
27681SOL     OW87889   9.365   0.614   8.514  0.5936 -0.0741  0.6446
27681SOL    HW187890   9.432   0.653   8.458  1.2675 -0.4690  1.1551
27681SOL    HW287891   9.329   0.687   8.564  2.1654 -0.1265  1.9321
27682SOL     OW87892   7.239   8.858   1.000 -0.6630  0.7306  0.0132
27682SOL    HW187893   7.216   8.935   1.052 -0.2952 -0.9816  2.9223
27682SOL    HW287894   7.160   8.804   1.001 -0.2565  0.1288 -0.1680
27683SOL     OW87895   9.053   8.551   7.719 -0.3601 -0.2400 -0.2973
27683SOL    HW187896   9.053   8.645   7.738  0.2782 -0.1076 -0.9110
27683SOL    HW287897   9.064   8.546   7.625  3.1611 -0.9510  0.0335
27684SOL     OW87898   5.553   7.192   8.068  0.1958 -0.6322 -0.3085
27684SOL    HW187899   5.598   7.261   8.020  0.0326 -0.6102 -0.4278
27684SOL    HW287900   5.596   7.111   8.040  1.0073 -0.5070  0.5115
27685SOL     OW87901   8.855   6.836   7.981 -0.4447 -0.3325  0.0728
27685SOL    HW187902   8.891   6.903   7.923 -0.6669 -1.0821 -0.9558
27685SOL    HW287903   8.771   6.872   8.011  0.7030  1.0783  1.8505
27686SOL     OW87904   9.055   7.783   8.513 -0.0030  0.4464  0.3851
27686SOL    HW187905   9.071   7.690   8.500 -0.3330  0.3933  0.3643
27686SOL    HW287906   9.115   7.808   8.584  1.1708  0.5526 -0.6087
27687SOL     OW87907   0.438   8.231   0.314  0.0331  0.2803  0.4161
27687SOL    HW187908   0.497   8.167   0.354  0.3072  1.2069  1.5284
27687SOL    HW287909   0.460   8.314   0.356 -0.7118  1.0025 -0.5944
27688SOL     OW87910   9.627   9.134   0.189  0.0724  0.3679  0.4138
27688SOL    HW187911   9.682   9.205   0.154  2.2934  0.0173  2.9347
27688SOL    HW287912   9.593   9.168   0.272 -0.3425 -0.8670  0.7735
27689SOL     OW87913   4.032   8.548   0.352 -1.3456 -0.1886 -0.0257
27689SOL    HW187914   4.036   8.626   0.297  1.3561 -0.0776  0.1951
27689SOL    HW287915   4.072   8.575   0.435 -0.4585 -1.7616  0.0962
27690SOL     OW87916   7.989   7.314   9.770  0.0796 -0.4507 -0.0807
27690SOL    HW187917   8.021   7.400   9.741 -2.0950  0.5948  0.4300
27690SOL    HW287918   8.046   7.291   9.843  0.6762  0.5877 -0.1981
27691SOL     OW87919   9.505   8.546   8.370 -0.2531 -0.4443 -0.0298
27691SOL    HW187920   9.522   8.600   8.447  0.3516  0.7744 -0.9699
27691SOL    HW287921   9.577   8.484   8.367  0.0199 -0.1350  0.0894
27692SOL     OW87922   8.622   0.237   8.310  0.0748 -0.3247  0.1512
27692SOL    HW187923   8.529   0.224   8.294 -0.2844  0.5108  1.4135
27692SOL    HW287924   8.662   0.236   8.223 -1.2900  0.6481 -0.5307
27693SOL     OW87925   8.752   1.477   9.516  0.1493  0.1083 -0.4380
27693SOL    HW187926   8.749   1.540   9.588 -2.0282 -0.6647  0.2118
27693SOL    HW287927   8.755   1.531   9.437  0.1737  0.9954  0.1580
27694SOL     OW87928   6.861   7.793   7.445  0.4521 -0.0899  0.3201
27694SOL    HW187929   6.818   7.742   7.513 -0.6608  1.0407  0.5044
27694SOL    HW287930   6.836   7.884   7.463  0.4660  0.2771 -1.3360
27695SOL     OW87931   8.262   1.723   7.797 -0.7182  0.8239  0.0705
27695SOL    HW187932   8.335   1.769   7.839  1.0715 -1.9386  0.2555
27695SOL    HW287933   8.200   1.706   7.868 -1.3147  2.6393  0.0355
27696SOL     OW87934   8.856   8.034   7.889  0.3728  0.1189  0.0689
27696SOL    HW187935   8.847   7.958   7.831 -1.2896  1.0075 -0.9120
27696SOL    HW287936   8.843   8.110   7.831  1.0207  1.1269  1.2057
27697SOL     OW87937   0.553   2.310   8.790  0.1857  0.1906 -0.6036
27697SOL    HW187938   0.475   2.283   8.838  0.8051 -1.3236 -0.3934
27697SOL    HW287939   0.531   2.295   8.698 -0.5219  1.8265 -0.7284
27698SOL     OW87940   6.798   6.763   7.461 -0.4235 -0.5113  0.5437
27698SOL    HW187941   6.704   6.769   7.477 -0.5790  0.8683 -0.6184
27698SOL    HW287942   6.820   6.846   7.419  1.0520 -1.4097 -0.5467
27699SOL     OW87943   9.290   5.363   0.188 -0.3804 -0.6334  0.2963
27699SOL    HW187944   9.217   5.371   0.127 -0.3165  0.6114  0.3544
27699SOL    HW287945   9.258   5.402   0.269  0.8511  1.5630 -0.1671
27700SOL     OW87946   8.850   7.383   5.869  1.1123  0.4066  0.2208
27700SOL    HW187947   8.767   7.337   5.859  0.9062  0.8837 -0.3510
27700SOL    HW287948   8.891   7.379   5.782  1.4879  0.5475  0.3873
27701SOL     OW87949   7.374   9.770   8.725 -0.6623 -0.4794 -0.0254
27701SOL    HW187950   7.447   9.792   8.784 -1.0046  0.0833  0.1990
27701SOL    HW287951   7.364   9.849   8.671 -1.2970 -0.4428  0.1458
27702SOL     OW87952   7.432   9.060   6.661  0.4112  0.2988  0.6519
27702SOL    HW187953   7.365   8.991   6.662 -2.2833  2.6915 -0.1128
27702SOL    HW287954   7.486   9.041   6.584  2.1238 -2.8520  2.4220
27703SOL     OW87955   9.336   8.591   6.757 -0.2981 -0.3010  0.0432
27703SOL    HW187956   9.416   8.616   6.711 -0.3028 -0.4244 -0.0338
27703SOL    HW287957   9.367   8.548   6.837 -0.2268  3.3744  2.2304
27704SOL     OW87958   8.000   7.984   9.727  0.4976 -0.2184  0.0374
27704SOL    HW187959   7.993   7.900   9.773  3.5742 -1.2404 -1.0818
27704SOL    HW287960   8.002   7.959   9.634 -0.9690  1.3811 -0.4766
27705SOL     OW87961   9.326   0.851   8.659 -0.6589  0.4773 -0.2965
27705SOL    HW187962   9.272   0.929   8.664 -1.0926  0.3032 -1.7769
27705SOL    HW287963   9.408   0.881   8.619 -0.2557  0.4315  0.4648
27706SOL     OW87964   8.064   9.632   7.801  0.2228 -0.1406  0.0122
27706SOL    HW187965   7.980   9.659   7.838  0.0852 -1.5786  0.8334
27706SOL    HW287966   8.125   9.635   7.875  0.3122 -1.5112  0.0126
27707SOL     OW87967   6.994   3.711   0.786  0.1298  0.0917  0.3041
27707SOL    HW187968   6.924   3.731   0.724  1.7328  2.3029 -0.9385
27707SOL    HW287969   7.064   3.675   0.732  0.3370 -1.2158  1.3943
27708SOL     OW87970   9.486   8.925   7.981 -0.0753 -0.3612 -0.3140
27708SOL    HW187971   9.436   8.898   8.058 -1.2830  1.2336 -0.4728
27708SOL    HW287972   9.571   8.882   7.990 -1.0632 -2.2028  0.5922
27709SOL     OW87973   9.380   8.909   2.284  0.1883  0.5058  0.5109
27709SOL    HW187974   9.451   8.859   2.324 -0.6256 -0.2608  1.0528
27709SOL    HW287975   9.390   8.894   2.190 -0.3121 -1.1360  0.6715
27710SOL     OW87976   8.629   9.324   8.134  0.2630  0.0056 -0.0615
27710SOL    HW187977   8.663   9.341   8.047  2.1746 -2.5750  0.0562
27710SOL    HW287978   8.686   9.375   8.192 -0.6618  1.2880 -0.2465
27711SOL     OW87979   8.172   7.266   0.125  0.2290  0.2883  0.5397
27711SOL    HW187980   8.195   7.173   0.126 -2.0049 -0.3227  0.5804
27711SOL    HW287981   8.210   7.302   0.205  3.6080  0.1642 -0.8057
27712SOL     OW87982   5.501   6.797   7.411 -0.7265  0.2379 -0.0581
27712SOL    HW187983   5.420   6.840   7.436 -0.9481 -0.6635  0.8593
27712SOL    HW287984   5.486   6.704   7.428  0.5107  0.0558  0.2026
27713SOL     OW87985   7.505   9.793   5.997  0.0644  0.5004 -0.3425
27713SOL    HW187986   7.590   9.821   6.031  0.8281 -1.1579 -0.7324
27713SOL    HW287987   7.441   9.844   6.046  1.2293  0.4691  1.3240
27714SOL     OW87988   6.604   9.094   8.744 -0.0307  0.2278 -0.4159
27714SOL    HW187989   6.648   9.171   8.778 -0.3609  0.3032 -0.1515
27714SOL    HW287990   6.526   9.128   8.699 -0.7451 -0.0130  0.6109
27715SOL     OW87991   8.084   8.137   9.325 -0.3001  0.1964 -0.3442
27715SOL    HW187992   8.035   8.146   9.243  1.1638 -0.5733 -1.3388
27715SOL    HW287993   8.058   8.052   9.359 -1.2307  0.6934  0.2528
27716SOL     OW87994   0.251   8.650   8.745 -0.7996 -0.1998  0.2921
27716SOL    HW187995   0.277   8.559   8.730 -0.2167  0.0544 -0.2475
27716SOL    HW287996   0.300   8.677   8.823  2.8826  1.1549 -2.2462
27717SOL     OW87997   8.084   7.997   0.608 -0.1477 -0.2674  0.0068
27717SOL    HW187998   8.000   7.961   0.583 -0.1685  0.1434 -0.5487
27717SOL    HW287999   8.135   7.997   0.526  0.9348 -1.9440  0.6289
27718SOL     OW88000   8.416   0.053   7.946 -0.5788  0.7776  0.4627
27718SOL    HW188001   8.421   0.059   7.850 -0.9952 -1.6437  0.2259
27718SOL    HW288002   8.325   0.072   7.966 -0.7656  0.1652  0.2358
27719SOL     OW88003   8.413   8.113   0.915  0.1528 -0.5445  0.1048
27719SOL    HW188004   8.494   8.162   0.933  0.8316 -1.1861 -1.0856
27719SOL    HW288005   8.362   8.171   0.858 -0.9119  0.4644  1.9813
27720SOL     OW88006   7.677   0.547   9.321 -0.3658  0.2553  0.3636
27720SOL    HW188007   7.751   0.522   9.266  0.5595 -0.1357  1.7295
27720SOL    HW288008   7.636   0.464   9.345 -0.0625  0.3194  1.1588
27721SOL     OW88009   5.900   7.189   8.005 -0.4906 -0.0376  0.0122
27721SOL    HW188010   5.981   7.237   7.984 -0.6240 -0.0871 -0.6186
27721SOL    HW288011   5.845   7.255   8.048  0.7256 -0.5534  2.5233
27722SOL     OW88012   6.655   6.866   9.349  0.1918 -0.1896  0.1902
27722SOL    HW188013   6.651   6.818   9.266  0.0826 -0.3510  0.2871
27722SOL    HW288014   6.677   6.956   9.324  0.7831 -0.3741  0.0394
27723SOL     OW88015   9.180   5.698   7.286  0.0025 -0.4542 -0.6519
27723SOL    HW188016   9.112   5.634   7.267  0.7672 -1.2659 -0.7348
27723SOL    HW288017   9.262   5.648   7.283  0.6782  0.6350 -1.3111
27724SOL     OW88018   5.155   7.582   6.332 -1.0476 -0.1791 -0.2532
27724SOL    HW188019   5.225   7.556   6.391  0.4278 -0.2655 -1.9744
27724SOL    HW288020   5.151   7.677   6.340  1.3406  0.1769 -2.2626
27725SOL     OW88021   9.054   7.790   0.811  0.4025  0.2041  0.0230
27725SOL    HW188022   9.020   7.754   0.893  2.7592 -0.9274  0.5942
27725SOL    HW288023   9.075   7.881   0.831 -1.3385  0.6650 -0.0926
27726SOL     OW88024   0.130   8.937   8.264 -0.3910  0.2934  0.3300
27726SOL    HW188025   0.155   8.875   8.333  0.4494  0.9828  0.6600
27726SOL    HW288026   0.148   8.891   8.183  3.0167  1.0797  0.5098
27727SOL     OW88027   9.451   0.130   7.452  0.4216  0.2710  1.0242
27727SOL    HW188028   9.415   0.202   7.505 -0.4938 -0.8526  1.9727
27727SOL    HW288029   9.517   0.090   7.508 -0.3783 -0.7710  1.2460
27728SOL     OW88030   8.918   8.707   5.186 -0.3445 -0.4698  0.6972
27728SOL    HW188031   8.998   8.690   5.237  0.0383  0.0153  0.2685
27728SOL    HW288032   8.948   8.758   5.111 -0.4865 -3.0887 -1.2983
27729SOL     OW88033   8.554   9.043   8.053 -0.6923  0.1892 -0.0675
27729SOL    HW188034   8.604   9.029   7.972 -0.0423 -1.2867  0.5383
27729SOL    HW288035   8.560   9.137   8.069  0.8097  0.2351 -0.7154
27730SOL     OW88036   8.184   9.266   5.005  0.4249 -0.0915 -0.6603
27730SOL    HW188037   8.159   9.246   4.915  0.8633 -2.7110 -0.2760
27730SOL    HW288038   8.165   9.185   5.054 -0.1448  1.3549  1.6898
27731SOL     OW88039   0.700   8.940   8.030  0.5719 -0.1062  0.2265
27731SOL    HW188040   0.711   8.897   8.114  0.9066 -0.7673 -0.1515
27731SOL    HW288041   0.620   8.902   7.993  1.4154 -1.2007 -0.5608
27732SOL     OW88042   7.139   0.425   0.846 -0.1505  0.3397 -0.1573
27732SOL    HW188043   7.204   0.363   0.814 -0.0425  0.5282 -0.3080
27732SOL    HW288044   7.189   0.505   0.864 -0.4311  0.6821 -0.8464
27733SOL     OW88045   5.075   9.244   8.319 -0.2869 -0.2688 -0.2111
27733SOL    HW188046   5.136   9.279   8.383 -1.3283 -1.9850  1.8491
27733SOL    HW288047   5.029   9.320   8.285  1.3882  0.8281 -0.1533
27734SOL     OW88048   7.762   7.413   7.558 -0.4324  0.0503  0.3649
27734SOL    HW188049   7.851   7.399   7.592 -0.9174 -0.3275  1.5185
27734SOL    HW288050   7.720   7.328   7.566 -1.3872  0.5922  1.3143
27735SOL     OW88051   9.103   8.553   9.052  0.1456  0.1567 -0.3590
27735SOL    HW188052   9.145   8.533   8.968 -1.1195  1.9123 -1.4990
27735SOL    HW288053   9.159   8.513   9.118 -0.1224 -3.4879 -2.1278
27736SOL     OW88054   0.140   8.337   6.369 -0.4606  0.2528  0.6013
27736SOL    HW188055   0.229   8.367   6.388 -0.4739  1.1933 -0.7615
27736SOL    HW288056   0.085   8.383   6.433  0.0134 -0.4542  1.5589
27737SOL     OW88057   9.335   8.481   1.121 -0.6275 -0.6059  0.0153
27737SOL    HW188058   9.390   8.435   1.056 -0.5799 -0.4932 -0.0237
27737SOL    HW288059   9.254   8.500   1.073  0.2502  1.5181 -0.7382
27738SOL     OW88060   8.991   6.602   9.689 -0.2909 -0.2243 -0.1315
27738SOL    HW188061   8.903   6.573   9.663 -0.8865 -0.4007  1.8443
27738SOL    HW288062   8.977   6.692   9.720  0.0907 -0.4704  0.7753
27739SOL     OW88063   7.758   8.010   8.253  0.5519 -0.1135  0.3203
27739SOL    HW188064   7.792   8.073   8.317  0.6995 -0.6260  0.7518
27739SOL    HW288065   7.723   8.065   8.183 -0.0774  0.4716  1.0706
27740SOL     OW88066   0.038   6.199   9.310 -0.3986  0.3534  0.2887
27740SOL    HW188067   0.042   6.197   9.214 -3.3619 -0.6613  0.0983
27740SOL    HW288068  -0.008   6.281   9.329  0.1784  0.5464  0.8626
27741SOL     OW88069   7.649   9.816   0.934  0.0548  0.0146  0.0505
27741SOL    HW188070   7.655   9.750   1.003 -0.2245 -1.9066 -1.6492
27741SOL    HW288071   7.738   9.825   0.901  0.1821  0.9050  0.6177
27742SOL     OW88072   8.922   0.679   7.722 -0.3645  0.3591  0.0451
27742SOL    HW188073   8.895   0.594   7.758  1.4102 -0.6056 -0.7721
27742SOL    HW288074   8.961   0.725   7.797 -0.1922 -0.0766  0.2302
27743SOL     OW88075   6.020   9.592   9.036 -0.3416  0.2155 -0.0932
27743SOL    HW188076   6.082   9.616   8.967  2.2319  0.9431  2.3245
27743SOL    HW288077   6.032   9.497   9.046  0.6982  0.4090  0.6126
27744SOL     OW88078   0.420   8.382   7.647 -0.1006  0.0268 -0.2767
27744SOL    HW188079   0.364   8.423   7.712 -2.4209 -3.7407  0.4134
27744SOL    HW288080   0.362   8.364   7.573 -0.0062 -3.7698  0.3549
27745SOL     OW88081   9.137   8.252   7.783  0.0652 -0.1102  0.2866
27745SOL    HW188082   9.196   8.327   7.786  1.2337 -0.9546 -0.6377
27745SOL    HW288083   9.167   8.201   7.708 -1.6614 -0.7385 -0.0285
27746SOL     OW88084   0.232   7.873   8.108 -0.6000  0.1738 -0.1622
27746SOL    HW188085   0.175   7.949   8.092  1.7954  1.8076 -1.6004
27746SOL    HW288086   0.241   7.870   8.203 -2.8166 -0.0122  0.1037
27747SOL     OW88087   9.022   8.992   4.159 -0.2182  0.4578 -0.3916
27747SOL    HW188088   9.018   8.900   4.187  0.5672  0.3102 -0.7230
27747SOL    HW288089   8.995   9.041   4.237 -0.9907 -0.0650 -0.3234
27748SOL     OW88090   8.321   0.093   6.956  0.0107 -0.4736 -0.1732
27748SOL    HW188091   8.405   0.051   6.940 -0.4718 -1.3311 -0.5567
27748SOL    HW288092   8.305   0.147   6.878  0.0836 -0.5229 -0.2222
27749SOL     OW88093   9.657   7.891   1.125 -0.0348 -0.1964 -0.0979
27749SOL    HW188094   9.675   7.870   1.033  0.4769  1.2255 -0.3458
27749SOL    HW288095   9.593   7.825   1.152 -0.8416 -0.1379 -1.7320
27750SOL     OW88096   0.140   6.449   7.871 -0.1335 -0.1338 -0.2103
27750SOL    HW188097   0.159   6.389   7.942 -0.1611  1.5699  1.3083
27750SOL    HW288098   0.060   6.494   7.897 -0.3813  0.2427 -1.5219
27751SOL     OW88099   7.572   8.286   8.727 -0.1084 -0.3293 -0.6304
27751SOL    HW188100   7.498   8.290   8.787 -0.9795  1.4152 -1.7396
27751SOL    HW288101   7.533   8.263   8.643  0.6300  0.3516 -1.1750
27752SOL     OW88102   7.071   8.331   8.644 -0.6384  0.0649  0.4510
27752SOL    HW188103   7.079   8.362   8.734  1.0477 -0.6705  0.5886
27752SOL    HW288104   7.097   8.239   8.648  0.9073  0.3902 -1.0144
27753SOL     OW88105   9.403   8.752   0.693 -0.4606  0.1017  0.6743
27753SOL    HW188106   9.328   8.746   0.751  0.2577 -0.1488  1.6068
27753SOL    HW288107   9.434   8.843   0.703  0.0235 -0.1118  1.1577
27754SOL     OW88108   8.094   7.910   9.013 -0.7788 -0.5173  0.1964
27754SOL    HW188109   8.101   8.004   9.001 -2.8514 -0.1935  1.1246
27754SOL    HW288110   8.174   7.885   9.059 -0.4984  0.8830  0.4887
27755SOL     OW88111   8.874   0.437   7.912 -0.0224  0.1311  0.5631
27755SOL    HW188112   8.808   0.433   7.981 -1.1248 -1.8807 -0.4972
27755SOL    HW288113   8.946   0.383   7.945 -0.8873 -1.5152 -0.1073
27756SOL     OW88114   7.593   9.560   7.127  0.5458 -0.6157  0.0477
27756SOL    HW188115   7.583   9.575   7.033  0.4771 -0.9184  0.0050
27756SOL    HW288116   7.531   9.619   7.168  0.3169 -0.7421 -0.1147
27757SOL     OW88117   0.897   7.928   9.450 -0.2021  0.4350  0.1673
27757SOL    HW188118   0.860   7.965   9.370 -0.5336 -0.7313 -0.2360
27757SOL    HW288119   0.833   7.863   9.478  1.7828 -2.1233 -0.9225
27758SOL     OW88120   6.423   8.027   1.772 -0.1612  0.2796  0.5921
27758SOL    HW188121   6.453   7.937   1.754 -1.4306 -0.1879  0.6881
27758SOL    HW288122   6.365   8.018   1.848 -1.2841  0.9760 -0.1531
27759SOL     OW88123   6.571   8.132   8.888  0.5816 -0.1906  0.3936
27759SOL    HW188124   6.643   8.148   8.827  0.4897  0.7937  0.5371
27759SOL    HW288125   6.553   8.217   8.928  0.1439 -0.6756  1.2544
27760SOL     OW88126   9.722   8.074   8.913 -0.8612  0.1714 -0.0024
27760SOL    HW188127   9.696   8.027   8.993 -0.1461  1.4422  1.0035
27760SOL    HW288128   9.762   8.155   8.944  1.0460 -0.0873 -1.6020
27761SOL     OW88129   6.751   7.926   1.020  0.3825 -0.0667 -0.4935
27761SOL    HW188130   6.838   7.967   1.030  0.0222  1.3300 -2.3655
27761SOL    HW288131   6.692   8.000   1.004 -1.2019 -0.9864  0.8128
27762SOL     OW88132   6.531   9.838   8.651  0.6216 -0.4139 -0.0279
27762SOL    HW188133   6.564   9.837   8.741  1.1466 -0.5070 -0.2190
27762SOL    HW288134   6.465   9.769   8.649 -0.3512  0.4514  0.6361
27763SOL     OW88135   7.769   7.731   1.331 -0.5864 -0.3492  0.6455
27763SOL    HW188136   7.726   7.815   1.345  0.3782  0.2123  0.3329
27763SOL    HW288137   7.863   7.751   1.334 -0.2872 -0.8997 -2.2144
27764SOL     OW88138   7.113   8.634   1.720 -0.4275 -0.7842  0.1012
27764SOL    HW188139   7.196   8.606   1.758  0.5034 -0.0409 -1.3019
27764SOL    HW288140   7.109   8.728   1.739 -0.9012 -0.7984  0.0804
27765SOL     OW88141   8.276   8.601   0.956 -0.1212 -0.3005  0.0421
27765SOL    HW188142   8.220   8.530   0.987 -0.7312  0.7362  1.4460
27765SOL    HW288143   8.215   8.667   0.923  0.4275 -0.3534 -1.0960
27766SOL     OW88144   9.089   5.154   8.990 -0.3064 -0.0802 -0.8313
27766SOL    HW188145   9.004   5.124   8.957 -0.0288 -0.7554 -0.9402
27766SOL    HW288146   9.083   5.143   9.085 -1.0730  1.7814 -0.6133
27767SOL     OW88147   7.730   4.361   8.546 -0.1321  0.2315  0.1070
27767SOL    HW188148   7.716   4.431   8.610  0.1964  0.9598 -0.5884
27767SOL    HW288149   7.652   4.363   8.491 -0.9921 -1.2304  1.2131
27768SOL     OW88150   7.999   8.602   9.541 -0.6135 -0.3848 -0.3415
27768SOL    HW188151   7.929   8.667   9.545 -2.3352 -2.0932 -0.7363
27768SOL    HW288152   7.996   8.558   9.626  0.9409  0.4057  0.1561
27769SOL     OW88153   7.403   0.071   0.912  0.3648  0.2328 -0.3039
27769SOL    HW188154   7.423   0.160   0.940 -2.5239  1.2099 -1.0195
27769SOL    HW288155   7.489   0.029   0.904  1.7741  2.6124  0.9816
27770SOL     OW88156   9.517   8.257   2.824 -0.2253 -0.0037 -0.3339
27770SOL    HW188157   9.479   8.344   2.811  1.9048  1.5920  2.7773
27770SOL    HW288158   9.442   8.197   2.826 -2.0181  2.1317  0.0151
27771SOL     OW88159   8.443   9.105   0.324  0.1852 -0.1978 -0.5789
27771SOL    HW188160   8.401   9.062   0.398  1.5838 -0.0703  0.3408
27771SOL    HW288161   8.428   9.199   0.338  1.6529 -0.0689  0.3750
27772SOL     OW88162   9.585   8.603   9.315 -0.1615  0.1379  0.2948
27772SOL    HW188163   9.614   8.682   9.361 -1.4163  1.7157 -1.4985
27772SOL    HW288164   9.490   8.600   9.329  0.0419 -2.0194  1.6903
27773SOL     OW88165   9.715   9.326   9.390  0.3481  0.1428 -0.0000
27773SOL    HW188166   9.645   9.276   9.432 -0.2886  0.5711 -0.5284
27773SOL    HW288167   9.778   9.342   9.460 -0.0815 -0.2582  0.4865
27774SOL     OW88168   8.530   9.192   9.243  0.0922  0.4757  0.6006
27774SOL    HW188169   8.460   9.257   9.230  2.4787  2.7862 -2.4261
27774SOL    HW288170   8.535   9.145   9.159  0.9400 -0.9670  1.4222
27775SOL     OW88171   9.082   6.500   8.866 -0.0838  0.0158  0.0353
27775SOL    HW188172   8.992   6.520   8.891 -0.5870 -1.4749 -0.4713
27775SOL    HW288173   9.134   6.571   8.904 -1.3375  0.2903  1.3254
27776SOL     OW88174   9.213   7.547   8.405  0.4236  0.0798  0.5009
27776SOL    HW188175   9.219   7.484   8.334 -0.3326  0.2750  0.2606
27776SOL    HW288176   9.299   7.591   8.405  1.2201 -1.4153  1.1295
27777SOL     OW88177   9.144   7.205   0.372 -0.3543  0.2246 -0.3598
27777SOL    HW188178   9.165   7.129   0.428  2.0107  0.1299 -1.2619
27777SOL    HW288179   9.063   7.180   0.327 -0.9779 -0.6999  1.1787
27778SOL     OW88180   8.867   9.135   1.061 -0.8707  0.2218  0.3884
27778SOL    HW188181   8.856   9.171   1.149 -0.9837 -0.3088  0.5958
27778SOL    HW288182   8.913   9.203   1.012  0.1680  0.0950  1.1523
27779SOL     OW88183   9.257   5.939   9.216 -0.0679 -0.1335 -0.3735
27779SOL    HW188184   9.247   5.844   9.220 -0.1277 -0.1037  0.8169
27779SOL    HW288185   9.322   5.959   9.283 -3.0467  0.9809  2.4744
27780SOL     OW88186   8.120   6.433   3.299 -0.7286 -0.3783  0.0052
27780SOL    HW188187   8.132   6.442   3.205 -0.4391  0.0766  0.0789
27780SOL    HW288188   8.085   6.345   3.311 -1.5847 -0.1448 -0.6000
27781SOL     OW88189   7.169   6.932   9.284 -0.4692 -0.3848 -0.1899
27781SOL    HW188190   7.098   6.915   9.223 -0.8976 -1.9443  0.6686
27781SOL    HW288191   7.127   6.934   9.370  0.0529  2.1673  0.0746
27782SOL     OW88192   8.213   9.080   0.492  0.1420  0.5447 -0.0077
27782SOL    HW188193   8.205   8.988   0.514  0.1745  0.6983  0.6472
27782SOL    HW288194   8.159   9.090   0.413  0.5926 -0.1419 -0.4084
27783SOL     OW88195   8.268   7.696   1.773  0.2272 -0.2205  0.1919
27783SOL    HW188196   8.179   7.727   1.792 -0.2666 -1.9045  0.8074
27783SOL    HW288197   8.315   7.775   1.746 -1.3570  0.7744  0.1699
27784SOL     OW88198   8.702   6.785   1.572  0.6830  0.5654  0.3136
27784SOL    HW188199   8.712   6.744   1.658  0.0515  0.9372  0.5759
27784SOL    HW288200   8.741   6.723   1.511 -0.8865 -0.7840  0.6164
27785SOL     OW88201   7.822   9.625   1.471  0.2267 -0.6579 -0.2808
27785SOL    HW188202   7.754   9.644   1.406  0.0487  2.1016  0.5768
27785SOL    HW288203   7.782   9.562   1.530 -1.3632  0.3373 -0.2241
27786SOL     OW88204   9.448   8.869   7.715 -0.4292 -0.0149 -0.2212
27786SOL    HW188205   9.443   8.895   7.807 -0.5437 -0.7616 -0.0117
27786SOL    HW288206   9.358   8.874   7.684 -0.9248 -2.7636  0.5639
27787SOL     OW88207   7.644   9.398   7.963 -0.2984  0.0546  0.1331
27787SOL    HW188208   7.569   9.447   7.998  0.7162  0.7208  1.4415
27787SOL    HW288209   7.656   9.326   8.025  0.4228  0.2175  0.1826
27788SOL     OW88210   6.778   8.470   9.315  0.5601  0.4301 -0.1211
27788SOL    HW188211   6.731   8.392   9.345  0.2841  0.7502  0.3020
27788SOL    HW288212   6.869   8.456   9.342  1.6825 -2.0028 -4.3694
27789SOL     OW88213   0.016   7.907   9.211  0.1528  0.2765 -0.1328
27789SOL    HW188214   0.068   7.903   9.130  0.0169  4.1913 -0.6246
27789SOL    HW288215  -0.073   7.886   9.183  0.2606  0.6908 -0.8236
27790SOL     OW88216   7.373   8.387   9.152  0.0610  0.2135  0.1176
27790SOL    HW188217   7.335   8.325   9.214  0.7896 -1.4583 -1.0288
27790SOL    HW288218   7.466   8.389   9.175 -0.0736  1.4833  0.6097
27791SOL     OW88219   9.520   6.960   8.987  0.4691 -0.1869  0.1093
27791SOL    HW188220   9.471   6.946   8.906 -0.8905 -0.6267  0.9887
27791SOL    HW288221   9.603   6.998   8.958  0.5671 -1.5805 -1.6017
27792SOL     OW88222   7.955   8.182   0.262  0.1042  0.2384 -0.5931
27792SOL    HW188223   7.983   8.268   0.229 -0.2782  0.8426  0.6069
27792SOL    HW288224   8.033   8.128   0.255  1.3716  1.6188  1.7295
27793SOL     OW88225   0.049   7.431   8.462 -0.3768  0.0072  0.1280
27793SOL    HW188226  -0.018   7.402   8.400 -1.2624  1.3356  0.4370
27793SOL    HW288227   0.030   7.523   8.477  0.8707  0.1316  1.0685
27794SOL     OW88228   0.998   9.477   9.006  0.4060 -0.0976 -0.7359
27794SOL    HW188229   1.003   9.466   9.101 -0.2990 -1.9417 -0.8579
27794SOL    HW288230   1.070   9.423   8.972  0.8233  0.7660 -1.2510
27795SOL     OW88231   7.661   1.156   9.069 -0.0381 -0.0213 -0.4591
27795SOL    HW188232   7.696   1.069   9.088  3.0237  1.4577  1.4860
27795SOL    HW288233   7.677   1.168   8.975 -0.9876 -1.6837 -0.8784
27796SOL     OW88234   8.084   8.965   8.792  0.6129 -0.6843  0.4154
27796SOL    HW188235   8.114   8.880   8.825  0.6475 -0.5828  0.6457
27796SOL    HW288236   8.013   8.990   8.850 -0.4944 -1.3092 -0.6242
27797SOL     OW88237   8.240   7.551   8.514  0.4094 -0.4099  0.4830
27797SOL    HW188238   8.298   7.545   8.591  1.3663 -1.8128 -0.3040
27797SOL    HW288239   8.300   7.567   8.441 -0.0268 -2.9915 -0.5174
27798SOL     OW88240   9.796   3.759   8.488 -0.2453  0.2460  0.3551
27798SOL    HW188241   9.849   3.706   8.548 -2.0887 -0.3521  1.5638
27798SOL    HW288242   9.819   3.727   8.401  2.1299  0.7802  0.7288
27799SOL     OW88243   8.096   6.754   0.684 -0.1897  0.2877 -0.4805
27799SOL    HW188244   8.028   6.705   0.638 -0.4703  0.9225 -0.7556
27799SOL    HW288245   8.166   6.763   0.619  0.4099 -0.8318 -0.0319
27800SOL     OW88246   7.542   8.710   6.837  0.4103  0.0832  0.3746
27800SOL    HW188247   7.598   8.708   6.914 -0.4835 -1.6113  1.0305
27800SOL    HW288248   7.594   8.755   6.770  1.4851  0.9181  1.7250
27801SOL     OW88249   7.633   9.685   0.653 -0.2058 -0.5354 -0.2384
27801SOL    HW188250   7.655   9.686   0.747 -0.1712 -1.5477 -0.2198
27801SOL    HW288251   7.616   9.777   0.631 -1.5845 -0.4319  1.0864
27802SOL     OW88252   7.921   7.654   8.782 -0.5670 -0.1391  0.3820
27802SOL    HW188253   7.948   7.593   8.851  1.8350  0.0783 -0.2784
27802SOL    HW288254   7.905   7.736   8.828 -2.0396 -0.7504  1.0327
27803SOL     OW88255   7.063   1.312   0.949  0.3676  0.3752 -0.1743
27803SOL    HW188256   7.116   1.384   0.915  0.9330 -0.6170 -1.4805
27803SOL    HW288257   7.086   1.307   1.042 -2.2961  4.0894  0.9016
27804SOL     OW88258   9.537   8.142   0.414 -0.0124  0.4796  0.7482
27804SOL    HW188259   9.593   8.176   0.484  0.1857 -1.5021  1.6460
27804SOL    HW288260   9.463   8.102   0.460  0.2647 -1.1171 -0.0937
27805SOL     OW88261   6.040   7.803   1.472  0.1705 -0.3473  0.3516
27805SOL    HW188262   6.032   7.842   1.385 -1.6583 -1.3465  0.0166
27805SOL    HW288263   6.014   7.872   1.532  0.6298  0.0941  0.0503
27806SOL     OW88264   8.417   7.334   8.315  0.3085 -0.1947  0.0056
27806SOL    HW188265   8.419   7.429   8.310  1.1686 -0.1905  0.3216
27806SOL    HW288266   8.325   7.311   8.303  0.1573  0.6499 -0.5009
27807SOL     OW88267   5.418   7.089   9.301 -0.0528 -0.2837 -0.7938
27807SOL    HW188268   5.396   7.010   9.251  0.3081 -1.4652  0.8187
27807SOL    HW288269   5.350   7.094   9.368  1.2713 -0.6622  0.6370
27808SOL     OW88270   7.674   7.591   0.420  0.3171  0.0404  0.6779
27808SOL    HW188271   7.745   7.541   0.379  2.7735  2.9231  1.0838
27808SOL    HW288272   7.686   7.578   0.514  0.2476  0.4678  0.7477
27809SOL     OW88273   7.881   8.825   0.686 -0.5124 -0.2869  0.0291
27809SOL    HW188274   7.815   8.818   0.617  1.4336 -1.2762 -1.8289
27809SOL    HW288275   7.858   8.905   0.733 -1.5024  0.8377 -2.2294
27810SOL     OW88276   7.615   8.496   9.795  0.6892  0.1386 -0.7181
27810SOL    HW188277   7.686   8.557   9.772  0.8343 -0.2123 -1.2054
27810SOL    HW288278   7.652   8.440   9.862  0.2170  1.2648  0.5285
27811SOL     OW88279   9.322   8.124   0.846  0.6763  0.0682  0.3322
27811SOL    HW188280   9.403   8.075   0.855  2.2292  2.5970  1.1835
27811SOL    HW288281   9.253   8.061   0.866  2.5281 -1.7538  1.3277
27812SOL     OW88282   8.959   6.216   1.440  0.3567  0.7936 -0.0801
27812SOL    HW188283   9.003   6.157   1.501 -0.1802 -0.6776 -1.0556
27812SOL    HW288284   8.911   6.277   1.495 -0.7356 -0.9597  1.0296
27813SOL     OW88285   7.942   7.134   8.427 -0.4347 -0.1172  0.0691
27813SOL    HW188286   7.895   7.083   8.361 -1.9569 -1.3589  2.0065
27813SOL    HW288287   8.019   7.167   8.381 -0.5969 -2.2507 -1.9174
27814SOL     OW88288   9.540   9.170   1.021 -0.2425  0.1900  0.1879
27814SOL    HW188289   9.623   9.132   1.050 -0.6660 -0.1601  0.9591
27814SOL    HW288290   9.564   9.258   0.991  0.8685 -0.8537 -2.2616
27815SOL     OW88291   7.349   8.570   0.631  0.1314 -0.0218  0.2072
27815SOL    HW188292   7.423   8.511   0.646 -0.8238 -1.4918 -0.5267
27815SOL    HW288293   7.389   8.653   0.605  1.5359 -0.1488  1.7984
27816SOL     OW88294   9.777   7.706   1.489 -1.0733 -0.3985 -0.1817
27816SOL    HW188295   9.737   7.789   1.517 -0.3203 -0.2032  0.3557
27816SOL    HW288296   9.870   7.727   1.479 -0.7562 -1.3261  0.6119
27817SOL     OW88297   6.897   7.705   9.136  0.7420  0.0899 -0.5742
27817SOL    HW188298   6.867   7.755   9.211  0.4880 -0.6244 -0.1869
27817SOL    HW288299   6.946   7.632   9.173 -0.6632 -1.1288 -0.9999
27818SOL     OW88300   0.363   6.684   1.028  0.1557 -0.0959  0.0794
27818SOL    HW188301   0.328   6.755   0.974 -2.1854  0.0737  1.7054
27818SOL    HW288302   0.360   6.607   0.971 -1.5703  0.2230 -0.3072
27819SOL     OW88303   8.566   6.258   1.613  0.7294 -0.1816  0.0055
27819SOL    HW188304   8.551   6.164   1.624 -0.2521 -0.0397  0.0219
27819SOL    HW288305   8.500   6.299   1.669  0.2585  0.5218 -1.0282
27820SOL     OW88306   4.413   7.091   1.921  0.1261  0.3869  0.1763
27820SOL    HW188307   4.384   7.132   1.840 -0.7591  0.2496  0.4165
27820SOL    HW288308   4.397   6.998   1.907  2.9942 -0.0668 -0.7391
27821SOL     OW88309   8.410   1.038   1.062  0.1252  0.1208 -0.0769
27821SOL    HW188310   8.395   1.020   1.154 -3.0668  0.6821 -0.3859
27821SOL    HW288311   8.467   0.966   1.032 -1.1804 -1.7597  1.6814
27822SOL     OW88312   7.292   0.966   2.745 -0.1630 -0.5684 -0.9831
27822SOL    HW188313   7.359   0.912   2.703  2.6696 -0.0849  2.4173
27822SOL    HW288314   7.277   0.924   2.830 -0.3712  2.0837  0.4009
27823SOL     OW88315   0.052   9.251   0.425 -0.3127 -0.0827 -0.3074
27823SOL    HW188316   0.091   9.194   0.359 -1.2874 -0.9465 -0.1688
27823SOL    HW288317   0.015   9.191   0.489 -1.1042  0.7100 -0.0030
27824SOL     OW88318   0.197   7.458   1.253 -0.3684  0.1272  0.5828
27824SOL    HW188319   0.274   7.411   1.220 -1.4804 -0.9993 -0.5377
27824SOL    HW288320   0.200   7.542   1.208 -0.8892 -0.7088 -1.0888
27825SOL     OW88321   8.418   9.065   3.713  0.2641  0.6586 -0.3167
27825SOL    HW188322   8.480   9.134   3.689  2.0293 -0.6938  0.1254
27825SOL    HW288323   8.463   9.015   3.781 -1.6342  0.0270  0.5345
27826SOL     OW88324   8.702   8.860   1.376 -0.2830  0.0685  0.3557
27826SOL    HW188325   8.671   8.834   1.289  1.4653  0.5129 -0.4558
27826SOL    HW288326   8.719   8.954   1.368  2.3028 -0.3127  0.3294
27827SOL     OW88327   8.976   8.271   9.355  0.7457  0.1814  0.3442
27827SOL    HW188328   8.971   8.240   9.446  0.4344  1.7110  0.8817
27827SOL    HW288329   8.923   8.351   9.354  3.9872  2.4950 -0.1851
27828SOL     OW88330   7.962   1.724   3.011 -0.2366 -0.1411 -0.4880
27828SOL    HW188331   8.027   1.787   2.981  0.1223 -0.6159 -0.7060
27828SOL    HW288332   7.998   1.639   2.988 -0.1413 -0.5024  0.8911
27829SOL     OW88333   0.996   0.986   1.933  0.2885 -0.1381 -0.3361
27829SOL    HW188334   1.051   1.010   2.007 -1.4493  3.2325  0.0692
27829SOL    HW288335   1.046   1.013   1.856  1.0515 -1.3258 -0.2736
27830SOL     OW88336   8.629   0.519   9.381  0.0892 -0.2253 -0.6111
27830SOL    HW188337   8.550   0.464   9.376  0.6000 -1.0042 -0.3952
27830SOL    HW288338   8.701   0.459   9.361  0.5601  0.7001 -1.8522
27831SOL     OW88339   8.357   6.452   8.311  0.1984  0.2294 -0.1995
27831SOL    HW188340   8.425   6.398   8.270  0.2109  1.5280 -1.9834
27831SOL    HW288341   8.405   6.513   8.367  0.2818 -0.5315  0.5957
27832SOL     OW88342   9.701   8.381   2.035 -0.2309 -0.0360 -0.2012
27832SOL    HW188343   9.638   8.447   2.064  2.2083  2.0887  0.6096
27832SOL    HW288344   9.698   8.314   2.103 -0.0481  1.1420  1.0179
27833SOL     OW88345   8.047   1.340   1.432 -0.4155 -0.2616 -0.0967
27833SOL    HW188346   8.038   1.323   1.526  0.3420 -0.8685 -0.1274
27833SOL    HW288347   8.060   1.253   1.393  1.3863  0.1426 -0.5072
27834SOL     OW88348   9.700   9.840   9.507  0.1606 -0.0103 -0.5668
27834SOL    HW188349   9.643   9.909   9.473  0.4619 -0.0462 -1.1472
27834SOL    HW288350   9.778   9.843   9.452 -0.7637 -2.3578 -2.1903
27835SOL     OW88351   8.978   5.699   8.434 -0.4313  0.1998  0.3205
27835SOL    HW188352   9.061   5.738   8.408 -1.1855  1.0085 -1.0241
27835SOL    HW288353   8.967   5.624   8.375 -1.1261  0.7390 -0.2697
27836SOL     OW88354   9.125   9.839   2.178 -0.8556 -0.2785  0.1594
27836SOL    HW188355   9.098   9.915   2.230  2.3661 -0.2389  2.0760
27836SOL    HW288356   9.199   9.871   2.126  0.1512 -1.8807  0.5205
27837SOL     OW88357   7.470   9.592   9.217  0.0789 -0.0445 -0.1621
27837SOL    HW188358   7.550   9.621   9.173  0.8011  1.2808  1.8812
27837SOL    HW288359   7.500   9.558   9.302 -1.4211 -0.6823  0.1506
27838SOL     OW88360   7.371   8.349   1.579  0.2455 -0.2207 -0.5627
27838SOL    HW188361   7.399   8.387   1.662  0.8777  1.3354 -1.4528
27838SOL    HW288362   7.405   8.409   1.512 -1.0737 -0.9039 -1.9066
27839SOL     OW88363   6.960   8.522   0.116 -0.1366 -0.4823 -0.1339
27839SOL    HW188364   6.912   8.519   0.199  1.7403 -3.2163  0.9981
27839SOL    HW288365   6.906   8.470   0.055  0.1877 -1.5155  0.4415
27840SOL     OW88366   9.015   9.167   0.766  0.0430 -0.0359 -0.0698
27840SOL    HW188367   8.946   9.234   0.769  2.0059  2.1237  0.0474
27840SOL    HW288368   9.081   9.198   0.828  2.3803 -0.4804 -2.1791
27841SOL     OW88369   6.848   9.160   1.653 -0.0915  0.2222  0.2158
27841SOL    HW188370   6.805   9.084   1.692 -0.3012  0.6563  0.8342
27841SOL    HW288371   6.852   9.225   1.723  1.7641  0.1290  0.2550
27842SOL     OW88372   8.334   9.457   0.068 -0.2817 -0.1354  0.7420
27842SOL    HW188373   8.386   9.498   0.138  0.7447  0.1692 -0.1702
27842SOL    HW288374   8.331   9.523  -0.001 -0.3340 -0.8416  0.0586
27843SOL     OW88375   9.038   8.809   1.906  0.0142  0.1623 -0.3255
27843SOL    HW188376   9.065   8.882   1.850 -0.3391 -0.8725 -1.8996
27843SOL    HW288377   8.943   8.803   1.895  0.0597 -0.6352 -0.3635
27844SOL     OW88378   8.348   9.364   1.704  0.5969  1.3728  0.1975
27844SOL    HW188379   8.367   9.457   1.693 -0.2454  1.5508  0.1971
27844SOL    HW288380   8.278   9.361   1.769  2.4465  0.5819  2.2660
27845SOL     OW88381   7.476   2.341   0.627 -0.3976  0.3276 -0.4393
27845SOL    HW188382   7.406   2.383   0.577 -0.3935  0.9118  0.0258
27845SOL    HW288383   7.556   2.366   0.581 -0.3679  1.1352  0.0198
27846SOL     OW88384   5.510   8.388   3.185  0.5679 -0.3801  0.4024
27846SOL    HW188385   5.471   8.456   3.239  1.9170 -0.2182  1.2147
27846SOL    HW288386   5.436   8.346   3.142 -0.2254  2.7049 -1.5342
27847SOL     OW88387   1.160   9.618   2.454  0.0471  0.0042 -0.3235
27847SOL    HW188388   1.134   9.595   2.544  1.0096  0.7435  0.1531
27847SOL    HW288389   1.237   9.564   2.437  0.5852  0.7405 -0.2585
27848SOL     OW88390   9.794   6.737   9.372 -0.4426  0.9591  0.2053
27848SOL    HW188391   9.844   6.761   9.293 -1.3913  0.8297 -0.4484
27848SOL    HW288392   9.861   6.716   9.437  0.3834 -0.6556 -1.0863
27849SOL     OW88393   8.728   1.018   3.191  0.1436  0.0435  0.4092
27849SOL    HW188394   8.767   0.992   3.275  1.9913  1.8842  0.1833
27849SOL    HW288395   8.634   1.026   3.210 -0.0393 -3.1059  1.3328
27850SOL     OW88396   9.224   8.708   2.099 -0.2195  0.0110 -0.3339
27850SOL    HW188397   9.158   8.746   2.042 -1.0656 -0.9590 -0.0129
27850SOL    HW288398   9.178   8.641   2.149  0.6805  0.2698  0.9040
27851SOL     OW88399   6.665   8.683   3.972 -0.1286  0.7085  0.5963
27851SOL    HW188400   6.590   8.642   4.015  0.2488 -0.7512 -0.0814
27851SOL    HW288401   6.631   8.768   3.941 -1.2940  0.3805  0.9060
27852SOL     OW88402   7.783   0.495   1.553 -0.0890 -0.3683 -0.4367
27852SOL    HW188403   7.846   0.499   1.481 -1.2144 -2.0349 -1.5787
27852SOL    HW288404   7.823   0.435   1.616 -0.0034 -0.4873 -0.6035
27853SOL     OW88405   7.741   0.111   9.168 -0.2397 -0.0124  0.3101
27853SOL    HW188406   7.765   0.157   9.248 -1.6098 -0.6414  1.0967
27853SOL    HW288407   7.646   0.122   9.160 -0.1864 -0.2636 -1.0445
27854SOL     OW88408   9.346   1.800   8.469  0.0701 -0.6434 -0.0122
27854SOL    HW188409   9.309   1.887   8.454 -3.2767 -2.1565 -1.4760
27854SOL    HW288410   9.388   1.807   8.555  0.8980  2.6414 -0.5450
27855SOL     OW88411   9.132   8.556   0.966  0.0507  0.1328 -0.6737
27855SOL    HW188412   9.043   8.551   1.001  0.3469  0.3883  0.1384
27855SOL    HW288413   9.150   8.650   0.959  0.1837  0.0833 -1.0280
27856SOL     OW88414   0.025   8.885   9.826 -0.1082 -0.5049  0.3713
27856SOL    HW188415  -0.006   8.873   9.916  2.1390 -0.0456  1.2483
27856SOL    HW288416   0.118   8.864   9.829  0.4423  1.3491 -1.4446
27857SOL     OW88417   0.868   9.114   9.137  0.4217 -0.9553 -0.3029
27857SOL    HW188418   0.807   9.187   9.130 -0.4491 -1.3671  2.0635
27857SOL    HW288419   0.871   9.094   9.231  2.7243 -2.2171 -0.5721
27858SOL     OW88420   8.144   9.061   0.926 -0.2944  0.1853  0.9428
27858SOL    HW188421   8.228   9.080   0.885  0.8050 -1.9742  2.0200
27858SOL    HW288422   8.158   9.079   1.019 -0.2674 -2.1599  1.4708
27859SOL     OW88423   7.462   0.006   9.442  0.2437 -0.7712 -0.0213
27859SOL    HW188424   7.367   0.020   9.439  0.3370  0.2248  1.0202
27859SOL    HW288425   7.473  -0.088   9.427 -0.8785 -0.8428 -0.5018
27860SOL     OW88426   9.230   7.797   8.720  0.4285  0.7553 -0.3330
27860SOL    HW188427   9.237   7.701   8.722 -0.2283  0.6103 -2.3884
27860SOL    HW288428   9.183   7.820   8.800  0.4018 -0.6500  0.0825
27861SOL     OW88429   7.536   7.437   8.575  0.0028 -0.2577  0.1926
27861SOL    HW188430   7.519   7.471   8.487 -0.3946  1.2560  0.8227
27861SOL    HW288431   7.608   7.375   8.562  0.8241  0.8706 -1.0418
27862SOL     OW88432   7.471   0.632   1.619  0.6992 -0.6824  0.5911
27862SOL    HW188433   7.501   0.678   1.540 -2.0748 -0.2270 -0.3089
27862SOL    HW288434   7.386   0.671   1.638  0.5564 -1.9440  2.8856
27863SOL     OW88435   7.523   9.794   3.426 -0.1826  0.0797 -0.5071
27863SOL    HW188436   7.469   9.716   3.425  1.4995 -1.1325 -1.5551
27863SOL    HW288437   7.593   9.774   3.489  2.1714 -0.7269 -3.1773
27864SOL     OW88438   9.320   0.098   0.907  0.1283  0.0374 -0.0459
27864SOL    HW188439   9.301   0.148   0.828  2.0072 -0.2128 -0.7290
27864SOL    HW288440   9.409   0.064   0.893  0.0944 -0.9282  1.7079
27865SOL     OW88441   8.471   2.642   2.407 -0.2881 -0.3562  0.4951
27865SOL    HW188442   8.504   2.624   2.319  0.2899 -0.2273  0.6823
27865SOL    HW288443   8.534   2.600   2.466  2.2144  3.6683  1.0499
27866SOL     OW88444   7.930   8.223   9.076  0.7848  0.0111  0.1870
27866SOL    HW188445   7.895   8.195   8.991  0.5517 -0.1356  0.3303
27866SOL    HW288446   7.948   8.316   9.064 -0.9488  0.4206  0.5187
27867SOL     OW88447   1.071   6.527   0.922 -0.6899 -0.4832  0.2879
27867SOL    HW188448   1.148   6.473   0.905 -0.5056  0.1384 -1.0218
27867SOL    HW288449   0.997   6.469   0.906 -0.4943 -0.3706 -1.1785
27868SOL     OW88450   7.903   9.530   0.089 -0.7415  0.4186 -0.2128
27868SOL    HW188451   7.830   9.487   0.044  0.1050  0.7554 -1.9805
27868SOL    HW288452   7.963   9.459   0.111 -0.9194  0.3095 -0.0765
27869SOL     OW88453   6.184   8.490   1.493  0.4412 -0.9206 -0.3003
27869SOL    HW188454   6.246   8.513   1.562  0.4189 -2.4061  0.2522
27869SOL    HW288455   6.202   8.553   1.423 -0.9782  2.0372  1.7929
27870SOL     OW88456   9.162   0.364   0.301  0.0529  0.4673 -0.4705
27870SOL    HW188457   9.227   0.294   0.298 -1.1933 -0.7117 -1.8500
27870SOL    HW288458   9.175   0.413   0.220 -1.3350 -0.4053 -1.2865
27871SOL     OW88459   9.644   9.674   1.433 -0.3598 -0.3699 -0.0693
27871SOL    HW188460   9.717   9.649   1.489 -0.2568 -0.2737 -0.1606
27871SOL    HW288461   9.680   9.673   1.344 -0.8108 -1.6610 -0.2647
27872SOL     OW88462   5.819   8.796   1.122 -0.0258 -0.2609 -0.1785
27872SOL    HW188463   5.774   8.880   1.115  1.3938  0.7996  2.2791
27872SOL    HW288464   5.751   8.734   1.149 -0.6793  0.5605  0.1039
27873SOL     OW88465   8.703   9.254   0.723 -0.1548  0.4563  0.0403
27873SOL    HW188466   8.673   9.206   0.800  1.4575 -1.2444 -0.3024
27873SOL    HW288467   8.683   9.346   0.742 -1.5276 -0.1221  1.6182
27874SOL     OW88468   6.074   9.807   1.037  0.0273 -0.2766 -0.2765
27874SOL    HW188469   6.000   9.865   1.052  0.4398  0.0081  0.7440
27874SOL    HW288470   6.062   9.736   1.100  0.0890 -0.7538 -0.7941
27875SOL     OW88471   7.942   9.518   9.335  0.5088  0.3283 -0.4188
27875SOL    HW188472   7.977   9.587   9.279  1.3986  0.3003  0.0857
27875SOL    HW288473   7.894   9.565   9.404 -1.4112  0.3383 -1.6915
27876SOL     OW88474   7.587   0.072   8.458  0.1011  0.0405  0.2990
27876SOL    HW188475   7.533   0.149   8.476  1.4149  1.3400 -0.9404
27876SOL    HW288476   7.669   0.090   8.504 -0.3755 -1.7791  1.9637
27877SOL     OW88477   0.066   8.573   3.365 -0.4215  0.6240  0.0688
27877SOL    HW188478   0.030   8.661   3.355 -2.0488 -0.0139  0.0110
27877SOL    HW288479   0.062   8.536   3.277  1.7667  1.0144 -0.2317
27878SOL     OW88480   9.371   9.513   9.779 -0.1817  0.5826  0.3363
27878SOL    HW188481   9.384   9.542   9.689  1.6740 -1.0076  0.0473
27878SOL    HW288482   9.407   9.584   9.832 -0.5436  1.1612 -0.1699
27879SOL     OW88483   0.367   8.956   2.042 -0.2334 -0.3639 -0.2937
27879SOL    HW188484   0.412   8.923   1.964 -3.0495 -1.3078 -1.6648
27879SOL    HW288485   0.324   8.879   2.079  0.5316  0.1878  1.9017
27880SOL     OW88486   7.739   0.666   1.056 -0.6237 -0.4903 -0.3650
27880SOL    HW188487   7.698   0.699   0.975 -0.5929 -0.1057 -0.2218
27880SOL    HW288488   7.783   0.585   1.029 -1.2591 -0.7779 -0.5794
27881SOL     OW88489   7.386   9.088   1.813  0.7673 -0.3218  0.1907
27881SOL    HW188490   7.415   9.133   1.892  0.9262  0.8013 -0.4818
27881SOL    HW288491   7.386   9.156   1.745 -0.8105 -0.8983 -0.4498
27882SOL     OW88492   8.252   5.943   2.848 -0.1174 -0.5688 -0.0442
27882SOL    HW188493   8.228   5.947   2.756 -2.3117  0.0003  0.5098
27882SOL    HW288494   8.348   5.933   2.847  0.0463  0.5586 -2.3447
27883SOL     OW88495   8.424   6.777   1.573 -0.0128  0.1989 -0.2404
27883SOL    HW188496   8.516   6.799   1.583 -0.1432  0.4211  0.5474
27883SOL    HW288497   8.408   6.781   1.478  0.3419  1.9987 -0.2560
27884SOL     OW88498   8.737   1.169   9.035 -0.2041 -0.4127 -0.2844
27884SOL    HW188499   8.771   1.200   8.951  1.7220 -1.2612  0.1232
27884SOL    HW288500   8.816   1.150   9.087 -1.3447 -0.5546  1.4704
27885SOL     OW88501   6.729   2.292   2.423 -0.0567 -0.0684 -0.3760
27885SOL    HW188502   6.742   2.382   2.393  0.0813  0.3061  0.7562
27885SOL    HW288503   6.811   2.247   2.402 -0.5105 -0.2382 -1.9175
27886SOL     OW88504   8.414   9.487   3.129  0.4234  0.0960  0.6152
27886SOL    HW188505   8.476   9.538   3.181  0.8572  1.2396 -0.9229
27886SOL    HW288506   8.420   9.525   3.041  0.0996 -2.0458 -0.4122
27887SOL     OW88507   7.018   3.351   3.219 -0.0613  0.1221  0.8091
27887SOL    HW188508   7.101   3.344   3.172  0.0448  3.3200  0.3068
27887SOL    HW288509   6.957   3.296   3.170  1.0946 -0.0190 -0.5069
27888SOL     OW88510   8.784   8.056   3.799  0.3500  0.1502  0.1283
27888SOL    HW188511   8.845   8.016   3.861  0.4637  1.8233  1.1587
27888SOL    HW288512   8.713   8.090   3.853  0.4512  1.6607 -0.6226
27889SOL     OW88513   8.465   8.689   2.491 -0.4165 -0.2507  0.2904
27889SOL    HW188514   8.511   8.705   2.409  1.4354  0.4423  1.4149
27889SOL    HW288515   8.521   8.628   2.539 -1.4183 -0.5580  1.1044
27890SOL     OW88516   9.548   8.611   3.287  0.1021 -0.2245 -0.0628
27890SOL    HW188517   9.552   8.594   3.381 -1.4033 -1.5202 -0.1937
27890SOL    HW288518   9.463   8.576   3.259 -0.4684  2.0604 -1.5511
27891SOL     OW88519   7.409   0.664   3.544  0.0117  0.4650 -0.4075
27891SOL    HW188520   7.351   0.634   3.475  0.8185 -0.7129 -0.6014
27891SOL    HW288521   7.485   0.700   3.499 -0.1854  1.2342 -0.1452
27892SOL     OW88522   8.735   8.830   1.877 -0.4462  0.2007  0.2068
27892SOL    HW188523   8.710   8.898   1.814 -1.0421 -0.2104 -0.0136
27892SOL    HW288524   8.657   8.819   1.932 -1.0417 -1.5456 -0.8904
27893SOL     OW88525   1.185   9.446   2.123 -0.5512 -0.0517 -0.0319
27893SOL    HW188526   1.096   9.424   2.148 -0.5989  1.7446  1.6379
27893SOL    HW288527   1.200   9.532   2.163  1.4075  0.3811 -1.5463
27894SOL     OW88528   9.213   8.849   3.497 -0.4117 -0.2089 -0.4186
27894SOL    HW188529   9.308   8.839   3.483 -0.5003 -1.9558  0.0327
27894SOL    HW288530   9.202   8.941   3.523  0.7849  0.8928 -3.3183
27895SOL     OW88531   9.072   8.319   2.661 -0.4969  0.0066  0.0805
27895SOL    HW188532   9.119   8.396   2.692  0.9120 -1.1158  0.8371
27895SOL    HW288533   9.127   8.245   2.687 -0.8512 -1.1808 -2.2753
27896SOL     OW88534   8.983   0.271   0.767  0.6178 -0.2722 -0.0021
27896SOL    HW188535   8.979   0.267   0.862 -0.1627  1.2159  0.0516
27896SOL    HW288536   9.041   0.345   0.749 -0.5425  0.4835 -0.6694
27897SOL     OW88537   7.573   0.024   0.126  0.2745  0.1489  0.1251
27897SOL    HW188538   7.611   0.095   0.178 -0.3550  0.5155  0.0973
27897SOL    HW288539   7.628   0.019   0.048  0.4992  0.4108  0.2650
27898SOL     OW88540   8.746   8.815   4.082  0.0674 -0.0988  0.0264
27898SOL    HW188541   8.737   8.741   4.142  1.2860 -0.5759 -0.3501
27898SOL    HW288542   8.818   8.867   4.117  1.1687 -0.6772 -1.2694
27899SOL     OW88543   7.519   1.749   2.468  0.5198  0.6574  0.6264
27899SOL    HW188544   7.526   1.787   2.380 -0.9184  3.0996  1.4723
27899SOL    HW288545   7.432   1.709   2.470  1.4945 -1.6430  0.2063
27900SOL     OW88546   7.129   3.356   3.473  0.3812 -0.4773 -0.1812
27900SOL    HW188547   7.106   3.397   3.389  2.9086  1.5427  0.0078
27900SOL    HW288548   7.179   3.278   3.449 -0.3726 -0.8805 -0.5062
27901SOL     OW88549   8.899   0.653   0.558  0.9135 -0.6100 -0.5766
27901SOL    HW188550   8.984   0.613   0.575  1.2362 -0.2235 -1.2433
27901SOL    HW288551   8.917   0.722   0.494  0.2308  0.0386 -0.0820
27902SOL     OW88552   0.420   0.177   4.951 -0.5935 -0.0163 -0.2137
27902SOL    HW188553   0.469   0.158   4.871  0.9428  0.9226  0.4576
27902SOL    HW288554   0.398   0.091   4.987  2.0655 -0.5872  0.3126
27903SOL     OW88555   7.748   9.769   9.702 -0.3038  0.6483  0.2472
27903SOL    HW188556   7.690   9.692   9.699  1.4936 -0.8331  1.2892
27903SOL    HW288557   7.794   9.768   9.619 -0.4977  0.8004  0.1353
27904SOL     OW88558   8.586   0.456   2.224 -0.1923  0.3270 -0.3339
27904SOL    HW188559   8.576   0.548   2.251  1.6208  0.6101 -0.4512
27904SOL    HW288560   8.672   0.431   2.258  0.1723 -0.7294 -1.9451
27905SOL     OW88561   7.144   6.541   4.707  0.6964 -0.0454 -0.2930
27905SOL    HW188562   7.216   6.584   4.753  0.0215  1.3649 -0.5076
27905SOL    HW288563   7.124   6.600   4.634  0.8261 -1.5531 -1.5952
27906SOL     OW88564   8.233   8.509   1.349 -0.0987  0.1357  0.1056
27906SOL    HW188565   8.294   8.581   1.328  0.2099 -0.7471 -2.4188
27906SOL    HW288566   8.287   8.430   1.345 -0.9749 -0.4720  0.0698
27907SOL     OW88567   1.302   7.629   1.742 -0.2933 -0.2496 -0.5037
27907SOL    HW188568   1.365   7.562   1.715  0.8527  0.2799  0.7466
27907SOL    HW288569   1.328   7.706   1.691 -0.0484 -0.0933 -0.1495
27908SOL     OW88570   8.379   7.739   2.396 -0.2656  0.0671  0.4070
27908SOL    HW188571   8.448   7.711   2.458  0.6082  0.2346 -0.4650
27908SOL    HW288572   8.347   7.821   2.432  2.0679  1.5628 -0.6649
27909SOL     OW88573   9.569   7.154   0.944  0.0368 -0.5590 -0.3143
27909SOL    HW188574   9.545   7.221   0.879  1.4259  1.3590  1.0319
27909SOL    HW288575   9.664   7.149   0.939  0.0544 -1.4304  0.5920
27910SOL     OW88576   8.815   1.321   4.722 -0.1772 -0.1568  0.5067
27910SOL    HW188577   8.893   1.266   4.709  0.3704  0.8353 -0.5455
27910SOL    HW288578   8.745   1.274   4.677  0.5555  0.5578 -1.5083
27911SOL     OW88579   8.841   0.794   1.927  0.0782  0.2118  0.3499
27911SOL    HW188580   8.923   0.777   1.881 -0.4204 -0.2150 -0.4057
27911SOL    HW288581   8.775   0.745   1.878 -0.5214 -0.0376  1.3674
27912SOL     OW88582   6.543   1.839   3.913  0.0903 -0.1140 -0.0198
27912SOL    HW188583   6.543   1.925   3.954  0.6440 -0.2245  0.2201
27912SOL    HW288584   6.614   1.792   3.956  0.5311 -0.3094 -0.9283
27913SOL     OW88585   8.135   1.118   1.938  0.0859 -0.2319  0.2494
27913SOL    HW188586   8.106   1.172   2.012  0.7680 -1.1603  1.2118
27913SOL    HW288587   8.225   1.146   1.921 -0.1330  0.1181 -0.3772
27914SOL     OW88588   8.457   0.716   1.793  0.2635 -0.1616 -0.1480
27914SOL    HW188589   8.533   0.662   1.774  0.3726  0.6348 -2.3722
27914SOL    HW288590   8.421   0.681   1.874  1.5913 -2.1130 -0.3431
27915SOL     OW88591   8.059   0.545   2.744  0.5593  0.4707  0.0032
27915SOL    HW188592   8.144   0.519   2.780  1.5861 -0.4306 -2.8451
27915SOL    HW288593   8.034   0.473   2.686 -1.2496  1.5720 -0.6863
27916SOL     OW88594   8.709   9.675   2.853 -0.1587  0.2972 -0.4079
27916SOL    HW188595   8.786   9.707   2.899 -0.0738 -0.6932  0.1715
27916SOL    HW288596   8.678   9.750   2.802  0.4797  1.0520  0.2904
27917SOL     OW88597   7.439   6.872   0.781  0.4379 -0.1192 -0.0032
27917SOL    HW188598   7.506   6.889   0.848 -0.1747 -0.8549  0.8093
27917SOL    HW288599   7.394   6.956   0.771  0.1360 -0.1606  0.9506
27918SOL     OW88600   6.688   1.023   0.963  0.2664  0.3860 -0.5684
27918SOL    HW188601   6.714   0.978   1.044  3.2687  1.5758 -0.7373
27918SOL    HW288602   6.601   1.058   0.982  0.5561 -0.0121  1.8665
27919SOL     OW88603   8.608   0.280   4.933 -0.1321 -0.5909 -0.5150
27919SOL    HW188604   8.586   0.271   4.840  0.2639  1.9687 -0.9291
27919SOL    HW288605   8.686   0.335   4.934  0.4063 -1.3094  1.3248
27920SOL     OW88606   9.076   0.392   2.461 -0.4065 -0.6142  0.2427
27920SOL    HW188607   9.157   0.345   2.478 -0.3691 -1.2388 -1.4289
27920SOL    HW288608   9.073   0.461   2.527  2.2010  0.3180 -0.4991
27921SOL     OW88609   6.717   9.219   3.303 -0.3895 -0.3984  0.3847
27921SOL    HW188610   6.624   9.199   3.300 -0.2743 -0.7898 -1.3362
27921SOL    HW288611   6.754   9.155   3.364 -1.0790 -0.9625  0.2214
27922SOL     OW88612   7.710   6.850   3.475  0.1894 -0.1920  0.4778
27922SOL    HW188613   7.772   6.777   3.477 -0.3904 -0.8573 -2.1803
27922SOL    HW288614   7.756   6.919   3.429 -0.5157 -0.1593 -0.1832
27923SOL     OW88615   8.855   9.409   2.386 -0.5341  0.1922  0.2176
27923SOL    HW188616   8.769   9.441   2.416 -1.0979 -1.2119  0.1622
27923SOL    HW288617   8.834   9.353   2.312  0.6079  1.2683 -0.9559
27924SOL     OW88618   5.880   1.223   2.779 -0.0715  0.5009 -0.1148
27924SOL    HW188619   5.879   1.155   2.711  1.1523 -1.0891  1.3811
27924SOL    HW288620   5.968   1.219   2.815 -0.0349  2.8068  0.1454
27925SOL     OW88621   7.953   0.232   4.940  0.4289  0.1200 -0.0301
27925SOL    HW188622   7.958   0.311   4.886 -0.6150 -0.8016 -1.5765
27925SOL    HW288623   8.033   0.184   4.920  0.7443  0.4626  0.3941
27926SOL     OW88624   7.839   0.307   2.120  0.2133  0.9506 -0.2663
27926SOL    HW188625   7.756   0.321   2.165  1.5765  0.9559  2.4442
27926SOL    HW288626   7.850   0.212   2.121  0.6953  1.0076  0.3195
27927SOL     OW88627   9.504   8.384   1.454  0.4310 -0.8014  0.1214
27927SOL    HW188628   9.542   8.337   1.528  1.4842  1.3554  1.0334
27927SOL    HW288629   9.564   8.457   1.438 -2.2835  1.6634  0.3896
27928SOL     OW88630   8.573   7.257   9.311  0.0244 -0.2521  0.4432
27928SOL    HW188631   8.523   7.237   9.390 -0.2801  0.5104  0.4567
27928SOL    HW288632   8.512   7.242   9.239  0.4638 -1.4819  0.2915
27929SOL     OW88633   9.091   2.166   4.181 -0.1572 -0.2830  0.5183
27929SOL    HW188634   9.141   2.213   4.114 -1.1505  0.7718  0.4790
27929SOL    HW288635   9.148   2.094   4.207  1.2459  0.6674  0.2338
27930SOL     OW88636   7.633   0.405   1.328  0.2570  0.4669 -0.1343
27930SOL    HW188637   7.690   0.429   1.401 -0.2742 -0.4734  0.6021
27930SOL    HW288638   7.692   0.359   1.267  0.1584 -1.3114  1.0375
27931SOL     OW88639   8.633   8.661   4.892  0.4443 -0.3363 -0.4272
27931SOL    HW188640   8.666   8.579   4.929  0.5099 -0.3000 -0.4041
27931SOL    HW288641   8.712   8.713   4.875  0.3276  0.5126  1.3610
27932SOL     OW88642   8.094   9.522   3.400 -0.8391  0.4399  0.1876
27932SOL    HW188643   8.106   9.490   3.311 -2.0973 -0.1972  0.2319
27932SOL    HW288644   8.164   9.480   3.450 -0.6700  0.0933 -0.3299
27933SOL     OW88645   7.634   0.283   2.447  0.9995 -0.0757 -0.0570
27933SOL    HW188646   7.589   0.324   2.521 -1.3768 -3.8912  0.8857
27933SOL    HW288647   7.658   0.196   2.479  1.5089 -1.2113 -3.2361
27934SOL     OW88648   8.130   0.830   4.702 -0.4549 -0.5268  0.2251
27934SOL    HW188649   8.161   0.797   4.786  0.1570 -0.9608 -0.1588
27934SOL    HW288650   8.148   0.759   4.640  0.0740  0.1878 -0.4622
27935SOL     OW88651   9.145   0.250   1.072  0.0593  0.0816  0.1341
27935SOL    HW188652   9.160   0.190   1.145 -0.5353 -0.3776 -0.1134
27935SOL    HW288653   9.218   0.234   1.013 -0.3477 -0.7594 -0.1598
27936SOL     OW88654   0.041   9.637   1.803  0.5120 -0.1961  0.2694
27936SOL    HW188655   0.052   9.677   1.717 -0.7170 -0.9802 -0.2761
27936SOL    HW288656   0.070   9.546   1.792 -0.9302 -0.6795  0.3057
27937SOL     OW88657   9.126   9.675   1.940 -0.0757  0.1640 -0.0880
27937SOL    HW188658   9.122   9.707   2.030  1.4252  0.3033 -0.0517
27937SOL    HW288659   9.197   9.724   1.900  0.0110 -0.6975 -1.0283
27938SOL     OW88660   0.124   0.099   1.565 -0.4210 -0.4588 -0.0963
27938SOL    HW188661   0.053   0.164   1.559  0.3956  0.4724  0.0155
27938SOL    HW288662   0.184   0.122   1.494 -0.2461 -1.2635 -0.2163
27939SOL     OW88663   7.593   7.373   5.215  0.0256 -0.0076  0.6539
27939SOL    HW188664   7.593   7.297   5.274 -0.3084 -0.7982 -0.3518
27939SOL    HW288665   7.612   7.337   5.129 -0.2937  1.0430  0.1288
27940SOL     OW88666   5.000   9.155   3.445 -0.1381  0.3684  0.2667
27940SOL    HW188667   4.948   9.187   3.518 -1.4804 -2.9909  0.9666
27940SOL    HW288668   5.064   9.095   3.485  1.3245  0.9681 -1.0328
27941SOL     OW88669   9.129   0.061   2.527  0.9633 -0.1090  0.4354
27941SOL    HW188670   9.175  -0.023   2.521  0.1976 -0.4513 -2.1884
27941SOL    HW288671   9.038   0.037   2.544  1.3044  0.4576  3.4848
27942SOL     OW88672   0.386   0.881   3.098  0.3804 -0.0137 -0.0089
27942SOL    HW188673   0.470   0.903   3.139  1.2073 -0.8446 -1.1785
27942SOL    HW288674   0.343   0.824   3.161  0.9258  0.0019  0.3906
27943SOL     OW88675   7.589   1.294   3.873 -1.0561 -0.2854  0.1760
27943SOL    HW188676   7.611   1.212   3.829  0.9843 -0.3455  1.1799
27943SOL    HW288677   7.550   1.267   3.956  1.5296 -0.3721  1.4539
27944SOL     OW88678   9.454   8.453   5.741 -0.4758  0.3990 -0.3862
27944SOL    HW188679   9.522   8.505   5.783 -0.6883  0.6066 -0.3013
27944SOL    HW288680   9.433   8.384   5.804 -1.8577  1.5749  0.5022
27945SOL     OW88681   8.672   8.227   0.447 -0.0342 -0.1402  1.1442
27945SOL    HW188682   8.703   8.317   0.452 -1.2324  0.2998  0.8205
27945SOL    HW288683   8.749   8.174   0.469  1.1290  0.8823 -0.2654
27946SOL     OW88684   9.526   9.068   3.959 -0.3044  0.0203  0.0754
27946SOL    HW188685   9.435   9.040   3.965 -0.3259 -0.2938 -1.4546
27946SOL    HW288686   9.525   9.141   3.897  0.4997  0.0037  0.0308
27947SOL     OW88687   8.401   9.816   1.472 -0.0112 -0.7443  0.5707
27947SOL    HW188688   8.339   9.842   1.403  0.8079 -0.7999 -0.2165
27947SOL    HW288689   8.469   9.767   1.425  1.2626  0.3530  1.2188
27948SOL     OW88690   6.837   8.331   5.239  0.2967 -0.4801  0.5617
27948SOL    HW188691   6.780   8.323   5.315 -0.1502  1.2460  0.4513
27948SOL    HW288692   6.777   8.327   5.164  0.1148  2.1130  0.4618
27949SOL     OW88693   6.149   0.100   0.800  0.2524  0.4730 -0.7198
27949SOL    HW188694   6.100   0.038   0.746 -1.8670  1.6049 -0.1861
27949SOL    HW288695   6.141   0.066   0.889  1.8639 -0.1925 -0.7943
27950SOL     OW88696   7.093   9.476   2.606  0.0933 -0.1019 -0.5296
27950SOL    HW188697   7.105   9.571   2.603 -2.0455  0.2580  0.3432
27950SOL    HW288698   7.022   9.460   2.543 -0.3396 -0.9570  0.1639
27951SOL     OW88699   9.031   9.554   3.437  0.2654  0.2126  0.1642
27951SOL    HW188700   9.116   9.527   3.402 -1.0275 -2.6209 -1.0796
27951SOL    HW288701   9.029   9.518   3.526  0.3066  0.1582  0.1432
27952SOL     OW88702   7.305   8.912   3.260 -0.0903  0.2138 -0.1427
27952SOL    HW188703   7.338   8.906   3.171  1.4572  1.7706  0.2590
27952SOL    HW288704   7.286   9.006   3.272  0.0532  0.0797  1.2637
27953SOL     OW88705   8.376   9.067   8.299 -0.3848  0.1986 -0.0933
27953SOL    HW188706   8.292   9.099   8.265 -0.0636 -0.0323 -1.1375
27953SOL    HW288707   8.421   9.032   8.222 -0.7916 -3.0065  0.9717
27954SOL     OW88708   0.232   0.149   2.692  0.5260  0.8396 -0.4206
27954SOL    HW188709   0.204   0.231   2.733 -2.7941 -0.6809  0.7111
27954SOL    HW288710   0.298   0.113   2.752 -0.9244  0.8332  1.2298
27955SOL     OW88711   8.948   8.873   1.034  0.3479  0.2145  0.3170
27955SOL    HW188712   8.936   8.966   1.057  0.1144  0.0677  0.8301
27955SOL    HW288713   8.863   8.847   0.997  1.2867  0.9238 -2.5202
27956SOL     OW88714   6.735   9.392   3.742 -0.4023  0.0173  0.7923
27956SOL    HW188715   6.666   9.459   3.746 -0.5183 -0.1576  3.2395
27956SOL    HW288716   6.688   9.311   3.723 -0.5546  0.2562  0.1162
27957SOL     OW88717   6.377   1.129   3.405 -0.3222  0.0048 -0.6385
27957SOL    HW188718   6.386   1.056   3.344 -2.0309  0.9365 -2.1063
27957SOL    HW288719   6.371   1.089   3.492  0.3705 -1.4584 -1.2473
27958SOL     OW88720   7.747   9.625   5.432  0.0399 -0.6608 -0.0028
27958SOL    HW188721   7.763   9.562   5.502 -2.9084 -0.0475  1.3981
27958SOL    HW288722   7.804   9.700   5.452  0.7696 -1.3398  0.4861
27959SOL     OW88723   9.375   8.892   4.621  0.1956 -0.1126  0.2632
27959SOL    HW188724   9.461   8.894   4.663 -0.5605  0.1358  1.8808
27959SOL    HW288725   9.390   8.849   4.537  1.8385 -0.3471  0.6469
27960SOL     OW88726   8.784   8.589   6.367  0.2739 -0.6161 -0.3730
27960SOL    HW188727   8.869   8.633   6.367  0.2518 -0.5493 -1.2559
27960SOL    HW288728   8.757   8.590   6.275 -0.0954 -1.7764 -0.2832
27961SOL     OW88729   8.049   1.516   4.059 -0.5005  0.0456 -0.7731
27961SOL    HW188730   8.144   1.522   4.051 -0.1912 -2.3918  0.2752
27961SOL    HW288731   8.022   1.460   3.986 -1.1929  0.9656 -1.2445
27962SOL     OW88732   8.313   0.976   4.423  0.3649 -0.1687  0.1882
27962SOL    HW188733   8.329   1.070   4.411 -0.7450 -0.0811 -0.8468
27962SOL    HW288734   8.370   0.951   4.495 -1.1212  1.8411  2.2339
27963SOL     OW88735   8.186   0.547   5.658 -0.1926 -0.4544 -0.3108
27963SOL    HW188736   8.158   0.539   5.749 -0.6465 -0.7712 -0.4766
27963SOL    HW288737   8.242   0.624   5.657 -0.9194  0.0887  0.0616
27964SOL     OW88738   9.186   9.065   5.863  0.1174  0.1042 -0.4154
27964SOL    HW188739   9.257   9.059   5.928 -1.3471  1.4045  1.4182
27964SOL    HW288740   9.167   9.159   5.858 -2.8383 -0.3097  0.7941
27965SOL     OW88741   7.161   0.772   3.643  0.5141  0.1810 -0.2570
27965SOL    HW188742   7.247   0.756   3.605  0.0806  1.0423 -1.6455
27965SOL    HW288743   7.100   0.771   3.569 -0.3608  1.9049  0.3706
27966SOL     OW88744   9.284   9.033   6.704  0.1653  0.2532  0.5694
27966SOL    HW188745   9.200   9.004   6.740  0.4644 -0.0584  1.0248
27966SOL    HW288746   9.286   8.995   6.616 -0.3241  0.5491  0.4269
27967SOL     OW88747   7.095   1.006   2.528 -0.4645  0.1336 -0.4322
27967SOL    HW188748   7.145   1.058   2.466 -0.9355  1.0681 -0.0478
27967SOL    HW288749   7.155   0.994   2.602  0.2056 -1.2441 -1.1730
27968SOL     OW88750   8.447   0.992   4.646  0.4759 -0.0252  0.3579
27968SOL    HW188751   8.466   0.925   4.712 -2.0655 -2.3739 -1.0896
27968SOL    HW288752   8.371   1.039   4.681  2.3636  2.4255  1.4611
27969SOL     OW88753   8.578   8.441   5.154  0.3011  0.1292  0.1234
27969SOL    HW188754   8.583   8.360   5.205  0.5650 -0.0524 -0.1866
27969SOL    HW288755   8.652   8.435   5.093  0.5820  0.8022  0.3888
27970SOL     OW88756   9.664   2.071   6.315  0.3550  0.0279 -0.2971
27970SOL    HW188757   9.656   2.166   6.325  1.8679  0.0696  0.7662
27970SOL    HW288758   9.729   2.045   6.380  1.4640 -1.4680 -1.9121
27971SOL     OW88759   9.299   9.285   6.136  0.0142 -0.4199  0.5900
27971SOL    HW188760   9.295   9.301   6.230  1.0373 -0.6425  0.6845
27971SOL    HW288761   9.305   9.189   6.128  1.8803 -0.3253  0.4113
27972SOL     OW88762   8.712   1.872   3.369 -0.1584 -0.2128  0.3188
27972SOL    HW188763   8.780   1.878   3.437  0.1599  1.4918 -0.1210
27972SOL    HW288764   8.697   1.778   3.360  1.1472 -0.5687  1.4126
27973SOL     OW88765   7.559   8.913   4.898  0.1419  0.2649  0.5493
27973SOL    HW188766   7.604   8.840   4.855 -0.6926 -0.8410  1.5111
27973SOL    HW288767   7.630   8.962   4.940  0.8861  0.9347 -1.3815
27974SOL     OW88768   8.640   0.011   4.419 -0.0654  0.3002 -0.1793
27974SOL    HW188769   8.625  -0.052   4.349  2.9938  0.6712 -1.2869
27974SOL    HW288770   8.730  -0.005   4.447 -0.6641  1.2610  2.6070
27975SOL     OW88771   8.389   1.090   5.022 -0.4656 -0.0463 -0.6618
27975SOL    HW188772   8.478   1.056   5.035 -0.2508  0.1662 -1.5409
27975SOL    HW288773   8.387   1.170   5.075 -0.3780 -0.4345 -0.0598
27976SOL     OW88774   7.581   7.966   3.350  0.3587  0.2882 -0.1633
27976SOL    HW188775   7.537   7.957   3.265 -1.0999 -0.1216  0.6067
27976SOL    HW288776   7.614   7.878   3.369 -2.9029 -0.7190  1.5295
27977SOL     OW88777   8.647   0.739   6.759 -0.2223 -0.2804  0.0602
27977SOL    HW188778   8.555   0.744   6.734  0.3886 -1.3052 -2.6066
27977SOL    HW288779   8.671   0.830   6.776 -0.8892  0.4771 -2.6206
27978SOL     OW88780   7.799   0.990   3.409  0.3907  0.0208  0.0894
27978SOL    HW188781   7.891   1.005   3.430  0.4508  0.8734 -0.7547
27978SOL    HW288782   7.751   1.056   3.459  0.1877 -0.6270  0.7856
27979SOL     OW88783   7.882   0.472   3.985  0.0721 -0.1750  0.3584
27979SOL    HW188784   7.847   0.480   3.897 -1.4259 -0.8027  0.8618
27979SOL    HW288785   7.963   0.524   3.984 -0.3898  0.5684 -1.1051
27980SOL     OW88786   9.586   9.845   7.979 -0.2239  0.2061  0.5084
27980SOL    HW188787   9.530   9.768   7.968  0.0310  0.1686 -0.6562
27980SOL    HW288788   9.531   9.918   7.948 -0.8224  0.6576  2.5192
27981SOL     OW88789   7.152   1.350   1.189 -0.5757 -0.5731 -0.1716
27981SOL    HW188790   7.097   1.330   1.264 -0.4294 -0.2792  0.0157
27981SOL    HW288791   7.178   1.441   1.201 -0.1287 -0.6796 -0.3051
27982SOL     OW88792   7.738   7.947   4.148 -0.2754  0.0267 -0.6121
27982SOL    HW188793   7.763   7.868   4.099 -1.3464 -1.0264  0.4698
27982SOL    HW288794   7.690   7.914   4.224 -2.5697  1.8135 -1.1817
27983SOL     OW88795   8.294   9.731   4.518  0.0655  0.0291 -0.3974
27983SOL    HW188796   8.348   9.655   4.539  0.0518 -0.0869 -0.7792
27983SOL    HW288797   8.205   9.695   4.510 -0.1610  0.2968  0.7306
27984SOL     OW88798   6.396   8.888   2.034 -0.0027  0.5132 -0.4329
27984SOL    HW188799   6.327   8.904   2.098  0.3987  0.6458 -0.0303
27984SOL    HW288800   6.406   8.971   1.988 -0.9991  0.1318 -1.3772
27985SOL     OW88801   8.219   9.298   5.475 -0.4512  0.3573 -0.6201
27985SOL    HW188802   8.272   9.358   5.424 -0.5098  1.0321  0.0945
27985SOL    HW288803   8.158   9.354   5.523 -0.3495 -0.2420  0.2404
27986SOL     OW88804   0.729   9.808   5.235 -0.2638  0.4412 -0.2286
27986SOL    HW188805   0.752   9.897   5.263  0.6009  0.0773  0.2735
27986SOL    HW288806   0.780   9.751   5.293 -1.3305 -0.3954 -0.0964
27987SOL     OW88807   8.789   0.059   5.509 -0.3879  0.1626  0.3963
27987SOL    HW188808   8.829   0.137   5.547  2.8638 -1.1801  0.0750
27987SOL    HW288809   8.768   0.084   5.419  1.9149  0.3670 -0.1409
27988SOL     OW88810   6.931   0.949   3.235 -0.4922 -0.9601  0.0079
27988SOL    HW188811   6.858   1.009   3.254  1.7695  2.0852 -0.0922
27988SOL    HW288812   6.916   0.922   3.144 -0.6496  1.0600 -0.6244
27989SOL     OW88813   8.516   8.938   7.065 -0.5099 -0.0385  0.7178
27989SOL    HW188814   8.470   8.948   7.148 -2.0957 -0.2609 -0.0947
27989SOL    HW288815   8.543   9.027   7.041 -0.0499  0.0277  1.4447
27990SOL     OW88816   7.082   1.761   3.048 -0.1297 -0.3668  0.3608
27990SOL    HW188817   7.016   1.797   2.989 -1.3287  0.8958  2.3608
27990SOL    HW288818   7.033   1.703   3.107  0.7734 -0.4960  1.0103
27991SOL     OW88819   7.254   9.495   3.919  0.3607  0.0944  0.3937
27991SOL    HW188820   7.284   9.507   3.828 -0.0902 -1.9985 -0.0978
27991SOL    HW288821   7.162   9.471   3.911  0.2563  0.0988  1.4374
27992SOL     OW88822   8.682   8.984   4.760  0.3499  0.0359 -0.3588
27992SOL    HW188823   8.708   9.070   4.792  0.9239 -0.4521  0.5504
27992SOL    HW288824   8.760   8.950   4.717  1.0609 -1.1268  1.7076
27993SOL     OW88825   8.262   8.111   3.820 -0.1034 -0.3381 -0.4134
27993SOL    HW188826   8.255   8.141   3.911 -1.2530  0.1191 -0.6339
27993SOL    HW288827   8.332   8.164   3.783 -0.4744  0.3732 -0.1251
27994SOL     OW88828   8.685   9.168   3.132  0.2566  0.2702  0.2136
27994SOL    HW188829   8.719   9.246   3.177  0.8501 -0.2428  0.6675
27994SOL    HW288830   8.594   9.189   3.113  0.5952  1.3610 -0.3027
27995SOL     OW88831   7.282   7.517   4.936 -0.4827 -0.3448  0.2948
27995SOL    HW188832   7.217   7.448   4.952 -2.4494  1.4120  0.3915
27995SOL    HW288833   7.241   7.573   4.869  1.9799 -0.4173 -1.3804
27996SOL     OW88834   8.408   8.591   4.274 -0.2128 -0.0436  0.5818
27996SOL    HW188835   8.445   8.525   4.216 -2.3607 -0.7428 -0.1077
27996SOL    HW288836   8.328   8.620   4.229 -0.2422  1.7793  1.6960
27997SOL     OW88837   0.379   0.231   4.611 -0.3633 -0.3075  0.0608
27997SOL    HW188838   0.304   0.199   4.560 -0.7655 -0.9024  0.9931
27997SOL    HW288839   0.429   0.152   4.633 -0.2406 -0.0752  0.6427
27998SOL     OW88840   8.703   9.147   6.537 -0.8135  1.0341  0.3031
27998SOL    HW188841   8.745   9.221   6.581 -0.6266  1.5111 -0.6486
27998SOL    HW288842   8.769   9.078   6.538 -0.8341  1.0224  0.8247
27999SOL     OW88843   7.399   0.582   3.117  0.1613  0.8310  0.1566
27999SOL    HW188844   7.487   0.621   3.116  0.1762  0.8652  1.5891
27999SOL    HW288845   7.413   0.492   3.148 -0.2735  0.7209  0.0387
28000SOL     OW88846   2.153   7.606   4.716  0.1906  0.4281 -0.1444
28000SOL    HW188847   2.105   7.679   4.757  1.6789 -0.4631  3.5518
28000SOL    HW288848   2.085   7.541   4.697 -0.7670  1.5359 -0.6266
28001SOL     OW88849   8.328   0.588   3.287  0.5026  0.2040  0.2360
28001SOL    HW188850   8.257   0.594   3.224 -0.6137  1.2851  1.5226
28001SOL    HW288851   8.350   0.495   3.290  1.0763  0.2016 -2.1920
28002SOL     OW88852   8.989   8.684   4.896 -0.6025 -0.5751 -0.5754
28002SOL    HW188853   8.953   8.636   4.821  0.0604  0.5979 -1.6742
28002SOL    HW288854   9.072   8.718   4.865 -0.4104  0.1204  0.6435
28003SOL     OW88855   8.245   0.224   5.261 -0.0135  0.7567 -0.0418
28003SOL    HW188856   8.261   0.194   5.172 -1.2977  1.4652 -0.5467
28003SOL    HW288857   8.267   0.318   5.259 -0.0673  0.7819  0.3819
28004SOL     OW88858   6.940   8.639   2.800 -0.2496  0.0566 -0.1482
28004SOL    HW188859   7.034   8.655   2.812  0.0011 -0.8844 -0.6909
28004SOL    HW288860   6.924   8.659   2.708 -0.5179 -0.0707 -0.1301
28005SOL     OW88861   0.968   6.537   6.267  0.4294 -0.1523 -0.6883
28005SOL    HW188862   0.935   6.472   6.205 -0.3043 -1.6520  1.1706
28005SOL    HW288863   1.001   6.485   6.341 -1.2162  1.5667  1.3879
28006SOL     OW88864   8.590   1.214   4.561 -0.3836  0.7326 -0.0496
28006SOL    HW188865   8.539   1.236   4.483 -0.8659 -0.6313 -0.1450
28006SOL    HW288866   8.534   1.155   4.611  0.8281 -0.2707  0.1799
28007SOL     OW88867   5.866   1.246   3.313  0.4200 -0.3299 -0.2529
28007SOL    HW188868   5.853   1.214   3.224 -0.2832 -2.4871  0.5620
28007SOL    HW288869   5.921   1.180   3.354 -1.1663 -0.6160  1.5557
28008SOL     OW88870   5.690   0.929   5.124  0.0271 -0.3576 -0.0735
28008SOL    HW188871   5.677   0.880   5.043  1.7204  1.1811 -1.3503
28008SOL    HW288872   5.758   0.880   5.171 -1.3058 -1.5270  0.7118
28009SOL     OW88873   5.704   0.414   4.646  0.0400 -0.0929  0.1822
28009SOL    HW188874   5.674   0.446   4.731  1.0073  0.5396  0.2920
28009SOL    HW288875   5.642   0.452   4.583 -0.6714 -0.5533  0.5860
28010SOL     OW88876   9.249   7.183   6.218  0.1039 -0.2587 -0.0694
28010SOL    HW188877   9.326   7.136   6.185  0.7297  0.0982  0.8545
28010SOL    HW288878   9.222   7.238   6.144 -0.4863 -1.8204 -1.0847
28011SOL     OW88879   9.537   8.414   5.428  0.0328  0.3443  0.1165
28011SOL    HW188880   9.498   8.441   5.511  1.2197  1.0727  0.4607
28011SOL    HW288881   9.587   8.490   5.399 -0.9146  0.3574 -1.6417
28012SOL     OW88882   8.448   1.802   5.538  0.1032  0.0432 -0.0690
28012SOL    HW188883   8.430   1.862   5.611 -0.3885  0.1142 -0.2437
28012SOL    HW288884   8.495   1.729   5.577  0.7066  0.5449  0.1492
28013SOL     OW88885   9.150   8.579   3.477  0.1273 -0.1735  0.3098
28013SOL    HW188886   9.060   8.586   3.507  0.5080 -0.9057  1.7289
28013SOL    HW288887   9.189   8.665   3.494 -0.9727  1.1301 -2.9405
28014SOL     OW88888   9.711   0.984   3.395  0.0086  0.0658 -0.3573
28014SOL    HW188889   9.739   1.063   3.441  0.1619  1.5516 -2.8076
28014SOL    HW288890   9.790   0.930   3.392  0.3019  0.4562  0.0812
28015SOL     OW88891   6.929   2.066   0.930  0.2574 -0.1389  0.3484
28015SOL    HW188892   6.868   2.042   1.000  0.8767 -1.1662  0.5580
28015SOL    HW288893   6.873   2.080   0.853 -0.3587  0.2831  0.8623
28016SOL     OW88894   8.601   7.927   6.763  0.3047  0.1044 -0.4957
28016SOL    HW188895   8.575   7.887   6.681 -1.6080 -0.0843  0.1600
28016SOL    HW288896   8.519   7.943   6.809  1.3374 -0.2444  1.5867
28017SOL     OW88897   5.917   7.462   6.095  0.1090 -0.1297 -0.3921
28017SOL    HW188898   5.924   7.506   6.180  1.5827 -1.2004  0.0768
28017SOL    HW288899   5.882   7.528   6.037  0.5277  1.1008  0.7084
28018SOL     OW88900   7.580   8.842   5.903  0.4152 -0.4710  0.1986
28018SOL    HW188901   7.629   8.905   5.956 -0.2902  0.3111 -0.0702
28018SOL    HW288902   7.521   8.800   5.965  0.4677 -0.4481  0.2651
28019SOL     OW88903   7.079   1.398   1.843 -0.2528 -0.1751  0.5792
28019SOL    HW188904   7.141   1.386   1.915 -0.2416  2.5592  1.1293
28019SOL    HW288905   7.087   1.318   1.791  1.9574 -0.9302  1.9284
28020SOL     OW88906   7.834   0.425   0.984  0.3431 -0.2806  0.5070
28020SOL    HW188907   7.926   0.451   0.972 -0.0072  0.2611 -1.3748
28020SOL    HW288908   7.839   0.338   1.024  1.6389  0.2753  1.6534
28021SOL     OW88909   7.407   8.293   2.017  0.0047  0.2076 -0.1198
28021SOL    HW188910   7.483   8.323   1.967  0.4090  0.4535  0.6207
28021SOL    HW288911   7.410   8.344   2.098 -1.9418  1.4823 -0.7883
28022SOL     OW88912   7.050   0.637   7.361 -0.1676 -0.8370  0.0178
28022SOL    HW188913   6.980   0.623   7.424 -0.9484  0.7533 -0.4336
28022SOL    HW288914   7.006   0.648   7.277  0.7909 -1.9525 -0.6610
28023SOL     OW88915   7.375   8.770   5.059 -0.7761  0.0441  0.6455
28023SOL    HW188916   7.336   8.846   5.103 -2.1312 -0.9551  1.2549
28023SOL    HW288917   7.434   8.808   4.995 -2.3915  1.6740  0.0153
28024SOL     OW88918   0.349   0.018   5.857 -0.0401 -0.0334  0.3169
28024SOL    HW188919   0.347   0.112   5.839 -0.3336  0.1937  1.4526
28024SOL    HW288920   0.295  -0.021   5.789  0.6742  0.5360 -0.5969
28025SOL     OW88921   8.004   0.302   6.559  0.1172 -0.4197 -0.6103
28025SOL    HW188922   8.012   0.248   6.638  2.0199 -2.0193 -1.7876
28025SOL    HW288923   7.974   0.387   6.591 -0.9431 -1.5329  1.5937
28026SOL     OW88924   9.161   9.145   7.026  0.0488 -0.0511  0.0060
28026SOL    HW188925   9.240   9.095   7.005  0.4078 -0.7151  2.4908
28026SOL    HW288926   9.192   9.232   7.049 -0.1061  0.0881 -0.3039
28027SOL     OW88927   8.486   0.168   6.364 -0.4320 -0.3352 -0.3082
28027SOL    HW188928   8.537   0.168   6.283  0.9080 -1.2718  0.4890
28027SOL    HW288929   8.548   0.136   6.431 -1.6866 -0.2043  0.9533
28028SOL     OW88930   9.224   1.206   4.421 -0.3636 -0.4461  0.2141
28028SOL    HW188931   9.250   1.122   4.382 -0.0684 -0.1805 -0.1550
28028SOL    HW288932   9.132   1.217   4.396  0.3074  0.5984 -1.9691
28029SOL     OW88933   6.180   7.757   5.434 -0.0273  0.3003  0.3494
28029SOL    HW188934   6.152   7.751   5.526  1.4138  0.5269  0.8384
28029SOL    HW288935   6.251   7.821   5.436  0.1762  0.1232 -0.8922
28030SOL     OW88936   5.540   0.951   7.497 -0.0443 -0.2951  0.0744
28030SOL    HW188937   5.460   0.949   7.550 -1.0585  1.0991 -1.3148
28030SOL    HW288938   5.533   0.873   7.441 -1.5199  0.8642 -1.4619
28031SOL     OW88939   9.042   7.897   7.226 -1.0733  0.1424  0.1443
28031SOL    HW188940   8.987   7.855   7.160  0.5674 -0.5358 -0.8608
28031SOL    HW288941   9.119   7.928   7.177 -0.7753  1.5113  1.4009
28032SOL     OW88942   6.202   7.212   6.310 -0.6975  0.1750 -0.1968
28032SOL    HW188943   6.294   7.225   6.287 -0.2597 -3.2201 -0.7536
28032SOL    HW288944   6.201   7.219   6.406 -0.1023  1.3082 -0.2532
28033SOL     OW88945   0.136   8.977   7.158  0.0139 -0.2134 -0.0483
28033SOL    HW188946   0.076   8.966   7.231 -0.1534  2.3238  0.2828
28033SOL    HW288947   0.217   9.011   7.197  0.0630  0.7938 -0.9512
28034SOL     OW88948   8.190   0.521   6.654 -0.0446  0.6734 -0.0772
28034SOL    HW188949   8.140   0.552   6.729 -0.4220  1.3069 -0.5878
28034SOL    HW288950   8.184   0.425   6.660  0.8411  0.6772  1.3061
28035SOL     OW88951   8.740   0.971   4.191 -0.4563  0.3327 -0.2209
28035SOL    HW188952   8.740   1.063   4.218 -0.1635  0.0840  0.6856
28035SOL    HW288953   8.791   0.969   4.110 -0.0881  0.9034 -0.0031
28036SOL     OW88954   8.640   8.671   4.518  0.3176 -0.3076  0.2662
28036SOL    HW188955   8.562   8.687   4.572 -0.5158  0.0387 -0.9947
28036SOL    HW288956   8.704   8.634   4.579  0.5586  2.9641  2.2485
28037SOL     OW88957   9.757   7.409   6.257 -0.0638 -0.8613  0.3834
28037SOL    HW188958   9.726   7.467   6.188  0.1828  0.2313  1.1685
28037SOL    HW288959   9.690   7.341   6.263 -0.1933 -0.8662 -0.7696
28038SOL     OW88960   6.906   7.291   6.615 -0.1711  0.3273 -0.6578
28038SOL    HW188961   6.974   7.358   6.611 -1.2185  1.8562  3.2810
28038SOL    HW288962   6.953   7.211   6.640  0.4319  0.9754  0.3420
28039SOL     OW88963   7.423   1.822   6.000 -0.0275  0.1379 -0.0037
28039SOL    HW188964   7.476   1.815   5.921  0.5738 -2.9588  0.5618
28039SOL    HW288965   7.485   1.812   6.072 -1.1190 -2.4959  0.6948
28040SOL     OW88966   7.805   9.588   7.881  0.3260  0.0946 -0.3095
28040SOL    HW188967   7.758   9.510   7.910 -1.1806  1.0117 -0.1919
28040SOL    HW288968   7.787   9.654   7.948  1.9250  0.4473 -0.1807
28041SOL     OW88969   8.489   0.414   4.595 -0.5965  0.1321  0.0867
28041SOL    HW188970   8.404   0.372   4.604 -0.9134  0.2833 -1.7788
28041SOL    HW288971   8.469   0.500   4.558  0.3665  0.1353 -0.4491
28042SOL     OW88972   9.763   9.014   5.185 -0.2717  0.2572 -0.1781
28042SOL    HW188973   9.735   9.094   5.140  1.5205  0.3735 -1.2025
28042SOL    HW288974   9.751   9.033   5.278  0.4534  1.8922 -0.3773
28043SOL     OW88975   9.102   8.642   5.377 -0.5583  0.0773 -0.2112
28043SOL    HW188976   9.112   8.561   5.428  0.0690  0.4594  0.2924
28043SOL    HW288977   9.119   8.711   5.440  0.1937  0.5651 -0.9417
28044SOL     OW88978   8.799   8.502   5.331 -0.0309 -0.0430  1.0628
28044SOL    HW188979   8.815   8.563   5.259  0.2161 -1.6377 -0.2959
28044SOL    HW288980   8.713   8.527   5.365  0.4047  1.5510  1.1092
28045SOL     OW88981   7.920   9.818   5.534  0.1576  0.1601 -0.0792
28045SOL    HW188982   7.985   9.759   5.571 -1.7073 -0.7020  2.0899
28045SOL    HW288983   7.962   9.905   5.536  1.6517 -0.5353  0.0811
28046SOL     OW88984   8.165   8.847   7.242  0.4791  0.1285 -0.9282
28046SOL    HW188985   8.242   8.901   7.262  0.7960 -0.3834 -0.7448
28046SOL    HW288986   8.097   8.880   7.301  0.5063  0.6976 -1.2096
28047SOL     OW88987   8.217   0.079   6.198 -0.2048 -0.3233 -0.3606
28047SOL    HW188988   8.222   0.090   6.293  0.0858 -3.0978  0.0190
28047SOL    HW288989   8.271   0.150   6.163 -0.3251  0.7702  1.5244
28048SOL     OW88990   7.573   1.108   6.647 -0.1006 -0.0667  0.2696
28048SOL    HW188991   7.492   1.090   6.600 -0.4856 -0.6711  1.1159
28048SOL    HW288992   7.545   1.130   6.736  0.5748  1.4712  0.1384
28049SOL     OW88993   8.777   9.236   8.530 -0.0851  0.8120 -0.6303
28049SOL    HW188994   8.686   9.239   8.500  0.3163 -0.8224 -2.1456
28049SOL    HW288995   8.800   9.143   8.529  1.4107  1.1334  0.3961
28050SOL     OW88996   7.997   9.048   5.104  0.1154 -0.3404 -0.1148
28050SOL    HW188997   7.963   9.040   5.015  0.3426  0.0363 -0.2383
28050SOL    HW288998   8.063   8.980   5.111  0.5159  0.0085 -0.4370
28051SOL     OW88999   6.037   9.458   7.790  0.3319  0.3908 -0.1726
28051SOL    HW189000   6.097   9.418   7.853 -0.4368  0.9817  0.9889
28051SOL    HW289001   5.978   9.388   7.764  0.8431  0.0692 -0.4709
28052SOL     OW89002   8.146   0.765   8.525  0.3715 -0.3865 -0.1836
28052SOL    HW189003   8.109   0.677   8.535 -1.4152  0.3350  0.0091
28052SOL    HW289004   8.071   0.823   8.538  1.6752  1.2003  0.5073
28053SOL     OW89005   8.890   9.458   5.836  0.1828 -0.2906  0.4577
28053SOL    HW189006   8.926   9.376   5.805  2.3853  1.0230 -0.6877
28053SOL    HW289007   8.962   9.500   5.883 -1.0615  0.7453  1.5335
28054SOL     OW89008   9.822   8.343   6.853  0.2009  0.1505 -0.2063
28054SOL    HW189009   9.783   8.426   6.878  3.2498  1.4966  0.5531
28054SOL    HW289010   9.860   8.309   6.934  2.8355  0.3152 -1.2652
28055SOL     OW89011   9.273   0.260   6.815 -0.2266  0.3976 -0.2084
28055SOL    HW189012   9.242   0.314   6.742  1.5057 -0.3789 -1.5939
28055SOL    HW289013   9.359   0.229   6.787 -0.2925 -1.4286  1.4214
28056SOL     OW89014   6.835   9.788   6.192  0.1610  0.1078 -0.1891
28056SOL    HW189015   6.822   9.726   6.120  0.4292 -0.0805 -0.0761
28056SOL    HW289016   6.908   9.752   6.242 -0.3078  0.0057  0.4340
28057SOL     OW89017   0.659   9.210   8.041 -0.2613  0.0770 -0.7836
28057SOL    HW189018   0.601   9.175   8.109  1.0256  0.4373  0.5504
28057SOL    HW289019   0.714   9.136   8.015  0.6782  0.4266  0.1347
28058SOL     OW89020   6.793   0.803   6.277  0.1621 -0.4465  0.3681
28058SOL    HW189021   6.821   0.875   6.221  1.4748  0.2424  1.8345
28058SOL    HW289022   6.809   0.725   6.225  0.2109  0.2263 -0.6634
28059SOL     OW89023   8.169   0.313   7.397  0.3591 -0.5947 -0.2662
28059SOL    HW189024   8.121   0.312   7.314 -0.6154 -0.8094  0.2847
28059SOL    HW289025   8.160   0.224   7.431 -4.6267  0.7894  3.0262
28060SOL     OW89026   7.611   7.899   7.916  0.1314  0.0777 -0.1731
28060SOL    HW189027   7.584   7.964   7.981  1.6382 -0.1520  0.7292
28060SOL    HW289028   7.529   7.855   7.891 -0.2748 -1.6113  3.5029
28061SOL     OW89029   7.814   0.415   5.293 -0.3378  0.1798  0.2112
28061SOL    HW189030   7.863   0.352   5.347  0.7184  1.1188  0.3749
28061SOL    HW289031   7.735   0.433   5.344  0.0508  0.0925  0.8606
28062SOL     OW89032   7.537   9.793   6.618 -0.3813 -0.7794  0.3240
28062SOL    HW189033   7.489   9.802   6.701  0.9097 -0.0561  1.0244
28062SOL    HW289034   7.612   9.852   6.628 -0.0682 -0.8767 -1.2725
28063SOL     OW89035   8.021   8.029   5.331  0.4788 -0.2921 -0.2045
28063SOL    HW189036   8.037   8.091   5.260  1.2381 -0.7061 -0.4051
28063SOL    HW289037   7.942   7.983   5.304 -0.8223  1.4017  0.5293
28064SOL     OW89038   8.426   1.796   3.675  0.3669  0.3017  0.1302
28064SOL    HW189039   8.410   1.890   3.672  1.3903  0.4750 -0.4769
28064SOL    HW289040   8.406   1.765   3.586  0.5281  0.0440  0.1815
28065SOL     OW89041   1.167   8.876   6.880  0.0656 -0.1732 -0.7131
28065SOL    HW189042   1.173   8.782   6.896 -0.0849 -0.0073  0.3919
28065SOL    HW289043   1.132   8.912   6.961  1.2402  0.9743 -0.6750
28066SOL     OW89044   7.821   7.496   5.177 -0.4030 -0.1326 -0.5746
28066SOL    HW189045   7.729   7.485   5.202 -0.3620  0.4260 -0.1671
28066SOL    HW289046   7.863   7.531   5.255  0.4887 -1.8587 -0.2495
28067SOL     OW89047   6.645   9.061   7.518 -0.3959 -0.6424 -0.6997
28067SOL    HW189048   6.635   9.086   7.426  0.7414  0.4895 -0.5501
28067SOL    HW289049   6.716   9.116   7.550  1.8543 -3.6031 -0.1405
28068SOL     OW89050   7.562   9.324   6.399 -0.4000 -0.0160  0.0718
28068SOL    HW189051   7.523   9.241   6.372 -3.3187  1.2117  0.1130
28068SOL    HW289052   7.586   9.366   6.316 -0.7743 -0.0740 -0.0695
28069SOL     OW89053   7.606   0.179   7.561  0.3747  0.2676 -0.1540
28069SOL    HW189054   7.659   0.243   7.514 -1.1501  0.3140 -1.9227
28069SOL    HW289055   7.662   0.151   7.634  2.2691  1.3061 -1.1192
28070SOL     OW89056   0.164   9.316   8.380 -0.0922 -0.3249  0.4813
28070SOL    HW189057   0.233   9.381   8.372  1.4706 -2.0981 -1.8610
28070SOL    HW289058   0.193   9.258   8.450  0.8203 -1.0421 -0.4711
28071SOL     OW89059   8.633   0.145   6.135  0.3955  0.3511  0.1757
28071SOL    HW189060   8.642   0.065   6.082 -1.3450  0.1848  0.0692
28071SOL    HW289061   8.701   0.204   6.102  0.0986 -0.1761 -1.4585
28072SOL     OW89062   7.365   0.104   8.278  0.2867 -0.0874  0.3244
28072SOL    HW189063   7.309   0.173   8.243 -0.8642 -1.2835 -0.3193
28072SOL    HW289064   7.438   0.150   8.319 -0.8283  1.5195  0.6121
28073SOL     OW89065   7.535   1.011   4.971 -0.0314 -0.4692 -0.2576
28073SOL    HW189066   7.629   1.005   4.990  0.2994  0.2928 -1.5234
28073SOL    HW289067   7.500   0.926   4.996  0.8786 -0.5286  0.8633
28074SOL     OW89068   6.992   0.070   5.608 -0.4877 -0.0307  0.3496
28074SOL    HW189069   6.908   0.085   5.564 -1.0328  1.0067  1.6900
28074SOL    HW289070   7.057   0.071   5.537 -1.4269  0.7781 -0.5234
28075SOL     OW89071   5.950   1.088   4.471  0.0517  0.0210 -0.0247
28075SOL    HW189072   5.965   1.178   4.501 -1.9363  0.3341  0.2105
28075SOL    HW289073   5.936   1.038   4.552  0.1705 -0.2962 -0.1989
28076SOL     OW89074   9.433   1.440   3.106 -0.1856 -0.3280 -0.0992
28076SOL    HW189075   9.447   1.352   3.142  0.9694 -0.3806 -0.6455
28076SOL    HW289076   9.519   1.482   3.112 -0.3700  0.2403 -1.2346
28077SOL     OW89077   2.064   1.211   7.799  0.6468 -0.5545  0.3249
28077SOL    HW189078   2.143   1.188   7.750  0.0869 -0.0657 -0.8429
28077SOL    HW289079   1.997   1.152   7.766  0.1378  0.1229  0.1201
28078SOL     OW89080   7.793   9.001   6.792 -0.3249 -0.1757 -0.4464
28078SOL    HW189081   7.744   9.082   6.801  1.6374  1.0039  0.3262
28078SOL    HW289082   7.816   8.997   6.699  1.3687  1.3347 -0.1455
28079SOL     OW89083   7.972   1.794   8.333  0.8481 -0.0230  0.1701
28079SOL    HW189084   8.055   1.783   8.379  0.2426 -0.8619  1.0954
28079SOL    HW289085   7.988   1.760   8.245  0.6934 -3.1454  1.2107
28080SOL     OW89086   1.606   6.577   5.995  0.5075 -0.2810 -0.1760
28080SOL    HW189087   1.585   6.669   6.012  0.6593 -0.3349  0.3239
28080SOL    HW289088   1.601   6.535   6.081 -0.4119 -0.9132 -0.5241
28081SOL     OW89089   7.080   8.881   6.414 -0.0776  0.1153 -0.2666
28081SOL    HW189090   7.114   8.970   6.418  0.8409 -0.1810 -1.1460
28081SOL    HW289091   6.993   8.887   6.453 -0.7787  1.7662 -1.9444
28082SOL     OW89092   7.680   0.692   6.436 -0.7086 -0.0516  0.4376
28082SOL    HW189093   7.673   0.628   6.507 -0.5840  0.2198  0.6935
28082SOL    HW289094   7.706   0.773   6.479  1.7285 -0.4281 -0.1633
28083SOL     OW89095   4.871   1.810   7.354 -0.7639 -0.9195  0.3517
28083SOL    HW189096   4.940   1.868   7.386  0.0551 -1.7131  0.0729
28083SOL    HW289097   4.790   1.861   7.363  0.0933  0.8371 -1.3128
28084SOL     OW89098   8.396   9.060   5.627 -0.1480 -0.1685  0.1398
28084SOL    HW189099   8.312   9.082   5.587 -0.8344  0.0825  1.6328
28084SOL    HW289100   8.416   8.972   5.595 -0.0099  0.4925 -1.7225
28085SOL     OW89101   7.318   1.054   7.281  0.8973 -0.1367  0.0029
28085SOL    HW189102   7.243   1.005   7.250  0.1343  0.8581  0.2171
28085SOL    HW289103   7.299   1.145   7.258  0.7219  0.5423  2.4721
28086SOL     OW89104   9.272   9.513   4.552 -0.0730  0.1145 -0.7966
28086SOL    HW189105   9.207   9.451   4.584  0.6528 -1.5609 -2.4226
28086SOL    HW289106   9.238   9.541   4.467  1.4308 -1.0203 -1.8178
28087SOL     OW89107   9.009   9.357   7.806 -0.5172  0.2990 -0.7434
28087SOL    HW189108   9.058   9.335   7.726 -1.2062  0.6453 -1.2729
28087SOL    HW289109   9.076   9.377   7.870  0.0488  0.6308 -1.4228
28088SOL     OW89110   9.153   0.684   7.327 -0.2282 -0.1968 -0.0765
28088SOL    HW189111   9.078   0.712   7.275 -0.7176  0.6280  1.0287
28088SOL    HW289112   9.165   0.753   7.392  1.3859 -0.3962 -0.1074
28089SOL     OW89113   9.541   0.259   6.405  0.4649 -0.3874  0.4145
28089SOL    HW189114   9.582   0.180   6.371  1.8775  0.7329 -0.5673
28089SOL    HW289115   9.518   0.310   6.327  0.3967  0.5847  1.0584
28090SOL     OW89116   9.663   8.648   5.365 -0.2722  0.1278 -0.1095
28090SOL    HW189117   9.758   8.657   5.380 -0.2312 -1.0095  0.3951
28090SOL    HW289118   9.624   8.719   5.417  0.2819  0.4136 -0.0741
28091SOL     OW89119   9.640   9.832   9.022 -0.0772  0.0629  0.0097
28091SOL    HW189120   9.648   9.807   8.930  0.8939  0.4370 -0.0152
28091SOL    HW289121   9.711   9.894   9.036  0.2555 -0.5720  1.2170
28092SOL     OW89122   1.274   7.826   5.867  1.0362 -0.3760 -0.7664
28092SOL    HW189123   1.194   7.877   5.857 -1.2863 -3.7071 -0.8988
28092SOL    HW289124   1.328   7.876   5.928 -1.7684  1.3367  0.4832
28093SOL     OW89125   8.383   7.740   5.830  0.0527 -0.3749 -0.4287
28093SOL    HW189126   8.363   7.766   5.740  2.8363  0.2603 -0.9527
28093SOL    HW289127   8.403   7.823   5.874 -2.0611 -0.5763  1.0879
28094SOL     OW89128   0.503   6.969   6.120  0.0863  0.0820  0.1960
28094SOL    HW189129   0.452   6.932   6.192 -0.8900  0.6787 -0.1614
28094SOL    HW289130   0.563   7.029   6.162 -0.8334  0.8219  0.4912
28095SOL     OW89131   7.813   8.517   7.639  0.2112  0.1488  0.0030
28095SOL    HW189132   7.866   8.561   7.705 -0.0409  0.7812 -0.2176
28095SOL    HW289133   7.875   8.458   7.595  0.2601 -0.7161  1.1807
28096SOL     OW89134   8.053   0.989   7.991  0.2486 -0.3982  0.0334
28096SOL    HW189135   8.128   0.936   7.963 -0.2767 -0.3723 -1.4926
28096SOL    HW289136   7.999   0.928   8.043  2.0388 -0.0141  2.5632
28097SOL     OW89137   8.935   1.016   7.093 -0.1082 -0.2930  0.6153
28097SOL    HW189138   8.999   1.082   7.117 -0.5905  0.5313 -0.2808
28097SOL    HW289139   8.851   1.054   7.117 -0.3685 -0.7509  0.4456
28098SOL     OW89140   7.132   9.089   9.707  0.2163  0.1918  0.7567
28098SOL    HW189141   7.217   9.060   9.673  0.5819  1.8838  0.1010
28098SOL    HW289142   7.151   9.173   9.749 -1.1495  0.6336  0.5386
28099SOL     OW89143   9.276   8.108   5.546  0.1999 -0.1582  0.1148
28099SOL    HW189144   9.226   8.074   5.621 -2.4289 -2.9777 -2.6521
28099SOL    HW289145   9.368   8.095   5.572 -0.5855 -1.6011  2.6146
28100SOL     OW89146   8.753   8.966   8.622 -0.3255  0.5798 -0.6235
28100SOL    HW189147   8.700   8.938   8.546 -1.3777  1.1146 -0.1097
28100SOL    HW289148   8.691   9.013   8.678  0.5893  0.7540  0.2653
28101SOL     OW89149   6.563   9.012   4.536  0.3162 -0.3935  0.0810
28101SOL    HW189150   6.521   8.937   4.579 -0.2922 -1.0249 -1.5397
28101SOL    HW289151   6.656   9.003   4.556 -0.0856  0.4800  2.9251
28102SOL     OW89152   7.781   7.741   8.555  0.3576 -0.5224 -0.2486
28102SOL    HW189153   7.792   7.714   8.646  2.1808  0.0692 -0.2416
28102SOL    HW289154   7.860   7.792   8.536 -0.9171  1.0903 -1.5527
28103SOL     OW89155   8.552   2.680   7.299  0.2735  0.0406  0.3924
28103SOL    HW189156   8.621   2.679   7.233  0.3354 -0.1167  0.4585
28103SOL    HW289157   8.589   2.631   7.373 -0.3981 -1.2084 -0.0695
28104SOL     OW89158   7.768   0.572   8.548  0.1523  0.3873 -0.4942
28104SOL    HW189159   7.861   0.581   8.569  0.4834 -1.2420 -1.0922
28104SOL    HW289160   7.757   0.479   8.530 -1.6148  0.5572 -0.4200
28105SOL     OW89161   9.134   9.749   0.925 -0.2015  0.1031  0.6182
28105SOL    HW189162   9.195   9.822   0.919 -1.5543  1.2520  0.2791
28105SOL    HW289163   9.085   9.752   0.843 -1.0608 -0.4605  1.0929
28106SOL     OW89164   7.576   0.967   7.207  0.0552  0.2504  0.4711
28106SOL    HW189165   7.639   1.038   7.193 -0.8585  0.7136 -1.7101
28106SOL    HW289166   7.491   1.010   7.204 -0.4653 -0.7583  0.4298
28107SOL     OW89167   8.237   8.516   8.297  0.2821 -0.2511  0.0963
28107SOL    HW189168   8.238   8.509   8.392  1.0060  1.2762  0.2200
28107SOL    HW289169   8.198   8.602   8.279 -0.9524 -0.9928 -1.0433
28108SOL     OW89170   7.814   8.664   8.368 -0.4220  0.2340  0.3494
28108SOL    HW189171   7.881   8.655   8.436 -0.2603  1.6376  0.4074
28108SOL    HW289172   7.773   8.749   8.387  1.3224  1.9276 -2.7845
28109SOL     OW89173   7.669   8.285   0.099  0.0823 -0.4792 -0.7597
28109SOL    HW189174   7.722   8.206   0.102  1.2466  0.2793 -0.4782
28109SOL    HW289175   7.614   8.281   0.178  2.3800  0.4525  1.0028
28110SOL     OW89176   6.012   7.698   8.944 -0.0561  0.3739 -0.0480
28110SOL    HW189177   5.947   7.659   8.885 -0.1624 -0.2438  0.4689
28110SOL    HW289178   5.980   7.677   9.031  0.6052  0.4652  0.2166
28111SOL     OW89179   7.661   7.170   7.658 -0.1441 -0.4228 -0.2792
28111SOL    HW189180   7.755   7.151   7.658 -0.0764 -0.1196 -0.8291
28111SOL    HW289181   7.624   7.106   7.598  0.2691  1.8761 -3.2679
28112SOL     OW89182   5.773   1.522   9.364  0.5472  0.4361 -0.2701
28112SOL    HW189183   5.775   1.428   9.380  0.4676  0.4985  0.1366
28112SOL    HW289184   5.824   1.535   9.285 -0.9447 -0.1509 -1.3702
28113SOL     OW89185   0.138   9.266   6.692  0.2495  0.6458 -0.2849
28113SOL    HW189186   0.123   9.360   6.700 -0.0325  0.6213 -0.5087
28113SOL    HW289187   0.143   9.251   6.597 -0.3254  0.3383 -0.2658
28114SOL     OW89188   0.153   8.080   1.133  0.4692 -0.3588  0.1633
28114SOL    HW189189   0.162   8.040   1.220 -1.4696 -2.3104 -0.4279
28114SOL    HW289190   0.149   8.005   1.073  1.0996  0.9264 -1.5367
28115SOL     OW89191   7.570   0.976   8.802 -0.2629  0.4573  0.9135
28115SOL    HW189192   7.661   0.976   8.772 -0.2140  0.6700  1.0653
28115SOL    HW289193   7.520   0.945   8.726  0.1076 -1.3001  1.3215
28116SOL     OW89194   9.679   9.577   9.552  0.7094  0.0272 -0.0264
28116SOL    HW189195   9.757   9.563   9.606 -0.8619  1.2327  2.7830
28116SOL    HW289196   9.678   9.672   9.536 -0.0302 -0.0237 -0.3249
28117SOL     OW89197   2.442   8.507   8.904 -0.5384  0.4342  0.0087
28117SOL    HW189198   2.510   8.567   8.935 -0.1463  0.1984 -0.3898
28117SOL    HW289199   2.455   8.428   8.956 -0.8042  0.5515  0.2561
28118SOL     OW89200   8.735   1.924   7.614 -0.0671 -0.0698 -0.2940
28118SOL    HW189201   8.783   2.005   7.629  0.7635 -0.2399 -1.7810
28118SOL    HW289202   8.800   1.863   7.580 -1.0721 -0.7260 -1.1240
28119SOL     OW89203   8.022   7.049   8.083 -0.0093  0.1477  0.6948
28119SOL    HW189204   7.949   7.087   8.034  1.8013  2.2198 -0.5401
28119SOL    HW289205   8.025   6.957   8.055 -0.3453  0.7619 -1.4928
28120SOL     OW89206   6.357   1.484   6.618 -0.5501  0.9038 -0.1192
28120SOL    HW189207   6.341   1.485   6.524 -0.4799 -1.1025 -0.1923
28120SOL    HW289208   6.274   1.459   6.656 -0.4761  1.3408  0.3404
28121SOL     OW89209   7.739   9.119   7.301  0.1714  0.0210  0.0181
28121SOL    HW189210   7.688   9.159   7.230  0.2315 -2.6136 -1.6564
28121SOL    HW289211   7.792   9.190   7.335 -0.5295  1.6125 -1.9722
28122SOL     OW89212   7.553   8.111   1.050  0.5797 -0.2195  0.6164
28122SOL    HW189213   7.471   8.071   1.078  0.9590  0.2688  2.5482
28122SOL    HW289214   7.579   8.167   1.123  1.0365  2.1315 -1.2142
28123SOL     OW89215   8.998   9.236   9.029 -0.0646  0.6685 -0.3257
28123SOL    HW189216   8.944   9.196   9.097  0.9175 -1.6268 -0.7918
28123SOL    HW289217   9.046   9.162   8.990  3.0243  2.4783 -0.2758
28124SOL     OW89218   5.833   1.226   7.831 -0.8762  0.0176  0.1125
28124SOL    HW189219   5.816   1.159   7.764 -1.0944  0.4101 -0.2332
28124SOL    HW289220   5.922   1.209   7.861 -0.8488 -0.2864 -0.1397
28125SOL     OW89221   6.305   1.389   0.676 -0.2643  0.0046 -0.3681
28125SOL    HW189222   6.238   1.457   0.671 -0.7755 -0.4803 -0.1743
28125SOL    HW289223   6.317   1.374   0.770 -3.6732 -3.5473 -0.2454
28126SOL     OW89224   0.261   9.304   9.116 -0.4669  0.0525  0.3114
28126SOL    HW189225   0.248   9.360   9.193  1.1710  0.8945  0.0351
28126SOL    HW289226   0.173   9.277   9.091 -1.2130  1.4619  1.2455
28127SOL     OW89227   9.552   9.025   8.866 -0.0074 -0.3934 -0.0738
28127SOL    HW189228   9.553   9.042   8.772  1.6991  1.5333  0.2107
28127SOL    HW289229   9.642   8.998   8.887 -0.3203 -0.6662  1.0156
28128SOL     OW89230   7.985   8.764   0.085  0.0101 -0.0430 -0.2614
28128SOL    HW189231   8.025   8.786   0.002  0.1972 -1.1480 -0.4874
28128SOL    HW289232   7.896   8.800   0.080 -0.1353 -0.4937 -1.1367
28129SOL     OW89233   8.367   0.803   8.722 -0.0336  1.1255  0.4257
28129SOL    HW189234   8.296   0.810   8.659 -1.6429  1.3666  2.1595
28129SOL    HW289235   8.336   0.852   8.798  2.9002  3.0674  0.5225
28130SOL     OW89236   7.448   9.418   8.480 -0.6063 -0.5389  0.3869
28130SOL    HW189237   7.367   9.402   8.433 -0.1545  0.8757 -0.9460
28130SOL    HW289238   7.455   9.513   8.485  0.7326 -0.6370  0.8807
28131SOL     OW89239   0.505   9.206   9.216  0.5195  0.3496  0.3668
28131SOL    HW189240   0.469   9.281   9.169 -0.9104  0.5721  1.7534
28131SOL    HW289241   0.532   9.145   9.147  1.7357  2.1075 -0.7877
28132SOL     OW89242   8.297   7.364   1.903 -0.5693  0.1900  0.2404
28132SOL    HW189243   8.337   7.422   1.838 -1.6867  0.5595 -0.1592
28132SOL    HW289244   8.279   7.421   1.978  1.1224 -0.3318  1.0827
28133SOL     OW89245   7.657   7.741   8.231  0.5476  0.4875 -0.7129
28133SOL    HW189246   7.707   7.820   8.211  0.4427  0.6721 -0.2433
28133SOL    HW289247   7.695   7.709   8.313  0.5885  0.0481 -0.8956
28134SOL     OW89248   8.477   9.803   7.408 -0.2186  0.2589  0.1781
28134SOL    HW189249   8.553   9.843   7.449 -1.4510  2.0312  0.8360
28134SOL    HW289250   8.419   9.876   7.387 -1.3492 -0.9503 -1.1732
28135SOL     OW89251   7.891   0.243   8.969 -0.4300  0.3146  0.3697
28135SOL    HW189252   7.974   0.205   8.997 -1.5302 -3.0035 -0.4265
28135SOL    HW289253   7.826   0.200   9.024 -1.6875  2.6236  0.7744
28136SOL     OW89254   0.330   9.150   8.082  0.5557 -0.0342 -0.3708
28136SOL    HW189255   0.325   9.113   8.170  1.4870  1.5396  0.3972
28136SOL    HW289256   0.257   9.110   8.035 -1.3023  0.6015  1.7438
28137SOL     OW89257   7.753   9.193   8.930  0.2552 -0.6242  0.5727
28137SOL    HW189258   7.779   9.106   8.960 -1.7072 -1.3737  0.2385
28137SOL    HW289259   7.754   9.247   9.009  0.1351 -1.2954  1.0370
28138SOL     OW89260   8.545   9.094   8.740  0.3067 -0.2447 -0.3277
28138SOL    HW189261   8.551   9.171   8.797  4.3442 -0.2733 -0.4622
28138SOL    HW289262   8.557   9.128   8.652  1.2341 -0.9050 -0.4663
28139SOL     OW89263   8.580   0.995   8.411  0.0666  0.4647 -0.1819
28139SOL    HW189264   8.630   0.917   8.437  0.4856  0.7800 -0.0298
28139SOL    HW289265   8.498   0.960   8.375  0.7739 -0.1043 -1.3061
28140SOL     OW89266   8.785   9.709   6.131  0.0570 -0.6011  0.0990
28140SOL    HW189267   8.880   9.722   6.122 -0.0847  0.4779  0.0351
28140SOL    HW289268   8.770   9.706   6.225  0.1535 -0.6827  0.1110
28141SOL     OW89269   6.608   4.363   6.988  0.3276  0.6808 -0.1726
28141SOL    HW189270   6.694   4.358   7.030 -0.9129 -0.3799  2.4904
28141SOL    HW289271   6.583   4.272   6.974 -0.3792  0.9765 -0.9259
28142SOL     OW89272   8.774   0.227   6.924  0.6324 -0.6800  0.4747
28142SOL    HW189273   8.767   0.308   6.872  2.0213 -0.9721 -0.2010
28142SOL    HW289274   8.867   0.205   6.921  0.3218 -2.1103  0.9648
28143SOL     OW89275   8.668   8.653   6.086 -0.1469  0.3402 -0.2438
28143SOL    HW189276   8.617   8.734   6.088 -1.6148 -0.5538  0.1879
28143SOL    HW289277   8.754   8.679   6.052 -0.3576  2.1825  0.5305
28144SOL     OW89278   9.503   7.564   0.545  0.1644  0.3094  0.0856
28144SOL    HW189279   9.421   7.579   0.593 -0.6701 -0.1935 -1.1477
28144SOL    HW289280   9.475   7.533   0.459  1.6754 -1.1803  0.0886
28145SOL     OW89281   7.591   9.199   8.165  0.0723 -0.0215  0.1798
28145SOL    HW189282   7.621   9.198   8.256 -0.1531  0.5422  0.2682
28145SOL    HW289283   7.525   9.269   8.163 -0.4809 -0.5523 -0.2437
28146SOL     OW89284   8.725   8.667   9.780  0.1358  0.5034 -0.4879
28146SOL    HW189285   8.785   8.608   9.735 -0.4510 -0.5105  0.0021
28146SOL    HW289286   8.661   8.692   9.714 -1.1051 -1.4973 -0.1573
28147SOL     OW89287   6.016   5.603   1.551  0.1667 -0.0429 -0.0242
28147SOL    HW189288   6.044   5.559   1.471 -0.0710 -1.3640  0.5870
28147SOL    HW289289   5.932   5.563   1.572  0.4603 -0.0856  1.1557
28148SOL     OW89290   6.999   8.234   9.249 -0.0151  0.1615 -0.1160
28148SOL    HW189291   7.006   8.305   9.313  0.9859  0.5789 -0.6671
28148SOL    HW289292   6.938   8.172   9.288 -0.2223  0.9110  0.7710
28149SOL     OW89293   0.525   9.397   0.450 -0.2774  0.2915  0.1313
28149SOL    HW189294   0.567   9.392   0.536 -1.7578 -3.4691  0.8563
28149SOL    HW289295   0.431   9.389   0.469 -0.7255  0.4536 -1.7883
28150SOL     OW89296   8.143   6.786   8.591  0.0202 -0.0665 -0.4111
28150SOL    HW189297   8.118   6.870   8.629  0.0736 -0.5221  0.6685
28150SOL    HW289298   8.125   6.795   8.497  0.3162  1.2494 -0.3532
28151SOL     OW89299   7.938   9.473   6.669 -0.4603  0.2358  0.0990
28151SOL    HW189300   7.998   9.402   6.644 -0.3801  0.0099  0.8687
28151SOL    HW289301   7.977   9.552   6.632 -0.4816 -0.1088 -0.6638
28152SOL     OW89302   0.189   9.342   7.840 -0.1009 -0.2295 -0.1370
28152SOL    HW189303   0.173   9.425   7.796 -0.5180 -0.7157 -0.9382
28152SOL    HW289304   0.275   9.352   7.881 -0.6876  1.0248  0.8432
28153SOL     OW89305   7.283   0.024   6.243  0.6212  0.4238 -0.2457
28153SOL    HW189306   7.201  -0.023   6.228  1.1699 -0.4979 -0.4268
28153SOL    HW289307   7.257   0.117   6.243 -0.4504  0.1421 -0.0480
28154SOL     OW89308   8.310   9.361   9.224  0.9415 -0.5428  0.1930
28154SOL    HW189309   8.245   9.294   9.202 -2.8505  3.3322 -2.2548
28154SOL    HW289310   8.279   9.397   9.308  0.0740  0.9572 -0.7140
28155SOL     OW89311   6.520   8.621   9.265 -0.3760  0.4719  0.2387
28155SOL    HW189312   6.566   8.702   9.241  0.1670 -0.1194 -0.8044
28155SOL    HW289313   6.580   8.551   9.238 -2.3056 -0.3742 -2.2656
28156SOL     OW89314   9.403   6.717   7.155  0.4560 -0.2294  0.3470
28156SOL    HW189315   9.402   6.778   7.081 -3.7653 -2.6400 -1.9260
28156SOL    HW289316   9.481   6.663   7.141  1.4103  1.2749 -0.4887
28157SOL     OW89317   9.336   8.128   7.971  0.2662  0.2297 -0.3839
28157SOL    HW189318   9.384   8.087   7.899 -2.3652  0.2697 -2.3316
28157SOL    HW289319   9.398   8.191   8.008  1.8445  0.0311 -2.4721
28158SOL     OW89320   7.712   0.641   0.272 -0.4504  0.3684 -0.4178
28158SOL    HW189321   7.666   0.720   0.242 -0.5604  0.4222 -0.1089
28158SOL    HW289322   7.769   0.618   0.199  0.1372  1.1666 -0.2198
28159SOL     OW89323   9.342   0.628   8.891  0.2813  0.5101  0.3344
28159SOL    HW189324   9.339   0.717   8.857 -1.0606  0.2107 -0.3860
28159SOL    HW289325   9.405   0.632   8.963  1.0591  1.7861 -0.3768
28160SOL     OW89326   4.520   0.442   8.425  0.4899 -0.0471 -0.1641
28160SOL    HW189327   4.489   0.449   8.334 -0.7004 -0.7809  0.1548
28160SOL    HW289328   4.505   0.350   8.448  1.9858 -0.1843  0.3755
28161SOL     OW89329   1.028   7.104   0.186 -0.0303 -0.3350  0.4450
28161SOL    HW189330   0.986   7.162   0.250 -1.4234  0.7608 -1.3629
28161SOL    HW289331   0.969   7.104   0.111  1.4258 -1.7520 -0.7792
28162SOL     OW89332   6.607   0.398   7.819  0.3422  0.2938 -0.5907
28162SOL    HW189333   6.642   0.376   7.905  3.0274 -1.2574 -1.9127
28162SOL    HW289334   6.619   0.318   7.768 -0.3893  1.4108 -2.6328
28163SOL     OW89335   9.516   7.297   9.732 -0.3739 -0.3658 -0.2980
28163SOL    HW189336   9.483   7.208   9.746  0.3529 -0.6354 -0.3080
28163SOL    HW289337   9.497   7.342   9.815 -3.8647  0.4921 -1.3811
28164SOL     OW89338   5.304   0.795   9.112  0.0296  0.1658 -0.0554
28164SOL    HW189339   5.292   0.857   9.184  0.1309  2.8380 -2.1663
28164SOL    HW289340   5.217   0.757   9.098  0.0538 -0.5648  1.5443
28165SOL     OW89341   7.618   0.062   8.796  0.0865  0.7345 -0.0084
28165SOL    HW189342   7.617   0.157   8.801 -0.6377  0.7491 -0.2689
28165SOL    HW289343   7.684   0.042   8.729 -0.7307  1.1178 -0.9532
28166SOL     OW89344   0.634   8.561   0.815 -0.1729 -0.0607 -0.2009
28166SOL    HW189345   0.716   8.607   0.797  0.9117 -0.8469  2.2451
28166SOL    HW289346   0.650   8.471   0.785 -0.0543 -0.2579  0.4413
28167SOL     OW89347   5.304   9.090   8.514 -0.1628 -0.7393  0.0021
28167SOL    HW189348   5.237   9.038   8.558 -1.0615 -1.0386 -1.6451
28167SOL    HW289349   5.274   9.180   8.522  1.3882 -0.3720  2.8466
28168SOL     OW89350   7.566   8.395   0.654 -0.0747 -0.6526  0.4698
28168SOL    HW189351   7.598   8.323   0.600  0.2938 -0.8224  0.9119
28168SOL    HW289352   7.644   8.430   0.697 -0.4150 -0.8321  1.2698
28169SOL     OW89353   9.803   8.888   0.237  0.3471  0.1910 -0.2539
28169SOL    HW189354   9.789   8.825   0.307 -0.5380 -0.6869 -1.1753
28169SOL    HW289355   9.727   8.946   0.241 -0.4900 -0.7713 -1.3750
28170SOL     OW89356   9.518   9.756   5.796  0.0733  1.0805  0.8074
28170SOL    HW189357   9.553   9.671   5.822 -0.9950  0.6854  0.9818
28170SOL    HW289358   9.543   9.815   5.867  2.0114  1.2531  0.0516
28171SOL     OW89359   9.659   7.994   8.201  0.1192  0.4373  0.1838
28171SOL    HW189360   9.743   8.007   8.156  1.3999  0.3517  2.3725
28171SOL    HW289361   9.598   8.052   8.156  1.3139  0.4171 -1.5583
28172SOL     OW89362   7.529   8.635   9.499  0.2997 -0.5150 -0.4119
28172SOL    HW189363   7.483   8.571   9.553 -0.5150 -0.0594 -0.5442
28172SOL    HW289364   7.463   8.701   9.478  0.8258 -0.2278 -1.2411
28173SOL     OW89365   6.797   8.790   1.116  0.0660  0.4701  0.5104
28173SOL    HW189366   6.817   8.884   1.110 -0.1259  0.4820  0.0307
28173SOL    HW289367   6.852   8.749   1.050 -0.0849  0.2810  0.5005
28174SOL     OW89368   0.059   9.705   1.543  0.5641 -0.2822  0.6719
28174SOL    HW189369   0.078   9.798   1.541 -0.4461 -0.0763 -1.1354
28174SOL    HW289370   0.127   9.665   1.488 -0.8005 -0.1855 -1.1927
28175SOL     OW89371   8.338   2.387   9.712 -0.1431  0.4052  0.7712
28175SOL    HW189372   8.380   2.473   9.702 -0.2656  0.2313 -1.8287
28175SOL    HW289373   8.246   2.407   9.728 -0.5980  0.8609 -1.9341
28176SOL     OW89374   7.676   0.504   7.649 -0.1285  0.3169 -0.0070
28176SOL    HW189375   7.721   0.480   7.730  0.4450 -0.3898 -0.5248
28176SOL    HW289376   7.595   0.546   7.678  0.6822  1.3027  0.9533
28177SOL     OW89377   7.032   8.270   7.698 -0.1147 -0.1793 -0.1069
28177SOL    HW189378   6.984   8.348   7.671  1.1955  0.0322 -2.0949
28177SOL    HW289379   7.122   8.301   7.713  0.7590 -1.4457 -2.2676
28178SOL     OW89380   8.230   8.446   7.759  0.3275  0.1685 -0.2196
28178SOL    HW189381   8.171   8.418   7.689 -0.6662  0.3565  0.5265
28178SOL    HW289382   8.178   8.438   7.839  2.2282 -2.6526  0.8927
28179SOL     OW89383   8.214   9.125   9.192  0.2642 -0.2028 -0.1145
28179SOL    HW189384   8.237   9.065   9.264 -1.1983 -0.2293  0.3540
28179SOL    HW289385   8.253   9.086   9.114 -1.2015 -2.1395  0.0680
28180SOL     OW89386   6.667   9.264   6.446  0.6341  0.1841 -0.1994
28180SOL    HW189387   6.665   9.355   6.477  0.3597 -0.6602  2.4702
28180SOL    HW289388   6.646   9.271   6.353 -0.3370  2.7691  0.1180
28181SOL     OW89389   5.535   0.272   0.980 -0.0246 -0.5916 -0.7927
28181SOL    HW189390   5.440   0.260   0.988 -0.0492  0.1359  0.2246
28181SOL    HW289391   5.551   0.360   1.015  0.8478 -0.0757 -2.3821
28182SOL     OW89392   8.309   1.316   8.702  0.4318 -0.2804 -0.2066
28182SOL    HW189393   8.300   1.334   8.795  1.1403 -1.7009  0.1722
28182SOL    HW289394   8.321   1.402   8.661 -0.2058  0.3855  0.9544
28183SOL     OW89395   9.834   1.639   0.093  0.2094 -0.1114 -0.3428
28183SOL    HW189396   9.789   1.555   0.085 -0.7595  0.4470 -1.0185
28183SOL    HW289397   9.811   1.670   0.180  0.2400 -0.3636 -0.2445
28184SOL     OW89398   7.886   9.778   1.128 -0.2532 -0.1570  0.3166
28184SOL    HW189399   7.956   9.734   1.080 -0.3895 -0.1956  0.1475
28184SOL    HW289400   7.818   9.711   1.137  0.2206 -0.4839  1.5558
28185SOL     OW89401   7.697   7.980   1.319 -0.4763  0.5564  0.7709
28185SOL    HW189402   7.604   8.002   1.330 -0.3565  1.5813 -0.0465
28185SOL    HW289403   7.743   8.051   1.364 -0.0780  0.3693  0.6580
28186SOL     OW89404   0.644   7.827   7.162 -0.4278 -0.0581  0.3631
28186SOL    HW189405   0.600   7.890   7.104 -1.3872  0.0376  1.1553
28186SOL    HW289406   0.698   7.882   7.220 -1.7973  0.1472  1.5106
28187SOL     OW89407   6.439   9.475   1.158 -0.1390  0.0977 -0.1009
28187SOL    HW189408   6.524   9.513   1.182  0.7840 -0.1847 -2.5582
28187SOL    HW289409   6.379   9.550   1.156  0.9794  1.0382 -1.9859
28188SOL     OW89410   8.736   9.779   7.804  0.2764 -0.4118 -0.0734
28188SOL    HW189411   8.696   9.776   7.890 -1.5955 -0.6183 -0.9168
28188SOL    HW289412   8.683   9.721   7.750  1.0016  0.2384 -1.5445
28189SOL     OW89413   9.787   8.663   0.394 -0.1025 -0.7638  0.2237
28189SOL    HW189414   9.755   8.605   0.324 -0.2362 -1.1401  0.5887
28189SOL    HW289415   9.845   8.607   0.446  1.0933 -0.1066 -0.3824
28190SOL     OW89416   6.379   5.754   0.604 -0.5528 -0.1828  0.0864
28190SOL    HW189417   6.303   5.714   0.647 -1.3641  2.1422  1.0177
28190SOL    HW289418   6.429   5.681   0.568 -2.7679 -1.8545  0.2259
28191SOL     OW89419   7.826   9.019   0.338  0.0023 -0.5007 -0.4328
28191SOL    HW189420   7.737   9.053   0.324 -0.5835 -0.1264  3.0800
28191SOL    HW289421   7.813   8.937   0.386  1.4789  0.0463  1.0283
28192SOL     OW89422   7.731   9.506   8.568  0.7278 -0.5517  0.0984
28192SOL    HW189423   7.728   9.483   8.475 -0.1254  0.1968 -0.0681
28192SOL    HW289424   7.654   9.463   8.606  1.2009 -1.0458  0.5149
28193SOL     OW89425   7.712   9.687   0.392  0.3331  0.4615  0.1256
28193SOL    HW189426   7.727   9.600   0.354  2.8091  0.2457  1.3897
28193SOL    HW289427   7.684   9.670   0.482 -0.0035  0.9812  0.1246
28194SOL     OW89428   7.334   8.411   1.159 -0.5021  0.4320 -0.2901
28194SOL    HW189429   7.386   8.388   1.082  1.5999 -0.4928  1.2793
28194SOL    HW289430   7.366   8.497   1.184  0.1243 -0.0160  0.5176
28195SOL     OW89431   9.019   7.923   0.040 -0.3077  0.0454  0.0659
28195SOL    HW189432   9.074   8.000   0.057 -0.1027 -0.4517  1.8790
28195SOL    HW289433   8.937   7.942   0.085 -2.1177  1.1784 -3.3644
28196SOL     OW89434   9.441   9.163   9.556  0.1957 -0.2079  0.2842
28196SOL    HW189435   9.426   9.198   9.644 -0.4597 -0.0832  0.1279
28196SOL    HW289436   9.421   9.070   9.563 -1.1085  0.0372 -0.0237
28197SOL     OW89437   9.436   9.774   1.161  0.5969  0.6135 -0.5323
28197SOL    HW189438   9.488   9.821   1.226 -0.3523  0.4152  0.4080
28197SOL    HW289439   9.451   9.821   1.080  3.7268 -0.5622 -0.7537
28198SOL     OW89440   7.119   8.735   0.727 -0.0628  0.0177  0.4051
28198SOL    HW189441   7.204   8.692   0.713  0.0582 -0.0696  1.3730
28198SOL    HW289442   7.139   8.828   0.720 -0.3644 -0.0248 -1.9164
28199SOL     OW89443   0.702   0.997   2.083 -0.8696 -0.2985 -0.2516
28199SOL    HW189444   0.753   1.069   2.046 -1.1938  0.7997  1.3467
28199SOL    HW289445   0.766   0.943   2.128 -0.9415  0.4222  0.7355
28200SOL     OW89446   1.858   0.776   0.184  0.5951  0.1095 -0.5568
28200SOL    HW189447   1.895   0.857   0.149  1.2842 -1.8138 -4.8088
28200SOL    HW289448   1.934   0.721   0.203  0.0782 -0.8294 -1.1875
28201SOL     OW89449   9.488   1.926   1.603 -0.0698 -0.3083  0.1183
28201SOL    HW189450   9.530   1.841   1.615 -0.0283 -0.2214  0.6336
28201SOL    HW289451   9.404   1.907   1.561 -1.0022 -0.8370  2.0836
28202SOL     OW89452   0.788   2.008   2.993 -0.0822 -0.0368 -0.3347
28202SOL    HW189453   0.744   2.063   3.058  0.7725  0.6635 -0.3453
28202SOL    HW289454   0.834   2.069   2.936 -0.8472 -0.6276 -1.6543
28203SOL     OW89455   0.187   1.173   0.691 -0.2309  0.3921  0.6919
28203SOL    HW189456   0.120   1.132   0.636  0.2677 -1.9697  1.7002
28203SOL    HW289457   0.232   1.099   0.733  0.3424  2.0315  3.1719
28204SOL     OW89458   1.403   0.468   0.160  0.0550  0.2243 -0.3760
28204SOL    HW189459   1.488   0.498   0.192 -0.2342 -1.8435  2.8533
28204SOL    HW289460   1.369   0.542   0.110  2.9918  1.7638 -0.3321
28205SOL     OW89461   8.996   1.857   2.830  0.7033  0.2704 -0.5869
28205SOL    HW189462   9.017   1.763   2.825  0.8277  0.3311 -1.3883
28205SOL    HW289463   8.952   1.868   2.914 -2.3022 -1.0971 -1.8488
28206SOL     OW89464   9.242   3.995   1.910  0.6647  0.4840  0.4728
28206SOL    HW189465   9.328   3.979   1.949  1.0176  0.9132 -0.1170
28206SOL    HW289466   9.200   4.058   1.968  1.3499  1.4407 -0.0430
28207SOL     OW89467   2.231   2.189   0.392 -0.4668 -0.6275 -0.6559
28207SOL    HW189468   2.204   2.281   0.389 -0.8411 -0.7367 -0.6991
28207SOL    HW289469   2.211   2.162   0.482  0.1366 -0.5209 -0.4851
28208SOL     OW89470   8.219   1.215   1.070 -0.3689  0.0301  0.0833
28208SOL    HW189471   8.306   1.185   1.042 -0.6722 -1.0522  0.2469
28208SOL    HW289472   8.218   1.309   1.050  0.3242 -0.2256 -1.2405
28209SOL     OW89473   9.459   1.386   1.828  0.0003 -0.1385  0.4811
28209SOL    HW189474   9.401   1.434   1.887  0.3263  0.8407  0.0205
28209SOL    HW289475   9.548   1.406   1.859  0.1571 -0.0396 -0.0203
28210SOL     OW89476   8.885   0.396   2.033 -0.3864 -0.1131  0.2148
28210SOL    HW189477   8.867   0.468   2.093  4.8710  0.5064  1.5244
28210SOL    HW289478   8.905   0.439   1.950 -1.0708 -0.4556 -0.1404
28211SOL     OW89479   2.431   0.341   1.187 -0.4780 -0.0044 -0.1055
28211SOL    HW189480   2.514   0.368   1.228 -1.5577  1.0625  1.4645
28211SOL    HW289481   2.448   0.347   1.093  1.4549 -0.5384  0.1552
28212SOL     OW89482   0.992   9.838   9.850  0.1039 -0.2245  0.5257
28212SOL    HW189483   1.004   9.816   9.943 -1.3530  0.7274  0.9687
28212SOL    HW289484   1.080   9.860   9.819  0.4995  0.2515  1.9054
28213SOL     OW89485   8.771   0.736   0.802 -0.1733  0.6346 -0.2718
28213SOL    HW189486   8.798   0.828   0.800 -0.3922  0.6967 -0.3285
28213SOL    HW289487   8.807   0.699   0.721  2.1308  0.0419  0.9053
28214SOL     OW89488   0.199   0.437   2.806 -0.4397 -0.3614 -0.6208
28214SOL    HW189489   0.268   0.456   2.869  1.0380  0.2690 -2.3481
28214SOL    HW289490   0.117   0.459   2.851  0.5526  0.0250  1.0486
28215SOL     OW89491   8.376   8.881   1.607  0.1485  0.0051  0.4939
28215SOL    HW189492   8.340   8.960   1.566  2.0670 -0.1060 -1.6166
28215SOL    HW289493   8.381   8.817   1.536  3.5688 -0.2359  0.7946
28216SOL     OW89494   0.533   3.608   0.877 -0.9713  0.0257  0.5751
28216SOL    HW189495   0.510   3.525   0.920 -1.9130  0.3296  0.6821
28216SOL    HW289496   0.456   3.663   0.888 -0.5741  0.7200 -0.0082
28217SOL     OW89497   0.870   0.688   9.073 -0.1233 -0.4497 -0.1231
28217SOL    HW189498   0.836   0.598   9.076  0.3576 -0.6994 -1.3786
28217SOL    HW289499   0.844   0.726   9.156  0.3743 -2.0146  0.7978
28218SOL     OW89500   0.128   2.989   2.665 -0.1127  0.7048  0.2963
28218SOL    HW189501   0.142   2.897   2.685 -2.1013  0.9495  3.5051
28218SOL    HW289502   0.039   3.007   2.696  0.2370  3.7091 -0.1699
28219SOL     OW89503   0.944   1.325   1.814  0.2869  0.3111  0.0109
28219SOL    HW189504   0.952   1.314   1.719  0.1396 -0.5328  0.0829
28219SOL    HW289505   0.995   1.403   1.834 -1.1274  1.5432 -0.9884
28220SOL     OW89506   8.857   9.794   2.250  0.5317  0.4540  0.1836
28220SOL    HW189507   8.946   9.774   2.220  0.3754  1.2512 -0.8897
28220SOL    HW289508   8.842   9.884   2.222 -1.0128 -0.0299 -0.6759
28221SOL     OW89509   7.294   0.311   9.201 -0.1937  0.6122 -0.0117
28221SOL    HW189510   7.277   0.223   9.168  0.2103  0.6738 -0.3872
28221SOL    HW289511   7.315   0.363   9.123 -1.3483  1.2679  0.0774
28222SOL     OW89512   9.524   2.635   1.296  0.0606 -0.2725 -0.1675
28222SOL    HW189513   9.556   2.725   1.300 -2.6080  0.7905 -0.3846
28222SOL    HW289514   9.519   2.615   1.202 -1.5650  0.2831 -0.2293
28223SOL     OW89515   0.068   1.799   9.516  0.5190  0.6922 -0.3144
28223SOL    HW189516   0.136   1.733   9.528 -1.2637 -1.5672 -1.7503
28223SOL    HW289517   0.028   1.809   9.602  0.4558 -0.5544 -0.1811
28224SOL     OW89518   9.775   8.223   2.859 -0.2390 -0.3976  0.1086
28224SOL    HW189519   9.682   8.241   2.851  0.0896  1.7287  0.6713
28224SOL    HW289520   9.784   8.176   2.943 -0.5827  1.3792  1.1807
28225SOL     OW89521   9.753   0.208   1.318 -0.0619 -0.2493 -0.6463
28225SOL    HW189522   9.723   0.239   1.403  0.9659 -0.2255 -0.2911
28225SOL    HW289523   9.836   0.253   1.303 -0.0419 -0.5474 -1.4854
28226SOL     OW89524   8.724   8.987   7.308  0.0203 -0.3229 -0.0953
28226SOL    HW189525   8.641   9.015   7.269 -1.8926 -3.0093  1.7010
28226SOL    HW289526   8.757   8.921   7.247  0.8218  0.6380 -0.7317
28227SOL     OW89527   0.093   8.804   1.703 -0.0002 -0.3642  0.0739
28227SOL    HW189528   0.173   8.764   1.736  0.6986  1.7723  1.1338
28227SOL    HW289529   0.035   8.807   1.779 -0.3583 -0.1527 -0.2061
28228SOL     OW89530   1.449   0.692   9.540 -0.7884 -0.1351 -0.8813
28228SOL    HW189531   1.466   0.692   9.446  1.1157 -0.0286 -0.5911
28228SOL    HW289532   1.468   0.781   9.568 -1.1463 -0.2160 -0.3655
28229SOL     OW89533   0.733   1.109   2.437  0.1452 -0.6212  0.0289
28229SOL    HW189534   0.773   1.048   2.376 -0.3939 -1.1619  0.2065
28229SOL    HW289535   0.777   1.192   2.420  1.1263 -1.1311  0.0301
28230SOL     OW89536   8.667   0.934   0.623  0.2493 -0.1280 -0.3823
28230SOL    HW189537   8.636   0.888   0.701  2.1295 -0.4556  0.2022
28230SOL    HW289538   8.614   0.898   0.552  0.4466 -1.8943  0.3193
28231SOL     OW89539   1.044   1.100   0.980 -0.3918  0.2255 -0.7952
28231SOL    HW189540   1.055   1.027   0.920 -0.1846  1.1449 -1.9054
28231SOL    HW289541   0.953   1.128   0.968 -1.0709 -1.0184  1.0274
28232SOL     OW89542   0.048   1.357   2.085  0.2389 -0.1249 -0.1368
28232SOL    HW189543   0.051   1.298   2.160  0.7094 -2.2686 -1.7315
28232SOL    HW289544   0.138   1.388   2.075  0.5023 -1.0461 -0.6936
28233SOL     OW89545   8.886   1.770   1.519 -0.1277 -0.1882  0.2168
28233SOL    HW189546   8.812   1.772   1.579 -0.3400  1.6123 -0.0329
28233SOL    HW289547   8.899   1.862   1.494  2.8799 -0.2504  1.0969
28234SOL     OW89548   9.586   9.622   2.759  0.2070 -0.0115  0.0968
28234SOL    HW189549   9.628   9.705   2.736  2.2016 -1.0002 -0.0632
28234SOL    HW289550   9.528   9.603   2.686  1.5954  0.0546 -1.0600
28235SOL     OW89551   6.798   0.226   1.500  0.6703 -0.2241  0.4351
28235SOL    HW189552   6.757   0.140   1.485 -1.0035  0.6982 -0.6649
28235SOL    HW289553   6.731   0.276   1.547  0.5147  1.3034 -1.3141
28236SOL     OW89554   0.649   1.919   0.773 -0.2223  0.0768  0.4911
28236SOL    HW189555   0.597   1.860   0.718 -0.5708  1.5975 -0.8896
28236SOL    HW289556   0.586   1.958   0.833  0.0297 -1.0031  1.4930
28237SOL     OW89557   8.251   8.547   8.560 -0.0727  0.0517  0.0221
28237SOL    HW189558   8.222   8.493   8.634  0.0420  0.9598  0.7341
28237SOL    HW289559   8.344   8.529   8.552 -0.0037  0.2657  0.3564
28238SOL     OW89560   9.163   1.377   8.853  0.3175 -0.7658 -0.9911
28238SOL    HW189561   9.133   1.286   8.862 -0.8572 -0.3040  0.2793
28238SOL    HW289562   9.100   1.427   8.905  0.1662  0.9433 -2.7204
28239SOL     OW89563   9.074   2.054   1.181  0.4704 -0.1951 -0.0354
28239SOL    HW189564   9.030   2.091   1.104 -1.3665 -2.5288 -0.2335
28239SOL    HW289565   9.017   2.076   1.255 -0.0381 -1.4675 -0.0033
28240SOL     OW89566   8.092   0.488   9.417 -0.4249  0.4426 -0.3863
28240SOL    HW189567   8.076   0.491   9.322  0.1568 -0.0613 -0.5007
28240SOL    HW289568   8.079   0.396   9.441  2.3481 -0.0521 -0.5065
28241SOL     OW89569   0.931   2.334   3.161  0.2529 -0.2819  0.2354
28241SOL    HW189570   0.848   2.292   3.138  2.1158 -4.0085 -0.4778
28241SOL    HW289571   0.972   2.353   3.076  0.1830  1.5603  0.5787
28242SOL     OW89572   8.671   0.917   2.126  0.0104 -0.4933 -0.5475
28242SOL    HW189573   8.715   0.873   2.053  1.3182 -0.2154  0.0459
28242SOL    HW289574   8.586   0.941   2.091  0.8623  0.2526 -2.2358
28243SOL     OW89575   1.251   0.432   9.617 -0.3991 -0.0599 -0.7988
28243SOL    HW189576   1.325   0.438   9.677 -1.8434  0.5967  1.0070
28243SOL    HW289577   1.274   0.491   9.545  0.3606  0.9697  0.2476
28244SOL     OW89578   9.516   1.283   2.549  0.2374 -0.7994  0.3476
28244SOL    HW189579   9.528   1.230   2.628 -0.3794 -1.3234  0.1043
28244SOL    HW289580   9.447   1.237   2.501  0.5926 -0.4717 -0.4812
28245SOL     OW89581   0.446   4.859   0.359 -0.6485 -0.0057  0.2555
28245SOL    HW189582   0.464   4.944   0.399  0.1471  1.3618 -2.7287
28245SOL    HW289583   0.527   4.809   0.371 -0.4830  0.3152  0.4661
28246SOL     OW89584   9.458   0.389   1.447  0.4898  0.1183  0.0752
28246SOL    HW189585   9.526   0.453   1.468  1.7658 -0.9199 -0.7333
28246SOL    HW289586   9.473   0.316   1.507 -0.5939  0.3096  0.6067
28247SOL     OW89587   8.323   3.480   0.976  0.1863 -0.3737 -0.2710
28247SOL    HW189588   8.331   3.391   1.010 -1.6932 -1.0047 -1.3352
28247SOL    HW289589   8.306   3.469   0.882 -1.8169  0.9790 -0.1406
28248SOL     OW89590   9.665   3.612   3.399 -0.5265  0.2232 -0.0351
28248SOL    HW189591   9.591   3.657   3.441 -0.7078 -0.5861  0.5332
28248SOL    HW289592   9.626   3.563   3.328 -0.5968 -0.4732  0.4736
28249SOL     OW89593   0.218   4.199   5.601 -0.3036 -0.1576 -0.2893
28249SOL    HW189594   0.166   4.277   5.623  1.8596  0.5469  3.1081
28249SOL    HW289595   0.242   4.212   5.509 -0.2651  3.0941  0.0504
28250SOL     OW89596   9.090   8.035   0.937  0.0122 -0.3198 -0.0520
28250SOL    HW189597   9.016   8.089   0.909  2.0086  2.1631 -0.8815
28250SOL    HW289598   9.098   8.050   1.031  0.4048  0.6533 -0.2374
28251SOL     OW89599   8.978   1.741   2.211  0.4387  0.2091  0.6297
28251SOL    HW189600   8.934   1.812   2.258  0.8065  0.1555  1.0583
28251SOL    HW289601   9.061   1.779   2.182  0.2528  0.2176  0.0790
28252SOL     OW89602   8.013   0.896   0.586  0.2811 -0.2215 -0.1031
28252SOL    HW189603   7.970   0.839   0.650  2.1101 -1.8624 -0.2377
28252SOL    HW289604   7.949   0.906   0.516 -1.2471  0.4935  1.3285
28253SOL     OW89605   2.528   1.916   1.490  0.6285  0.5817 -0.4621
28253SOL    HW189606   2.474   1.841   1.515  1.4401  0.5544  1.3658
28253SOL    HW289607   2.618   1.886   1.504  1.0326  1.3534 -1.3221
28254SOL     OW89608   1.833   4.142   1.286  0.3436  0.0250  0.4645
28254SOL    HW189609   1.826   4.190   1.369  1.8650  1.8780 -0.3999
28254SOL    HW289610   1.779   4.192   1.225 -0.2560 -0.9637  0.1648
28255SOL     OW89611   0.306   9.302   1.232 -0.2797 -0.0293 -0.4249
28255SOL    HW189612   0.267   9.376   1.277  0.6046 -0.8577  1.8692
28255SOL    HW289613   0.260   9.225   1.268  0.4986 -0.7308 -0.8878
28256SOL     OW89614   7.701   0.038   1.343 -0.4491  0.0847  0.2909
28256SOL    HW189615   7.668  -0.045   1.308 -0.5980 -0.3766  1.4844
28256SOL    HW289616   7.789   0.018   1.374  0.5608  1.0189 -1.7432
28257SOL     OW89617   8.969   1.244   0.081 -0.2390  0.0598 -0.4359
28257SOL    HW189618   8.958   1.295   0.001  0.3546  1.3004  0.2551
28257SOL    HW289619   9.057   1.207   0.075 -1.1228 -2.0567 -1.5515
28258SOL     OW89620   9.144   1.396   0.788 -0.2718 -0.1567 -0.1693
28258SOL    HW189621   9.089   1.318   0.795  1.0685 -0.9974  2.1123
28258SOL    HW289622   9.230   1.367   0.817  0.6445  1.8342 -0.7500
28259SOL     OW89623   7.716   9.628   2.368  0.0975 -0.0539 -0.5880
28259SOL    HW189624   7.755   9.613   2.282 -0.7870  0.9915 -1.2081
28259SOL    HW289625   7.638   9.572   2.369  0.6130 -0.7809 -0.0718
28260SOL     OW89626   9.335   0.264   0.688  0.3260  0.1639  0.0609
28260SOL    HW189627   9.430   0.263   0.698  0.3665  0.9667 -0.2090
28260SOL    HW289628   9.318   0.321   0.613 -0.2592 -1.6675 -1.2892
28261SOL     OW89629   9.021   8.639   8.586 -0.3060  0.2125 -0.2991
28261SOL    HW189630   8.996   8.637   8.494  1.6694  1.3924 -0.9329
28261SOL    HW289631   9.097   8.580   8.591  1.0904  1.9601  0.0140
28262SOL     OW89632   9.248   1.675   3.229 -0.1246  0.4768 -0.2239
28262SOL    HW189633   9.277   1.595   3.185  0.1508  0.0602  0.6880
28262SOL    HW289634   9.329   1.717   3.257 -0.1769  1.9095 -2.0743
28263SOL     OW89635   9.727   0.320   3.267  0.0972 -0.2121  0.8447
28263SOL    HW189636   9.793   0.251   3.275 -1.2251 -1.3814  2.5168
28263SOL    HW289637   9.708   0.345   3.357 -1.6271  0.1783  0.4117
28264SOL     OW89638   9.811   1.844   9.780  0.1623 -0.1529  0.6285
28264SOL    HW189639   9.800   1.768   9.838 -0.3942 -0.1918  0.4726
28264SOL    HW289640   9.873   1.900   9.827 -0.8857  0.1945  1.6577
28265SOL     OW89641   9.438   0.781   3.812 -0.1665  0.0224  0.2796
28265SOL    HW189642   9.424   0.687   3.821 -1.5079 -0.0412 -1.8853
28265SOL    HW289643   9.465   0.809   3.900 -0.2721 -2.2568  1.1172
28266SOL     OW89644   7.730   4.430   1.212 -0.8213 -0.7727 -0.1725
28266SOL    HW189645   7.713   4.373   1.137  1.9815 -1.5249 -0.3763
28266SOL    HW289646   7.759   4.513   1.172  1.8540 -1.5551 -0.0858
28267SOL     OW89647   9.282   0.156   3.890 -0.0007  0.5745 -0.5499
28267SOL    HW189648   9.330   0.134   3.970 -1.1787 -0.7188 -0.1561
28267SOL    HW289649   9.348   0.195   3.833  1.0615  0.7217  0.7107
28268SOL     OW89650   8.931   0.989   2.561 -0.4650  0.4518  0.1702
28268SOL    HW189651   9.020   1.001   2.527 -0.3900 -2.3190 -0.8276
28268SOL    HW289652   8.879   1.057   2.517  1.0804  1.9624  0.5957
28269SOL     OW89653   1.326   0.650   2.664  0.3731 -0.2596 -0.2350
28269SOL    HW189654   1.409   0.648   2.616  0.5385 -0.2089  0.0449
28269SOL    HW289655   1.325   0.736   2.706  0.1932 -0.2736 -0.2100
28270SOL     OW89656   9.745   0.612   1.293  0.3886  0.4763  0.5751
28270SOL    HW189657   9.814   0.674   1.316  0.7165  0.1873  0.3725
28270SOL    HW289658   9.689   0.609   1.370  0.6001  0.7104  0.7394
28271SOL     OW89659   8.158   0.280   1.825 -0.4440  1.0362 -0.0045
28271SOL    HW189660   8.156   0.185   1.833 -1.7438  1.0731  0.3902
28271SOL    HW289661   8.216   0.297   1.751  1.0683  0.0248  0.9119
28272SOL     OW89662   9.122   9.622   1.536  0.3267  0.5818  0.2128
28272SOL    HW189663   9.066   9.555   1.575 -1.2658  0.9949 -1.2795
28272SOL    HW289664   9.116   9.696   1.597  0.7905 -0.0210  1.0212
28273SOL     OW89665   0.975   2.553   4.657 -0.6885 -0.2281  0.4164
28273SOL    HW189666   0.953   2.646   4.665 -1.5495 -0.5301  1.7891
28273SOL    HW289667   0.890   2.509   4.657 -0.2603 -1.0576  0.3450
28274SOL     OW89668   1.947   7.401   2.427 -0.0717 -0.0934 -0.0515
28274SOL    HW189669   1.864   7.443   2.405 -0.6925 -0.8506  0.7706
28274SOL    HW289670   1.992   7.390   2.343 -1.4909 -1.0852 -0.7063
28275SOL     OW89671   9.027   8.696   3.082 -0.5022 -0.3003 -0.2802
28275SOL    HW189672   9.114   8.711   3.046 -0.7168 -0.6722 -0.9553
28275SOL    HW289673   9.008   8.775   3.133 -0.0192  0.0368 -0.6223
28276SOL     OW89674   7.160   0.835   2.983  0.0201 -0.2675  0.2047
28276SOL    HW189675   7.155   0.776   2.907  1.1462 -0.7797  0.4985
28276SOL    HW289676   7.183   0.778   3.056  2.4442  0.6555  0.2545
28277SOL     OW89677   8.961   8.472   9.619  0.6399 -0.2512 -0.4637
28277SOL    HW189678   9.056   8.466   9.632  1.0004  1.8137 -1.7595
28277SOL    HW289679   8.950   8.477   9.524 -0.5578  1.9430 -0.2662
28278SOL     OW89680   0.565   3.564   3.231  0.3965  0.0203  0.1418
28278SOL    HW189681   0.573   3.495   3.296  1.1071 -0.3827 -0.3677
28278SOL    HW289682   0.473   3.590   3.236  0.7834  1.2651  2.5722
28279SOL     OW89683   1.319   2.857   1.161  0.7529 -0.4214  0.2638
28279SOL    HW189684   1.317   2.772   1.206  1.1729 -0.6660 -0.1729
28279SOL    HW289685   1.312   2.836   1.068 -0.6156  0.1128  0.2201
28280SOL     OW89686   9.193   1.779   2.634 -0.3447  0.4362  0.1701
28280SOL    HW189687   9.117   1.820   2.594  0.0492 -0.8171 -2.0131
28280SOL    HW289688   9.163   1.691   2.659  0.2671  0.0662 -0.3577
28281SOL     OW89689   8.740   7.929   2.394  0.0546 -0.0901 -0.3193
28281SOL    HW189690   8.806   7.977   2.444  0.1002  0.5987 -1.0318
28281SOL    HW289691   8.780   7.843   2.380  1.0890  0.5150 -1.2807
28282SOL     OW89692   9.290   8.915   1.643  0.0555  0.0944 -0.0169
28282SOL    HW189693   9.316   8.824   1.658 -0.7586 -0.1225  0.0901
28282SOL    HW289694   9.197   8.918   1.665  0.3834  1.2747  1.3789
28283SOL     OW89695   7.918   0.161   1.038  0.6642  0.2317  0.1273
28283SOL    HW189696   7.998   0.151   0.988  0.2431 -1.1668 -0.3032
28283SOL    HW289697   7.902   0.075   1.076  1.0683  1.2493  2.8668
28284SOL     OW89698   8.038   9.423   1.498 -0.0096  0.4196  0.0472
28284SOL    HW189699   7.952   9.465   1.490  0.6103  1.8485  0.6404
28284SOL    HW289700   8.089   9.459   1.426  1.3339  2.7949  2.0382
28285SOL     OW89701   0.328   8.708   2.545  0.1753 -0.1396 -0.1421
28285SOL    HW189702   0.396   8.766   2.579  0.4521  0.1304 -1.1190
28285SOL    HW289703   0.279   8.680   2.622  2.0674 -1.2349  0.7382
28286SOL     OW89704   0.401   1.443   9.671  0.0913  0.2491 -0.0565
28286SOL    HW189705   0.341   1.489   9.613  0.4997  0.8526 -0.0107
28286SOL    HW289706   0.454   1.389   9.613 -0.3201 -0.0984 -0.1200
28287SOL     OW89707   8.910   0.464   0.267  0.0561 -0.0146  0.3101
28287SOL    HW189708   8.997   0.477   0.305 -0.2481  1.7294  0.4990
28287SOL    HW289709   8.878   0.553   0.249 -1.0967 -0.6735 -1.1163
28288SOL     OW89710   7.652   1.154   1.407 -0.8534 -0.3972  0.1449
28288SOL    HW189711   7.583   1.116   1.462 -2.8825  0.7563 -1.4853
28288SOL    HW289712   7.671   1.238   1.447 -0.4277 -0.6755  0.5414
28289SOL     OW89713   1.091   3.087   2.951 -0.3813 -0.0980 -0.4146
28289SOL    HW189714   1.111   3.144   2.876 -0.6517  2.1811  1.1504
28289SOL    HW289715   1.129   3.132   3.026 -1.0425 -1.7865  0.9936
28290SOL     OW89716   0.283   0.958   0.820 -0.7314 -0.6788 -0.0131
28290SOL    HW189717   0.345   0.908   0.872  2.1304  0.5982 -1.9048
28290SOL    HW289718   0.242   0.893   0.762  0.1338 -1.3257  0.0860
28291SOL     OW89719   1.061   9.337   2.670  0.3231 -0.0191 -0.1991
28291SOL    HW189720   1.118   9.414   2.673  0.6295 -0.2405 -0.3128
28291SOL    HW289721   1.069   9.304   2.580  1.8444 -1.4212  0.4091
28292SOL     OW89722   8.150   2.390   1.639  0.3758  0.0881 -0.1117
28292SOL    HW189723   8.186   2.449   1.705  1.1513  0.6609 -1.0080
28292SOL    HW289724   8.091   2.444   1.587  1.4713  0.2521 -1.2521
28293SOL     OW89725   6.808   9.548   4.068 -0.2634 -0.2663 -0.2824
28293SOL    HW189726   6.801   9.453   4.053 -2.3346 -0.0559 -0.9997
28293SOL    HW289727   6.792   9.559   4.161  1.1398 -0.6911  0.0274
28294SOL     OW89728   9.189   1.422   2.940 -0.2509 -0.0291 -0.1091
28294SOL    HW189729   9.248   1.431   3.015 -1.0784  1.2282  0.4354
28294SOL    HW289730   9.213   1.339   2.900  1.8451  0.4014  0.1219
28295SOL     OW89731   0.341   8.466   2.419 -0.1901 -0.7536 -0.2827
28295SOL    HW189732   0.287   8.419   2.483 -0.2018 -0.0614  0.2211
28295SOL    HW289733   0.331   8.558   2.442  3.4050 -0.6656  1.6546
28296SOL     OW89734   9.832   8.180   3.141  0.2558  0.1427 -0.1664
28296SOL    HW189735   9.765   8.144   3.200 -1.8966  0.1851 -2.4425
28296SOL    HW289736   9.893   8.107   3.128 -0.8390 -0.8071 -0.1569
28297SOL     OW89737   9.783   0.046   2.957  0.4373  0.2029 -0.0960
28297SOL    HW189738   9.832  -0.032   2.932 -0.4244  0.4989 -3.0128
28297SOL    HW289739   9.849   0.115   2.963  1.1858 -0.6306  2.3882
28298SOL     OW89740   1.169   0.728   5.064 -0.0735 -0.1268 -0.2436
28298SOL    HW189741   1.164   0.698   5.154 -0.4757  0.6927  0.0191
28298SOL    HW289742   1.082   0.710   5.028 -0.0211 -0.1367 -0.3665
28299SOL     OW89743   9.373   1.439   1.545 -0.0181 -0.0740  0.2410
28299SOL    HW189744   9.426   1.371   1.504  1.2794  1.4631 -0.7858
28299SOL    HW289745   9.406   1.446   1.634 -0.3309 -0.9292  0.4308
28300SOL     OW89746   7.217   2.686   0.357 -0.2146 -0.3558  0.0099
28300SOL    HW189747   7.215   2.741   0.279 -0.3856 -1.2124 -0.6047
28300SOL    HW289748   7.292   2.718   0.407 -2.5338  3.1118  1.7097
28301SOL     OW89749   0.206   3.013   1.422  0.2142 -0.1899 -0.7839
28301SOL    HW189750   0.118   3.046   1.400  0.8457  1.2251 -1.2730
28301SOL    HW289751   0.211   3.020   1.517  0.3205  1.1451 -0.8700
28302SOL     OW89752   0.348   0.758   2.836 -0.1541  0.0845  0.1503
28302SOL    HW189753   0.361   0.677   2.886 -1.4141  0.9275  1.9134
28302SOL    HW289754   0.348   0.828   2.901 -1.1691  1.3079 -1.0972
28303SOL     OW89755   8.146   0.922   5.527  0.2983 -0.6939 -1.0647
28303SOL    HW189756   8.235   0.921   5.494  1.6644 -0.1751  2.2273
28303SOL    HW289757   8.144   0.852   5.593 -0.9420  0.8546  0.6345
28304SOL     OW89758   8.952   0.583   2.640  0.4874  0.1181 -0.2157
28304SOL    HW189759   8.859   0.561   2.629  0.5178  0.2560 -0.7825
28304SOL    HW289760   8.957   0.623   2.727 -0.1273  0.8414 -0.5009
28305SOL     OW89761   8.950   0.986   2.832  0.5736 -0.3815  0.2428
28305SOL    HW189762   9.037   0.946   2.826 -0.4842 -2.8646  0.6006
28305SOL    HW289763   8.923   0.998   2.741  0.9665 -0.3190  0.1334
28306SOL     OW89764   0.336   1.853   2.475  0.0269  0.2944 -0.4593
28306SOL    HW189765   0.340   1.943   2.508  0.6311  0.4724 -0.9971
28306SOL    HW289766   0.274   1.809   2.533 -1.2589  1.3781 -0.9797
28307SOL     OW89767   1.831   2.202   2.083  0.3956  0.0824  0.2513
28307SOL    HW189768   1.756   2.146   2.102 -0.6441  1.3539  0.0515
28307SOL    HW289769   1.906   2.142   2.079 -0.5752 -1.1919  0.6179
28308SOL     OW89770   9.675   4.010   1.838 -0.2764  0.2158 -0.1515
28308SOL    HW189771   9.652   3.925   1.873 -1.2747  0.0968 -1.0366
28308SOL    HW289772   9.656   4.072   1.909  0.3708 -0.2781  0.4597
28309SOL     OW89773   0.790   1.179   6.071  0.2346  0.0612 -0.5280
28309SOL    HW189774   0.716   1.224   6.110  1.7294  2.4040 -0.2171
28309SOL    HW289775   0.756   1.093   6.046 -2.0568  0.3659  1.3038
28310SOL     OW89776   8.556   8.748   2.190 -0.2341 -0.1822 -0.6854
28310SOL    HW189777   8.488   8.713   2.131 -1.7210  0.0262  0.8254
28310SOL    HW289778   8.555   8.842   2.175  1.0071 -0.3358 -1.9253
28311SOL     OW89779   9.596   2.192   3.404  0.2543  0.0683  0.2796
28311SOL    HW189780   9.663   2.158   3.345 -1.1910 -1.9792 -0.2916
28311SOL    HW289781   9.639   2.264   3.450  2.8445 -1.1773 -0.0157
28312SOL     OW89782   1.097   1.003   3.306  0.4397  0.2234 -0.3677
28312SOL    HW189783   1.099   1.022   3.212  2.2343  2.5265  0.0613
28312SOL    HW289784   1.180   0.959   3.323 -0.4105 -1.3119 -0.0145
28313SOL     OW89785   1.182   1.065   2.770 -0.4225  0.3634  0.4014
28313SOL    HW189786   1.260   1.009   2.774 -1.6120 -1.4230 -0.5891
28313SOL    HW289787   1.160   1.080   2.862  0.6313  0.2548  0.6940
28314SOL     OW89788   0.409   0.521   3.668  0.6361  0.6715  0.1438
28314SOL    HW189789   0.337   0.459   3.663 -0.8746  2.0672  2.5431
28314SOL    HW289790   0.394   0.582   3.596 -0.1776  0.5311  0.1957
28315SOL     OW89791   7.593   0.395   2.949  0.0870  0.1553 -0.0074
28315SOL    HW189792   7.688   0.385   2.959  0.0894  0.7762  0.6655
28315SOL    HW289793   7.583   0.462   2.882  0.1162 -0.2602 -0.4305
28316SOL     OW89794   9.598   0.594   2.046 -0.2387  0.6058 -0.3809
28316SOL    HW189795   9.536   0.602   1.974  1.2129 -2.2049 -2.1553
28316SOL    HW289796   9.645   0.512   2.027  2.5631  1.5230  1.9587
28317SOL     OW89797   9.718   8.877   1.891  0.0780 -0.0524 -0.0218
28317SOL    HW189798   9.724   8.782   1.901  1.3555 -0.0161 -0.1544
28317SOL    HW289799   9.641   8.891   1.835  1.0818 -1.1776 -1.8156
28318SOL     OW89800   1.181   1.947   3.441  0.0979 -0.0817  0.5528
28318SOL    HW189801   1.272   1.976   3.449 -0.0953  0.3876  1.0952
28318SOL    HW289802   1.132   2.026   3.418 -0.1019 -0.4368 -0.2985
28319SOL     OW89803   9.440   1.865   3.972 -0.3098 -0.4379  0.4065
28319SOL    HW189804   9.465   1.845   3.881  1.3323 -1.5600  1.0532
28319SOL    HW289805   9.507   1.927   4.002 -0.1823 -0.9558  1.2018
28320SOL     OW89806   0.667   0.577   4.485  0.1189 -0.1358 -0.1482
28320SOL    HW189807   0.723   0.615   4.553  0.4126 -1.2582  0.2517
28320SOL    HW289808   0.609   0.649   4.459 -0.3164  0.1828  1.6197
28321SOL     OW89809   6.783   8.876   2.851  0.1399 -0.8333 -0.5231
28321SOL    HW189810   6.738   8.792   2.860 -1.2124 -0.0118  0.9189
28321SOL    HW289811   6.875   8.853   2.840 -0.0890 -2.5028  0.6494
28322SOL     OW89812   7.900   1.326   3.908 -0.2393  0.5398  0.1294
28322SOL    HW189813   7.918   1.264   3.838 -0.8327  1.1748 -0.6075
28322SOL    HW289814   7.832   1.383   3.872 -0.0237  1.3353  0.9509
28323SOL     OW89815   0.052   9.381   2.367 -0.3871 -0.4660 -0.1968
28323SOL    HW189816  -0.035   9.408   2.395 -0.8671 -1.2758 -0.8611
28323SOL    HW289817   0.065   9.295   2.407  0.8950  0.4307  1.4371
28324SOL     OW89818   9.261   3.580   2.951  0.1561  0.7488 -0.5652
28324SOL    HW189819   9.223   3.515   2.892  0.4278  1.0714 -1.1018
28324SOL    HW289820   9.356   3.565   2.945  0.1808  0.6787 -0.0860
28325SOL     OW89821   8.528   8.943   2.615 -0.4311  0.1480 -0.8809
28325SOL    HW189822   8.571   8.944   2.700  1.8698  0.0933 -1.9645
28325SOL    HW289823   8.468   8.868   2.619  1.1595 -1.1416  0.0110
28326SOL     OW89824   0.158   9.792   0.826  0.1165 -0.5745  0.2018
28326SOL    HW189825   0.207   9.737   0.765  0.2591  0.9614 -1.1524
28326SOL    HW289826   0.110   9.853   0.770 -1.5707 -0.5581  1.5713
28327SOL     OW89827   0.261   1.175   3.351  0.2359  0.1453 -0.3394
28327SOL    HW189828   0.221   1.250   3.395  1.0841  0.8608 -0.7582
28327SOL    HW289829   0.190   1.136   3.300 -0.5138 -0.0892  0.8329
28328SOL     OW89830   2.384   8.853   3.745  0.1024  0.2764  0.2080
28328SOL    HW189831   2.333   8.798   3.685  0.1539  1.5219 -1.0288
28328SOL    HW289832   2.342   8.939   3.741  1.1429  0.8294  0.6487
28329SOL     OW89833   8.497   9.834   4.794  0.4839 -0.5778 -0.0061
28329SOL    HW189834   8.512   9.907   4.734 -2.2963 -1.1807 -1.6141
28329SOL    HW289835   8.538   9.759   4.751 -0.2590 -0.7289 -0.4709
28330SOL     OW89836   9.367   1.565   4.884  0.7065 -0.5590  0.3565
28330SOL    HW189837   9.357   1.643   4.831 -0.8128  0.4362  1.9894
28330SOL    HW289838   9.416   1.504   4.829 -0.8809  0.3424 -2.2004
28331SOL     OW89839   7.770   1.908   5.191 -0.5489  0.6190  0.1859
28331SOL    HW189840   7.701   1.886   5.128 -0.0487  1.8079 -0.8333
28331SOL    HW289841   7.828   1.832   5.191 -1.8289 -0.3909  1.0528
28332SOL     OW89842   7.243   2.021   4.611 -0.2847  0.1162 -0.0661
28332SOL    HW189843   7.238   2.110   4.577 -1.4306  0.1671  0.2030
28332SOL    HW289844   7.301   2.027   4.687  0.7166  0.3661 -0.8300
28333SOL     OW89845   0.434   8.904   5.847  0.6280 -0.1186  0.7803
28333SOL    HW189846   0.339   8.891   5.849  0.5467 -1.4023 -2.9965
28333SOL    HW289847   0.470   8.817   5.865  0.9033 -0.4468 -1.1695
28334SOL     OW89848   0.188   5.033   5.392 -0.0570  0.7818 -0.0196
28334SOL    HW189849   0.246   5.057   5.320  0.7942 -0.1475  0.3222
28334SOL    HW289850   0.111   5.088   5.381 -0.4916 -0.1803 -2.3346
28335SOL     OW89851   9.082   1.260   5.899  0.1004  0.5518  0.3811
28335SOL    HW189852   9.174   1.262   5.871  0.3184  0.7339  1.0881
28335SOL    HW289853   9.055   1.169   5.884 -0.3061  1.0228 -1.9813
28336SOL     OW89854   8.807   0.361   4.134  0.0897 -0.0373 -0.2219
28336SOL    HW189855   8.873   0.293   4.144 -0.2726 -0.4693 -0.6924
28336SOL    HW289856   8.738   0.320   4.082 -0.1142  0.7036 -0.5574
28337SOL     OW89857   9.142   2.754   3.872 -0.3618  0.1697 -0.2120
28337SOL    HW189858   9.156   2.823   3.937  0.0789 -1.0989  1.0937
28337SOL    HW289859   9.207   2.772   3.804  0.4548  0.4548  0.6240
28338SOL     OW89860   9.067   2.534   2.572 -0.3127 -0.7903  0.0006
28338SOL    HW189861   9.086   2.471   2.642  0.2708  0.0678  0.6233
28338SOL    HW289862   9.149   2.580   2.558  0.1748 -2.2249 -2.6163
28339SOL     OW89863   1.651   1.659   4.692  0.3431  0.3023  0.6648
28339SOL    HW189864   1.696   1.738   4.720  0.2261  1.8521 -2.9995
28339SOL    HW289865   1.598   1.686   4.617 -1.3976 -2.8437  0.5766
28340SOL     OW89866   9.224   0.859   4.083  0.3092 -0.0704  0.5032
28340SOL    HW189867   9.297   0.797   4.076  1.7641  1.5855  0.2655
28340SOL    HW289868   9.248   0.917   4.155 -0.5973  0.7336  0.1807
28341SOL     OW89869   9.711   9.764   5.412 -0.5647  0.0257  0.7875
28341SOL    HW189870   9.737   9.682   5.455 -2.7081 -1.3330 -0.3136
28341SOL    HW289871   9.746   9.756   5.323 -1.3918 -0.0673  0.4593
28342SOL     OW89872   0.575   1.443   3.659 -0.2057  0.2013  0.2139
28342SOL    HW189873   0.562   1.536   3.674 -0.2108  0.6554 -2.1536
28342SOL    HW289874   0.490   1.412   3.627 -0.2718 -0.6960  1.1998
28343SOL     OW89875   1.962   9.579   4.676 -0.2406 -0.4909  0.3710
28343SOL    HW189876   1.945   9.655   4.621 -1.8432 -0.8177  0.3744
28343SOL    HW289877   1.880   9.529   4.675  1.0714 -2.7709 -0.4769
28344SOL     OW89878   0.024   1.988   5.522 -0.8912 -0.2389  0.0607
28344SOL    HW189879   0.113   1.960   5.500 -0.8433  0.5132 -0.7588
28344SOL    HW289880   0.036   2.053   5.591 -0.7938 -0.0358 -0.1469
28345SOL     OW89881   8.127   9.589   3.020  0.0114 -0.1482 -0.1761
28345SOL    HW189882   8.104   9.681   3.034  0.7265  0.0709 -0.4019
28345SOL    HW289883   8.215   9.580   3.057  0.8776 -0.1999 -2.1147
28346SOL     OW89884   8.542   1.600   5.696  0.0078  0.4637  0.4331
28346SOL    HW189885   8.483   1.567   5.764  0.5317  0.7100  1.0111
28346SOL    HW289886   8.555   1.526   5.637 -1.8272  0.7258 -0.3833
28347SOL     OW89887   7.202   0.198   4.576 -0.1367  0.0353 -0.3435
28347SOL    HW189888   7.176   0.237   4.660  2.8810  0.1125  0.6527
28347SOL    HW289889   7.267   0.259   4.541  0.6424 -1.3796 -1.4139
28348SOL     OW89890   8.283   0.647   2.867 -0.5621 -0.2152 -0.1371
28348SOL    HW189891   8.374   0.651   2.897 -0.9781 -0.9099  1.2528
28348SOL    HW289892   8.290   0.655   2.771  0.8029  1.7685  0.0592
28349SOL     OW89893   8.373   0.143   5.012  0.0153  0.0415  0.2850
28349SOL    HW189894   8.459   0.171   4.983 -0.2111 -0.3238 -0.7864
28349SOL    HW289895   8.335   0.100   4.936 -0.7906 -0.5391  0.9936
28350SOL     OW89896   0.463   8.660   3.655  0.5891 -0.0443  0.4322
28350SOL    HW189897   0.490   8.698   3.572  0.4794  0.6967  0.7284
28350SOL    HW289898   0.411   8.584   3.630  1.6896 -0.6258 -0.1533
28351SOL     OW89899   9.845   9.500   3.978  0.0361  0.0492  0.4608
28351SOL    HW189900   9.910   9.434   3.953 -0.0862  0.0434  0.1675
28351SOL    HW289901   9.795   9.517   3.899  0.7687  1.2957  0.2371
28352SOL     OW89902   9.687   1.936   6.088 -0.3732  0.4817 -0.0506
28352SOL    HW189903   9.677   1.975   6.175  0.2558  1.3450 -0.3576
28352SOL    HW289904   9.703   2.010   6.030  0.1415 -0.1752 -0.7653
28353SOL     OW89905   9.280   0.244   4.245 -0.1880  0.3769 -0.2440
28353SOL    HW189906   9.228   0.164   4.241 -1.9854  1.4962 -0.2083
28353SOL    HW289907   9.366   0.218   4.211 -0.9446 -1.3678 -0.9567
28354SOL     OW89908   9.161   9.548   4.943 -0.3091 -0.3613 -0.1547
28354SOL    HW189909   9.228   9.576   4.879 -2.7270  1.3709 -2.1353
28354SOL    HW289910   9.196   9.577   5.027  1.7434 -0.1483 -1.0004
28355SOL     OW89911   8.744   0.437   3.334  0.4455 -0.1555  0.0902
28355SOL    HW189912   8.832   0.401   3.336  0.0249 -1.4487 -1.8194
28355SOL    HW289913   8.736   0.475   3.246 -0.6265  0.6973  0.5287
28356SOL     OW89914   0.827   1.696   5.400 -0.2812 -0.2655 -0.0630
28356SOL    HW189915   0.789   1.729   5.481  0.9099 -1.7337  1.1615
28356SOL    HW289916   0.820   1.769   5.338 -0.8164  1.0477  1.4859
28357SOL     OW89917   9.764   9.809   3.250  0.1629 -0.0164 -0.6976
28357SOL    HW189918   9.809   9.796   3.166  2.2669  1.1477  0.1541
28357SOL    HW289919   9.821   9.870   3.298 -0.4055 -1.4364  1.9805
28358SOL     OW89920   8.901   0.301   5.030  0.0110  0.2666 -0.6320
28358SOL    HW189921   8.904   0.303   4.934  1.4650  1.5070 -0.6041
28358SOL    HW289922   8.967   0.235   5.054 -3.0540 -3.0309 -0.4611
28359SOL     OW89923   0.334   0.790   6.216 -0.0751  0.2463  0.1290
28359SOL    HW189924   0.267   0.859   6.214  1.0315  1.3521 -0.7396
28359SOL    HW289925   0.295   0.717   6.169 -1.7837 -0.2593  2.2158
28360SOL     OW89926   9.055   1.554   2.758  0.3406 -0.1800  0.7319
28360SOL    HW189927   8.997   1.492   2.716 -0.5974  0.9718  0.2825
28360SOL    HW289928   9.113   1.500   2.813 -1.9616 -1.2974  2.2118
28361SOL     OW89929   1.036   1.290   6.692 -0.0750  0.6658 -0.9096
28361SOL    HW189930   1.112   1.269   6.638 -0.7905  0.3710 -1.8457
28361SOL    HW289931   1.067   1.282   6.782  0.6970 -0.6666 -1.2580
28362SOL     OW89932   0.747   1.425   5.353  0.1768  0.1972  0.3919
28362SOL    HW189933   0.735   1.520   5.348  0.6524  0.2334 -0.0965
28362SOL    HW289934   0.708   1.392   5.271  0.0972 -0.0189  0.5177
28363SOL     OW89935   9.719   1.973   3.950 -0.4459 -0.0375 -0.3490
28363SOL    HW189936   9.729   1.966   4.045 -1.9042  2.4479  0.0979
28363SOL    HW289937   9.808   1.977   3.916  0.1087  0.6979  1.1226
28364SOL     OW89938   8.854   0.411   7.117  0.1934  0.0035 -0.6014
28364SOL    HW189939   8.814   0.328   7.091  1.1619  0.0437 -2.3846
28364SOL    HW289940   8.781   0.472   7.125 -0.5439 -1.0051  0.8719
28365SOL     OW89941   1.173   0.136   3.637  0.0910  0.5165 -0.0264
28365SOL    HW189942   1.256   0.169   3.604  0.6227 -0.0544  0.7091
28365SOL    HW289943   1.194   0.052   3.677 -0.9258  0.1358 -0.2531
28366SOL     OW89944   1.480   3.646   3.796 -0.4144 -0.5753 -0.3634
28366SOL    HW189945   1.495   3.692   3.879 -0.5077 -0.4933 -0.3917
28366SOL    HW289946   1.461   3.716   3.734  0.2123 -0.5905 -0.5811
28367SOL     OW89947   8.789   9.601   5.603 -0.3012 -0.0177  0.0184
28367SOL    HW189948   8.830   9.687   5.589  0.4527 -0.1481  1.3278
28367SOL    HW289949   8.847   9.556   5.664 -0.7579 -1.4247 -0.5417
28368SOL     OW89950   9.845   0.337   4.367  0.3138  0.3844 -0.5101
28368SOL    HW189951   9.905   0.390   4.419 -0.1875 -0.7711  1.3437
28368SOL    HW289952   9.897   0.261   4.341 -0.3328 -0.7467  1.3184
28369SOL     OW89953   9.821   1.023   5.630 -0.1769  0.2668  0.4170
28369SOL    HW189954   9.789   1.086   5.565  0.3626 -1.1368 -1.3086
28369SOL    HW289955   9.900   1.063   5.666 -0.1717  0.8338 -0.2093
28370SOL     OW89956   9.211   1.057   3.049 -0.1148 -0.7661  0.1028
28370SOL    HW189957   9.297   1.059   3.091  0.0629  1.8703 -0.2346
28370SOL    HW289958   9.225   1.100   2.964 -1.4715 -1.7073 -0.6459
28371SOL     OW89959   0.835   1.090   4.986  0.3778 -1.0854 -0.0012
28371SOL    HW189960   0.810   0.998   4.993 -1.6022 -0.5831  0.3912
28371SOL    HW289961   0.758   1.132   4.948  1.4753  0.3292 -0.7427
28372SOL     OW89962   0.115   1.535   6.455 -0.2079  0.3907 -0.7344
28372SOL    HW189963   0.172   1.579   6.519  0.8301 -1.2965 -0.4432
28372SOL    HW289964   0.175   1.507   6.385 -0.7961 -0.7087 -0.8209
28373SOL     OW89965   0.453   1.710   6.128 -0.3818  0.3965 -0.4928
28373SOL    HW189966   0.526   1.743   6.180 -0.4577 -1.4927  0.9136
28373SOL    HW289967   0.390   1.781   6.127 -0.5603  0.3948  2.4115
28374SOL     OW89968   8.300   0.748   4.197 -0.3993  0.1261 -0.4669
28374SOL    HW189969   8.367   0.686   4.227 -0.5541 -0.2310 -0.8554
28374SOL    HW289970   8.300   0.817   4.264  0.5658  0.2867 -0.6137
28375SOL     OW89971   9.425   0.049   3.299  0.3613 -0.1370  0.4252
28375SOL    HW189972   9.510   0.070   3.338  0.1448 -0.0404  0.8462
28375SOL    HW289973   9.398  -0.033   3.341  1.2716 -1.3831 -1.3194
28376SOL     OW89974   8.186   2.090   4.301  0.2970  0.1301 -0.1231
28376SOL    HW189975   8.244   2.091   4.225  1.2082  0.0230  0.5562
28376SOL    HW289976   8.120   2.155   4.281  1.1751  0.9210 -0.5200
28377SOL     OW89977   9.401   8.184   4.358 -0.0641 -0.2617 -0.4663
28377SOL    HW189978   9.355   8.261   4.325 -0.6656 -1.1866 -1.9126
28377SOL    HW289979   9.455   8.155   4.284 -1.2539 -2.2713 -0.6094
28378SOL     OW89980   0.169   0.391   3.982 -0.2475 -0.1488  0.1236
28378SOL    HW189981   0.197   0.358   3.897 -1.0605 -0.6926  0.0584
28378SOL    HW289982   0.190   0.320   4.044 -0.8212 -0.2681  0.1814
28379SOL     OW89983   9.801   3.046   4.921 -0.0575  0.2623  0.0925
28379SOL    HW189984   9.817   2.999   5.004  1.8770 -1.1601 -0.9924
28379SOL    HW289985   9.794   2.976   4.856 -2.5245  1.3163 -0.8620
28380SOL     OW89986   9.731   2.480   3.902 -0.0887 -0.5761  0.3924
28380SOL    HW189987   9.713   2.387   3.887 -1.6332 -0.2389 -0.0297
28380SOL    HW289988   9.706   2.495   3.993  0.0354 -0.5302  0.4202
28381SOL     OW89989   7.345   7.900   5.260  0.2305 -0.0723 -0.1063
28381SOL    HW189990   7.295   7.865   5.186  0.7852 -0.2900 -0.3887
28381SOL    HW289991   7.410   7.958   5.219 -0.7870  1.4503  0.3700
28382SOL     OW89992   9.437   1.469   6.481  0.0877 -0.0082  0.7192
28382SOL    HW189993   9.479   1.525   6.546 -0.2776 -2.1675  2.9541
28382SOL    HW289994   9.508   1.423   6.438  0.2339 -0.1447  1.1075
28383SOL     OW89995   0.628   1.311   5.130  0.1716 -0.1347 -0.0986
28383SOL    HW189996   0.638   1.309   5.034  0.4039  1.0963 -0.1107
28383SOL    HW289997   0.535   1.329   5.143  0.4736  1.6463 -0.1407
28384SOL     OW89998   8.496   1.435   3.642  0.5154 -0.1875  0.5308
28384SOL    HW189999   8.564   1.382   3.600 -0.7561 -1.9792  0.6241
28384SOL    HW290000   8.414   1.395   3.614 -0.4175 -0.5594  3.5090
28385SOL     OW90001   9.651   1.979   2.605  0.3067  0.0102  0.2003
28385SOL    HW190002   9.730   1.969   2.659  0.9294  1.3653 -0.4307
28385SOL    HW290003   9.646   1.898   2.555  0.9988 -0.3157  0.6440
28386SOL     OW90004   1.338   0.157   5.368  0.2590 -0.0160  0.1918
28386SOL    HW190005   1.424   0.131   5.400 -0.4860 -0.0660  2.2971
28386SOL    HW290006   1.276   0.104   5.418 -1.0348  0.7634 -0.5284
28387SOL     OW90007   7.254   8.923   3.595  0.3825 -0.4937  0.0992
28387SOL    HW190008   7.344   8.936   3.565 -0.1490 -0.9439 -1.8912
28387SOL    HW290009   7.217   9.011   3.599  0.4121 -0.4170 -0.8928
28388SOL     OW90010   8.979   0.917   4.379  0.3922  0.6204  0.0322
28388SOL    HW190011   9.071   0.913   4.402  0.9234  1.0682 -1.8638
28388SOL    HW290012   8.969   0.999   4.331 -0.7642  0.0764 -0.7095
28389SOL     OW90013   8.224   9.721   5.638 -0.6966  0.3846  0.0812
28389SOL    HW190014   8.251   9.787   5.574 -2.1242  0.0664 -0.8815
28389SOL    HW290015   8.297   9.658   5.639 -0.1458  0.9991 -0.3623
28390SOL     OW90016   8.830   0.384   9.285 -0.4856 -0.3618  0.0562
28390SOL    HW190017   8.864   0.301   9.320  0.6748 -0.1858 -0.6374
28390SOL    HW290018   8.896   0.413   9.223 -0.5455  1.4542  0.8003
28391SOL     OW90019   8.325   2.395   8.660  0.0129  0.1106 -0.3108
28391SOL    HW190020   8.307   2.307   8.693 -0.2793 -0.2103 -1.2958
28391SOL    HW290021   8.285   2.398   8.574  1.0660  0.8039 -0.8096
28392SOL     OW90022   9.390   0.886   6.130 -0.0651  0.3335 -0.1820
28392SOL    HW190023   9.338   0.959   6.163 -2.3292 -1.4220  0.3084
28392SOL    HW290024   9.337   0.848   6.061  0.2812 -1.8392  0.6803
28393SOL     OW90025   1.433   1.880   9.253  0.2210 -0.3512  0.2107
28393SOL    HW190026   1.429   1.951   9.188  1.3511 -1.0796 -0.6844
28393SOL    HW290027   1.345   1.842   9.252  0.3062 -0.5581 -1.1376
28394SOL     OW90028   1.308   0.244   6.275 -0.0068 -0.0010 -0.0409
28394SOL    HW190029   1.385   0.206   6.232  0.8347  0.1225  1.3097
28394SOL    HW290030   1.293   0.326   6.228  1.0826  0.2917  0.0877
28395SOL     OW90031   0.202   8.538   4.713 -0.9406  0.0207 -0.0436
28395SOL    HW190032   0.175   8.594   4.641 -1.2899  0.0116  0.0759
28395SOL    HW290033   0.231   8.457   4.672 -1.4936 -0.1244 -0.1539
28396SOL     OW90034   9.355   0.489   4.902  0.2675 -0.1158  0.6748
28396SOL    HW190035   9.382   0.419   4.842  2.1119  1.0468  0.0541
28396SOL    HW290036   9.411   0.563   4.879 -0.4052  1.0223  2.4876
28397SOL     OW90037   8.354   0.969   3.519  0.0311  0.1213  0.3980
28397SOL    HW190038   8.390   0.905   3.580 -0.1183  0.1103  0.4742
28397SOL    HW290039   8.403   0.955   3.438  1.2978  1.1473  0.9430
28398SOL     OW90040   8.120   0.254   5.891 -0.5501  0.2056 -0.2565
28398SOL    HW190041   8.097   0.346   5.901  0.3938  0.1897  3.7730
28398SOL    HW290042   8.209   0.248   5.926 -0.0487 -2.0611 -1.7142
28399SOL     OW90043   9.825   9.545   8.267  0.1356  0.4124  0.3733
28399SOL    HW190044   9.779   9.482   8.212 -1.6176  0.7656  1.3566
28399SOL    HW290045   9.808   9.516   8.356  0.7923  1.2871  0.7991
28400SOL     OW90046   8.989   0.377   5.719  0.1006  0.1925 -0.3102
28400SOL    HW190047   8.912   0.428   5.695 -0.1769 -0.5812 -1.1414
28400SOL    HW290048   9.012   0.330   5.639  0.2496 -1.1045  0.4597
28401SOL     OW90049   0.073   9.034   7.958 -0.5429 -0.0332  0.6709
28401SOL    HW190050   0.101   8.965   7.898  1.3485  0.8323  0.4961
28401SOL    HW290051   0.031   9.099   7.902  0.0658  0.1750  0.4483
28402SOL     OW90052   0.938   2.303   8.445  0.0685  0.0204  0.8731
28402SOL    HW190053   0.847   2.284   8.423 -0.0959 -0.9884  2.2620
28402SOL    HW290054   0.940   2.305   8.541  1.3512  0.8639  0.8549
28403SOL     OW90055   7.286   0.174   5.880 -0.0034  0.6812 -0.0892
28403SOL    HW190056   7.197   0.142   5.894 -0.5974  2.5151  0.4698
28403SOL    HW290057   7.279   0.269   5.883  1.6779  0.9347 -1.8921
28404SOL     OW90058   8.909   7.006   1.562  0.4140 -0.0961  0.3601
28404SOL    HW190059   8.833   6.951   1.579  0.9373 -1.0058 -0.1618
28404SOL    HW290060   8.983   6.956   1.596  0.9966 -0.0971 -0.8686
28405SOL     OW90061   1.248   8.274   6.969 -0.1337 -0.5328 -0.0915
28405SOL    HW190062   1.163   8.289   7.010  0.5121  1.6512  0.5714
28405SOL    HW290063   1.241   8.186   6.930 -2.1831 -0.9671  1.1243
28406SOL     OW90064   8.213   0.391   6.933 -0.0224 -0.2823  0.1433
28406SOL    HW190065   8.297   0.355   6.903 -0.0921 -0.9773  0.7639
28406SOL    HW290066   8.235   0.479   6.964  0.6197 -0.7337  0.9983
28407SOL     OW90067   0.683   3.324   7.480 -0.0346 -0.1140  0.0359
28407SOL    HW190068   0.589   3.337   7.487 -0.0108  0.4045 -0.4804
28407SOL    HW290069   0.692   3.239   7.437 -0.2888  0.2619 -0.7797
28408SOL     OW90070   1.857   0.797   5.969 -0.3670 -0.4138 -0.0547
28408SOL    HW190071   1.894   0.710   5.983 -0.2901 -0.2501  0.8255
28408SOL    HW290072   1.817   0.819   6.053  2.6176  1.8518  0.9249
28409SOL     OW90073   9.434   8.929   3.712  0.0607  0.3995 -0.6239
28409SOL    HW190074   9.404   9.019   3.727 -1.7212 -0.1196 -0.8569
28409SOL    HW290075   9.461   8.928   3.620 -0.9179  0.4621 -0.9298
28410SOL     OW90076   8.827   9.801   7.201 -0.4209  0.5944  0.7540
28410SOL    HW190077   8.867   9.750   7.131 -0.8260  1.9136 -0.4777
28410SOL    HW290078   8.900   9.829   7.256 -0.0086  0.2700  0.3744
28411SOL     OW90079   1.526   3.385   5.243  0.4464 -0.0756 -0.1046
28411SOL    HW190080   1.440   3.356   5.275  0.1844 -1.2743 -1.7610
28411SOL    HW290081   1.519   3.379   5.147  2.6090 -0.8697 -0.2623
28412SOL     OW90082   8.459   0.243   5.884 -0.3330  0.0391  0.0217
28412SOL    HW190083   8.427   0.275   5.969  0.6730  0.6590  0.1804
28412SOL    HW290084   8.516   0.169   5.907 -0.5625 -0.1967 -0.1645
28413SOL     OW90085   9.588   8.530   6.438  0.0847  0.0670  0.0851
28413SOL    HW190086   9.658   8.595   6.442  0.6585 -0.6028  2.4459
28413SOL    HW290087   9.618   8.466   6.373  0.4503  1.0636 -0.7592
28414SOL     OW90088   7.146   4.090   6.958  0.0165  0.6840  0.0671
28414SOL    HW190089   7.225   4.061   6.913  0.6951  1.4990  0.7078
28414SOL    HW290090   7.177   4.144   7.030 -1.1737  1.9463 -0.3219
28415SOL     OW90091   1.451   2.467   5.079 -0.6721  0.3175  0.6110
28415SOL    HW190092   1.389   2.538   5.095  1.1076  1.5808  2.3264
28415SOL    HW290093   1.524   2.508   5.033 -0.3193 -0.7581  0.1744
28416SOL     OW90094   0.940   9.103   5.911 -0.1960 -0.6264 -0.0096
28416SOL    HW190095   0.853   9.074   5.936 -0.7765  1.0613  0.0284
28416SOL    HW290096   0.945   9.194   5.940  1.0349 -0.2347 -1.3355
28417SOL     OW90097   0.303   8.464   6.968 -0.4728  0.6290  0.2086
28417SOL    HW190098   0.287   8.407   7.043 -0.7340  0.4371  0.0046
28417SOL    HW290099   0.315   8.405   6.894  0.9154  0.7611  0.2919
28418SOL     OW90100   9.248   2.486   4.358 -0.0701  0.5629 -0.0962
28418SOL    HW190101   9.244   2.549   4.286 -0.5697 -0.8390 -1.3679
28418SOL    HW290102   9.337   2.451   4.355  0.8883  2.5978  1.9333
28419SOL     OW90103   8.375   3.126   7.379  0.2157  0.4453 -0.1585
28419SOL    HW190104   8.410   3.058   7.322 -0.0672 -0.3754  0.6048
28419SOL    HW290105   8.344   3.195   7.320 -1.0806 -0.8593 -1.0743
28420SOL     OW90106   8.338   9.735   6.055  0.2123  0.0902 -0.2173
28420SOL    HW190107   8.367   9.782   5.977  3.5552  1.8561  1.8225
28420SOL    HW290108   8.297   9.803   6.109  2.9139  0.3233  1.7470
28421SOL     OW90109   9.190   1.498   4.452 -0.1503  0.7566  0.2596
28421SOL    HW190110   9.202   1.404   4.464  0.0127  0.6040 -0.9079
28421SOL    HW290111   9.278   1.535   4.464 -0.4242  0.9368  1.9447
28422SOL     OW90112   0.032   1.503   5.965 -0.5500 -0.2968  0.4117
28422SOL    HW190113  -0.022   1.440   5.917 -0.3869 -2.4819  2.8617
28422SOL    HW290114   0.122   1.471   5.954 -0.3254  0.2154  0.7130
28423SOL     OW90115   8.988   3.408   7.444  0.2743  0.2213  0.2126
28423SOL    HW190116   9.081   3.431   7.441  0.3827 -0.2138  0.1429
28423SOL    HW290117   8.984   3.320   7.405 -0.0393 -0.1717  1.1195
28424SOL     OW90118   9.647   0.969   4.632 -0.1057 -0.1050  0.0786
28424SOL    HW190119   9.593   0.965   4.711  0.9791 -0.4623  0.8108
28424SOL    HW290120   9.718   1.030   4.654  0.5820 -0.7330 -0.3754
28425SOL     OW90121   0.582   1.831   4.786 -0.0837  0.1985 -0.4004
28425SOL    HW190122   0.492   1.815   4.815  0.4962 -0.2296  1.3035
28425SOL    HW290123   0.631   1.847   4.867  1.4364  0.1244 -1.2603
28426SOL     OW90124   9.518   1.074   7.424 -0.6325 -0.6254  0.0022
28426SOL    HW190125   9.494   1.042   7.512 -0.4646  0.6947  0.5447
28426SOL    HW290126   9.517   1.169   7.432 -0.8550 -0.4781 -1.5097
28427SOL     OW90127   8.661   0.708   6.340  0.2724 -0.1344  0.4853
28427SOL    HW190128   8.617   0.730   6.258 -0.5410 -2.0675  0.3563
28427SOL    HW290129   8.625   0.623   6.365  1.0581  0.0559  2.4639
28428SOL     OW90130   0.282   3.646   6.728 -0.4495  0.5975  0.3982
28428SOL    HW190131   0.199   3.673   6.767 -1.6083 -0.8277 -0.9249
28428SOL    HW290132   0.341   3.635   6.802 -2.2218 -0.9690  1.6987
28429SOL     OW90133   0.402   8.691   8.004 -0.7613 -0.2665  0.2118
28429SOL    HW190134   0.463   8.713   7.933  0.0447 -0.9224  0.6809
28429SOL    HW290135   0.326   8.654   7.959  0.5058 -2.4576 -0.2698
28430SOL     OW90136   8.683   0.739   7.289  0.1907 -0.0903 -0.2548
28430SOL    HW190137   8.660   0.768   7.378 -0.3557  1.2121 -0.7975
28430SOL    HW290138   8.641   0.653   7.281 -2.4902  1.1153 -0.3058
28431SOL     OW90139   8.565   9.616   6.652  0.2947 -0.1655 -0.1227
28431SOL    HW190140   8.525   9.678   6.712  1.6329 -0.2388  0.8898
28431SOL    HW290141   8.503   9.543   6.647  0.2966 -0.2991  1.4480
28432SOL     OW90142   9.261   1.020   6.404  0.2703  0.3984 -0.5428
28432SOL    HW190143   9.204   1.040   6.478 -0.6921 -1.0995 -0.8378
28432SOL    HW290144   9.278   1.105   6.364 -0.8186  1.0148  0.2322
28433SOL     OW90145   0.327   8.658   4.382  0.3741 -0.2639 -0.0645
28433SOL    HW190146   0.246   8.681   4.428  0.7872 -2.0736  1.6950
28433SOL    HW290147   0.397   8.684   4.442  1.0912  0.4610 -1.1846
28434SOL     OW90148   5.980   2.001   7.035 -0.1124 -0.1354 -0.0675
28434SOL    HW190149   6.001   2.071   6.974 -1.2339 -0.9447 -1.4722
28434SOL    HW290150   6.064   1.968   7.065  0.4351  1.2445 -0.0454
28435SOL     OW90151   0.557   5.042   8.517 -0.9434 -0.2792  0.1264
28435SOL    HW190152   0.578   4.989   8.593  0.0525  1.7568  1.3629
28435SOL    HW290153   0.491   5.104   8.549 -0.6298  0.4966 -0.6920
28436SOL     OW90154   0.251   9.608   7.704  0.4601 -0.3176 -0.2565
28436SOL    HW190155   0.271   9.701   7.705 -0.8095 -0.0072 -1.1042
28436SOL    HW290156   0.161   9.603   7.672  0.8729 -1.8965 -1.3134
28437SOL     OW90157   0.646   6.896   0.664 -0.2597  0.3534 -0.0656
28437SOL    HW190158   0.575   6.846   0.624 -0.9329  0.9368  0.3745
28437SOL    HW290159   0.711   6.830   0.689  0.0735 -0.0556 -1.8530
28438SOL     OW90160   8.579   0.423   6.282  0.0551  0.3647 -0.0955
28438SOL    HW190161   8.494   0.449   6.245  0.7283 -0.3550 -2.3528
28438SOL    HW290162   8.566   0.333   6.311 -0.1789  0.5468  0.3700
28439SOL     OW90163   6.914   2.287   8.633 -0.1259 -0.1655  0.3914
28439SOL    HW190164   6.920   2.208   8.579 -2.4557  0.7423 -1.3739
28439SOL    HW290165   7.004   2.318   8.641  0.4824 -1.1417 -1.8296
28440SOL     OW90166   0.587   9.477   5.253  0.2505 -0.7905 -0.0336
28440SOL    HW190167   0.518   9.498   5.190  0.3933  1.1854  0.4033
28440SOL    HW290168   0.602   9.384   5.241 -2.1174 -1.1886 -0.5225
28441SOL     OW90169   0.536   2.452   6.841 -0.6267 -0.2225 -0.3331
28441SOL    HW190170   0.513   2.386   6.775 -0.7529  0.2646 -0.7819
28441SOL    HW290171   0.456   2.465   6.891 -1.0409  0.6584 -1.1865
28442SOL     OW90172   9.259   3.394   6.546 -0.3963 -0.5417  0.3922
28442SOL    HW190173   9.251   3.300   6.561  0.6611 -0.3423  2.5788
28442SOL    HW290174   9.348   3.415   6.576 -0.6259  1.1657 -0.0325
28443SOL     OW90175   8.464   9.532   5.631 -0.2955  0.2948  0.4336
28443SOL    HW190176   8.453   9.523   5.536 -1.3652  1.0770  0.4659
28443SOL    HW290177   8.553   9.565   5.642  0.4403 -1.3928 -0.1795
28444SOL     OW90178   0.963   1.821   7.482 -0.3715 -0.2185  0.0024
28444SOL    HW190179   0.936   1.752   7.421  2.1457 -0.8308 -0.5319
28444SOL    HW290180   1.011   1.884   7.429  0.8829 -0.1733  1.1346
28445SOL     OW90181   8.168   9.315   6.166  0.1239 -0.3752  0.0513
28445SOL    HW190182   8.114   9.365   6.104  1.2857  1.2008  0.2584
28445SOL    HW290183   8.258   9.334   6.140  0.6081 -1.3890  0.9217
28446SOL     OW90184   9.550   9.448   5.367  0.4622  0.0456  0.0242
28446SOL    HW190185   9.481   9.465   5.430 -0.2484  0.2441 -0.7927
28446SOL    HW290186   9.543   9.519   5.304 -0.0017 -1.0958 -1.2581
28447SOL     OW90187   9.153   3.041   6.018 -0.0091  0.2680 -0.5100
28447SOL    HW190188   9.111   2.996   5.945  0.6870  0.4254 -1.0200
28447SOL    HW290189   9.200   2.972   6.064 -1.3648 -0.0384  0.4827
28448SOL     OW90190   0.493   2.939   4.547 -0.3417  0.1807  0.5102
28448SOL    HW190191   0.553   2.866   4.561  0.6910  0.9286  0.0672
28448SOL    HW290192   0.411   2.911   4.589 -0.2256 -1.5613 -0.3099
28449SOL     OW90193   0.247   1.155   8.753 -0.1672 -0.3321  0.3569
28449SOL    HW190194   0.196   1.184   8.677  1.0005  1.4335  0.1929
28449SOL    HW290195   0.215   1.209   8.825 -1.1648 -1.8970  1.1513
28450SOL     OW90196   9.224   9.079   7.416  0.6358  0.1687  0.1596
28450SOL    HW190197   9.203   9.013   7.351  0.2023  0.6198 -0.1609
28450SOL    HW290198   9.228   9.031   7.499  0.2387 -0.2418 -0.0575
28451SOL     OW90199   8.525   0.291   8.019 -0.4080  0.3961  0.4464
28451SOL    HW190200   8.480   0.208   8.036  1.7988 -0.6017  1.9198
28451SOL    HW290201   8.513   0.307   7.926 -2.3457 -0.6616  0.4739
28452SOL     OW90202   9.031   8.701   6.386  0.0659 -0.1058 -0.0306
28452SOL    HW190203   9.119   8.718   6.420 -0.2412 -1.8894  1.8296
28452SOL    HW290204   8.978   8.774   6.418  0.3693 -0.3163  0.9889
28453SOL     OW90205   1.994   9.826   6.492 -0.4349  0.4430  0.4543
28453SOL    HW190206   1.922   9.846   6.552 -1.7316 -1.4580 -0.3509
28453SOL    HW290207   1.975   9.877   6.413  0.4692  1.8076  1.0846
28454SOL     OW90208   0.743   9.769   6.842 -0.0054 -0.0137 -0.0502
28454SOL    HW190209   0.775   9.838   6.784  0.3042 -0.3976 -0.3482
28454SOL    HW290210   0.815   9.754   6.904  0.3874 -0.8261 -0.6753
28455SOL     OW90211   8.416   2.112   7.259  0.0774 -0.3428  0.2192
28455SOL    HW190212   8.439   2.034   7.310 -0.6396 -2.1355 -2.0575
28455SOL    HW290213   8.492   2.128   7.204  0.4226  0.9516  1.0123
28456SOL     OW90214   8.350   0.649   6.359 -0.0686 -0.0039 -0.0909
28456SOL    HW190215   8.378   0.734   6.326 -0.5829 -0.1864 -1.0499
28456SOL    HW290216   8.359   0.591   6.283  0.2830 -0.8025  0.5515
28457SOL     OW90217   1.076   0.524   6.244  0.1411 -0.1301  0.2265
28457SOL    HW190218   1.064   0.430   6.257 -0.7325 -0.2205 -1.0566
28457SOL    HW290219   0.987   0.558   6.232  0.4522  0.8622  0.6529
28458SOL     OW90220   9.771   9.645   6.249  0.6056 -0.1493  0.2939
28458SOL    HW190221   9.779   9.550   6.260  0.7866 -0.8636 -4.3087
28458SOL    HW290222   9.856   9.679   6.277  0.3597 -1.1824  2.5156
28459SOL     OW90223   9.754   0.234   5.269 -0.3569  0.2115 -0.3974
28459SOL    HW190224   9.771   0.160   5.212  1.9933  0.3162  0.0899
28459SOL    HW290225   9.678   0.277   5.230  0.8977  0.0585 -3.2242
28460SOL     OW90226   9.405   9.569   4.790  0.0131  0.3827 -0.1315
28460SOL    HW190227   9.462   9.645   4.801  0.0644  0.6992 -2.1957
28460SOL    HW290228   9.397   9.559   4.695 -0.1596 -2.0737  0.0899
28461SOL     OW90229   6.899   0.239   8.009  0.1427  0.3406 -0.1522
28461SOL    HW190230   6.874   0.261   8.099  2.3117 -0.3621  0.6986
28461SOL    HW290231   6.848   0.160   7.989  0.6356 -0.3075  1.0243
28462SOL     OW90232   8.634   1.307   8.512 -0.1669 -0.3406 -0.6207
28462SOL    HW190233   8.664   1.313   8.421  1.7062  0.8218  0.0036
28462SOL    HW290234   8.707   1.266   8.558  0.8922  3.0515  1.0923
28463SOL     OW90235   7.725   6.729   7.786 -0.0014 -0.2224 -0.3664
28463SOL    HW190236   7.815   6.740   7.756  0.1622 -0.0008  0.1824
28463SOL    HW290237   7.715   6.795   7.856  0.3639 -2.1485  1.6188
28464SOL     OW90238   8.931   1.917   8.998 -0.2672 -0.3550 -0.1455
28464SOL    HW190239   8.937   1.995   8.942 -0.6667  0.5651  1.0512
28464SOL    HW290240   8.841   1.917   9.030  0.0813 -0.5931  0.8742
28465SOL     OW90241   1.823   8.415   9.503  0.3011 -0.0964 -0.5819
28465SOL    HW190242   1.912   8.450   9.510 -0.3841  1.4459  1.0470
28465SOL    HW290243   1.773   8.482   9.457 -1.2745  1.8669  3.5101
28466SOL     OW90244   0.517   0.957   9.430  0.8878 -0.3236  1.1690
28466SOL    HW190245   0.519   0.884   9.367  1.1399  0.5251  0.1525
28466SOL    HW290246   0.427   0.987   9.430  1.1658  0.5787  0.1027
28467SOL     OW90247   9.701   8.906   9.152  0.1200  0.5279  0.5093
28467SOL    HW190248   9.781   8.904   9.205  0.8609  0.2831 -0.5823
28467SOL    HW290249   9.643   8.966   9.198  0.9500  0.7314  1.3089
28468SOL     OW90250   0.123   1.927   4.803  0.1273 -0.1560  0.4931
28468SOL    HW190251   0.048   1.984   4.784  1.1122  1.2496  0.6957
28468SOL    HW290252   0.129   1.870   4.727 -0.0854  0.8930 -0.3331
28469SOL     OW90253   0.680   1.321   7.973 -0.7529  0.5850  0.5661
28469SOL    HW190254   0.729   1.312   7.891 -2.2742  0.2906 -0.3467
28469SOL    HW290255   0.602   1.267   7.961 -1.3049  1.0137  1.9848
28470SOL     OW90256   9.658   3.045   6.654 -0.5414 -0.3560 -0.0332
28470SOL    HW190257   9.716   3.096   6.597 -0.1908 -0.2969  0.3676
28470SOL    HW290258   9.716   2.979   6.693 -0.7259 -0.2531  0.4241
28471SOL     OW90259   9.449   8.657   0.346  0.0622  0.2070  0.6971
28471SOL    HW190260   9.421   8.617   0.428 -1.4173  0.6938  0.4530
28471SOL    HW290261   9.450   8.751   0.364 -0.0840  0.3045  0.2126
28472SOL     OW90262   9.742   1.469   8.781 -0.2295 -0.0921  0.0784
28472SOL    HW190263   9.745   1.559   8.812  0.8720  0.6851 -2.0528
28472SOL    HW290264   9.810   1.465   8.714  1.1902 -3.0774  1.4809
28473SOL     OW90265   9.126   9.718   5.641 -0.5374  0.2322 -0.1781
28473SOL    HW190266   9.173   9.651   5.691 -2.1669  0.4764  1.8006
28473SOL    HW290267   9.105   9.676   5.558 -1.7086 -1.8220  1.0843
28474SOL     OW90268   9.636   2.249   7.865  0.5598 -0.0469 -0.3558
28474SOL    HW190269   9.549   2.285   7.851  0.0923 -0.5688  1.1147
28474SOL    HW290270   9.690   2.290   7.797 -0.5066  1.3901 -0.3735
28475SOL     OW90271   0.190   1.256   1.185 -0.1464  0.1864 -0.0084
28475SOL    HW190272   0.169   1.308   1.263 -0.5207 -0.7218  0.5187
28475SOL    HW290273   0.148   1.171   1.201  0.4468 -0.2804 -0.8419
28476SOL     OW90274   9.445   2.756   2.354 -0.3309 -0.0409  0.5830
28476SOL    HW190275   9.528   2.729   2.392  0.3549  2.2684  0.8697
28476SOL    HW290276   9.383   2.753   2.427 -0.3047 -0.8878  0.5782
28477SOL     OW90277   1.805   9.082   1.279  0.5059 -0.3595  0.8360
28477SOL    HW190278   1.802   9.172   1.311  0.6766 -0.0330 -0.0337
28477SOL    HW290279   1.890   9.075   1.235 -0.8998  0.1721 -2.2046
28478SOL     OW90280   8.103   0.652   9.629  0.1386 -0.2789 -0.0805
28478SOL    HW190281   8.094   0.601   9.548 -0.2612 -0.1173 -0.1385
28478SOL    HW290282   8.050   0.731   9.614  0.2037 -0.1660  0.2716
28479SOL     OW90283   0.190   1.377   0.080 -0.1116  0.1187  0.1545
28479SOL    HW190284   0.211   1.290   0.112  1.4348 -0.5961 -2.5260
28479SOL    HW290285   0.096   1.374   0.062  0.0169 -1.2047 -0.4018
28480SOL     OW90286   8.231   1.924   6.316 -0.2691 -0.1984  0.0909
28480SOL    HW190287   8.283   1.933   6.235  0.8084  0.5120  0.8341
28480SOL    HW290288   8.193   2.011   6.330 -0.5770 -0.3607  0.2713
28481SOL     OW90289   2.906   1.349   6.787  0.6148  0.4513 -0.3368
28481SOL    HW190290   2.936   1.418   6.728  0.3169  0.0271 -1.0014
28481SOL    HW290291   2.901   1.271   6.731  1.6771 -0.2945  0.5548
28482SOL     OW90292   9.508   3.051   8.214  0.2753 -0.0868  0.3112
28482SOL    HW190293   9.510   3.075   8.306  0.5384  0.3947  0.1791
28482SOL    HW290294   9.502   2.955   8.215  0.5891 -0.1046  0.8228
28483SOL     OW90295   8.755   1.635   8.907  0.4801  0.5621  0.3323
28483SOL    HW190296   8.800   1.707   8.864  0.8765  0.4541  0.5625
28483SOL    HW290297   8.694   1.601   8.840  1.6204 -0.0937 -0.4142
28484SOL     OW90298   0.789   0.998   0.293 -0.1211 -0.0829 -0.1255
28484SOL    HW190299   0.721   0.939   0.261 -0.4835 -0.6800  1.6533
28484SOL    HW290300   0.742   1.067   0.339  0.3736  0.9094 -1.0508
28485SOL     OW90301   7.454   2.681   7.166 -0.3139 -0.3262  0.4161
28485SOL    HW190302   7.421   2.634   7.089 -1.8589  2.5199 -0.7925
28485SOL    HW290303   7.392   2.658   7.236 -0.8743 -0.3166 -0.0680
28486SOL     OW90304   8.040   1.416   6.613  0.3312  0.1934  0.5818
28486SOL    HW190305   8.101   1.490   6.617 -1.0270  1.4291 -0.7763
28486SOL    HW290306   8.067   1.366   6.537  0.1518  0.2837  0.4586
28487SOL     OW90307   0.232   8.712   6.494 -0.9854  0.5699  0.4447
28487SOL    HW190308   0.232   8.778   6.563  1.4615  2.7023 -1.3806
28487SOL    HW290309   0.153   8.732   6.443 -0.8902  1.3611  0.5886
28488SOL     OW90310   9.761   9.385   0.046  0.2839 -0.0658  0.1767
28488SOL    HW190311   9.812   9.315   0.006  1.5395  0.9239 -0.0214
28488SOL    HW290312   9.782   9.463  -0.005 -0.1695  0.6915  1.1123
28489SOL     OW90313   9.569   1.919   9.063  0.3607  0.0463 -0.2627
28489SOL    HW190314   9.626   1.995   9.069 -0.7651  0.8282  0.9469
28489SOL    HW290315   9.488   1.952   9.022  0.8310 -1.1142 -2.2977
28490SOL     OW90316   1.643   2.505   8.383 -0.7549  0.0577  0.0525
28490SOL    HW190317   1.640   2.410   8.367 -1.4467  0.1222 -0.2289
28490SOL    HW290318   1.646   2.543   8.295  1.6952  0.2614  0.1430
28491SOL     OW90319   9.355   9.660   7.241  0.2988  0.0837  0.1383
28491SOL    HW190320   9.370   9.583   7.296  0.2032  1.7338  2.6171
28491SOL    HW290321   9.266   9.688   7.263  0.1568  0.6510 -1.0964
28492SOL     OW90322   8.482   1.161   9.127  0.1303 -0.1965  0.2086
28492SOL    HW190323   8.456   1.251   9.147  0.9766  0.2411 -0.6300
28492SOL    HW290324   8.561   1.169   9.075 -0.2782 -1.4012 -0.6534
28493SOL     OW90325   1.668   0.382   6.938 -0.2341 -0.4361 -0.1742
28493SOL    HW190326   1.763   0.388   6.948 -0.0822 -0.6883 -1.3942
28493SOL    HW290327   1.650   0.288   6.940 -0.2707 -0.4711 -1.4285
28494SOL     OW90328   9.783   1.258   9.735 -0.4741  0.2522  0.2654
28494SOL    HW190329   9.761   1.186   9.793 -0.1367  0.1674  0.2921
28494SOL    HW290330   9.763   1.337   9.786 -2.2573  0.1998 -0.3065
28495SOL     OW90331   0.070   8.648   5.475  0.8649  0.6504 -0.1707
28495SOL    HW190332   0.073   8.583   5.545  0.0623  0.8076  0.0237
28495SOL    HW290333   0.147   8.630   5.422 -0.9585 -2.6299 -2.0466
28496SOL     OW90334   7.257   2.115   7.308 -0.4028 -0.2306 -0.2678
28496SOL    HW190335   7.185   2.176   7.326 -0.3167 -0.0472 -0.5385
28496SOL    HW290336   7.228   2.066   7.231 -1.0480 -1.4496  0.7192
28497SOL     OW90337   0.434   9.486   9.333  0.0193 -0.3081 -0.2148
28497SOL    HW190338   0.351   9.527   9.313 -0.1910 -0.8264 -0.4208
28497SOL    HW290339   0.469   9.536   9.407 -0.7043 -0.3979  0.1894
28498SOL     OW90340   9.761   1.802   5.808 -0.3004 -0.1256  0.1516
28498SOL    HW190341   9.761   1.892   5.777 -1.2597 -0.3008 -0.3927
28498SOL    HW290342   9.826   1.758   5.753  1.0682  0.4710  1.2214
28499SOL     OW90343   1.670   1.401   0.330 -0.0119  0.1660  0.0324
28499SOL    HW190344   1.713   1.434   0.251  0.0414  0.0892  0.0286
28499SOL    HW290345   1.712   1.316   0.345  0.4290  0.4623  0.5071
28500SOL     OW90346   0.889   0.006   8.507 -0.0798 -0.2424  0.1313
28500SOL    HW190347   0.805  -0.020   8.470 -1.6102  0.9964  2.5109
28500SOL    HW290348   0.938  -0.076   8.516 -2.0880 -1.3967  1.1793
28501SOL     OW90349   8.789   9.808   8.920  0.5798 -0.7925  0.1595
28501SOL    HW190350   8.825   9.735   8.871  0.9370 -0.6262  0.1754
28501SOL    HW290351   8.842   9.884   8.894 -0.7293 -0.2312 -1.0059
28502SOL     OW90352   8.926   1.402   8.689  0.1685 -0.8308  0.1318
28502SOL    HW190353   9.017   1.427   8.705  0.0623 -0.4917  0.2224
28502SOL    HW290354   8.883   1.484   8.662 -0.2339 -0.8663  0.6450
28503SOL     OW90355   2.492   0.029   7.859 -0.2382 -0.3717 -0.3695
28503SOL    HW190356   2.456   0.075   7.935 -0.2590 -0.5724 -0.2590
28503SOL    HW290357   2.517   0.099   7.799  0.8257 -0.1767  0.2879
28504SOL     OW90358   8.324   1.892   9.375  0.1518  0.3527 -0.1584
28504SOL    HW190359   8.376   1.833   9.429  1.0623  1.8132  0.6318
28504SOL    HW290360   8.292   1.837   9.303  1.3777 -0.9750  0.2595
28505SOL     OW90361   1.371   0.439   7.634 -0.0505 -0.5430 -0.0551
28505SOL    HW190362   1.390   0.521   7.589  0.2504 -0.5732  0.0142
28505SOL    HW290363   1.351   0.466   7.724 -1.8048 -0.3700 -0.4683
28506SOL     OW90364   9.088   0.528   7.023  0.0191 -0.7499 -0.0652
28506SOL    HW190365   9.117   0.591   7.089  2.2964 -1.3284 -0.4324
28506SOL    HW290366   9.007   0.491   7.060 -0.6063  1.3184  0.7999
28507SOL     OW90367   2.381   0.827   9.301 -0.0524  0.2401  0.1105
28507SOL    HW190368   2.308   0.887   9.284 -0.1535 -0.2089 -1.1224
28507SOL    HW290369   2.423   0.815   9.216  0.8617 -0.2936  0.6204
28508SOL     OW90370   0.857   9.162   8.328  0.6019  0.1620  0.3760
28508SOL    HW190371   0.816   9.095   8.382 -0.1149 -0.5823 -1.0328
28508SOL    HW290372   0.795   9.235   8.329 -0.3648 -0.5945 -0.9686
28509SOL     OW90373   2.069   7.878   9.109  0.0256 -0.2925  0.5317
28509SOL    HW190374   2.087   7.788   9.135 -2.9192 -1.0222  0.3802
28509SOL    HW290375   1.987   7.899   9.153 -0.3578  1.6436 -0.9865
28510SOL     OW90376   9.551   3.505   7.700 -0.1059  0.6093  0.8044
28510SOL    HW190377   9.602   3.552   7.766  1.4943  0.3127 -0.1621
28510SOL    HW290378   9.492   3.450   7.750  0.6876  0.7855  1.9879
28511SOL     OW90379   9.664   1.849   6.561  0.3004  0.1492  0.1585
28511SOL    HW190380   9.677   1.786   6.490 -1.3473  0.4428 -0.4374
28511SOL    HW290381   9.744   1.903   6.560 -0.0926  0.7875 -2.1392
28512SOL     OW90382   8.736   9.309   0.444  0.1567 -0.3141 -0.3599
28512SOL    HW190383   8.758   9.304   0.537  0.2390 -0.7419 -0.3994
28512SOL    HW290384   8.795   9.375   0.409 -0.5649  0.6053  0.0838
28513SOL     OW90385   7.840   9.029   0.882  0.1514 -0.2539  0.3404
28513SOL    HW190386   7.932   9.048   0.897  0.0075 -0.1965  1.2447
28513SOL    HW290387   7.813   8.978   0.959 -0.8387  0.6908  0.6529
28514SOL     OW90388   8.343   0.243   8.335  0.1409 -0.0620 -0.1942
28514SOL    HW190389   8.253   0.276   8.335 -0.3579 -1.1315  2.5701
28514SOL    HW290390   8.338   0.159   8.380  1.9005 -2.3848 -3.8372
28515SOL     OW90391   9.253   2.362   9.789  0.2795  0.2397  0.3458
28515SOL    HW190392   9.302   2.365   9.871  0.9112 -0.7028  0.0176
28515SOL    HW290393   9.276   2.444   9.744 -1.7692  1.8643  2.0101
28516SOL     OW90394   9.822   8.759   6.430  0.3526  0.4926  0.1041
28516SOL    HW190395   9.759   8.832   6.431  0.7380  0.8439  1.7030
28516SOL    HW290396   9.812   8.719   6.517  0.8673 -0.7386 -0.4002
28517SOL     OW90397   0.284   0.595   8.722  0.7585  0.0256 -0.6857
28517SOL    HW190398   0.270   0.689   8.738  1.2295  0.1797 -1.1381
28517SOL    HW290399   0.349   0.569   8.787  0.8750  0.0901 -0.7763
28518SOL     OW90400   9.592   1.486   7.739 -0.1706  0.3940  0.1310
28518SOL    HW190401   9.550   1.572   7.745 -0.5873  0.1043  1.9781
28518SOL    HW290402   9.677   1.499   7.782 -1.1284 -0.5769  2.5280
28519SOL     OW90403   8.509   9.061   9.479  0.0393  0.2644  0.5880
28519SOL    HW190404   8.541   9.113   9.405  3.4965 -0.7737  1.1635
28519SOL    HW290405   8.534   9.111   9.557  0.4033 -0.6585  1.0830
28520SOL     OW90406   8.912   0.269   7.399 -0.6361  0.5857 -0.0288
28520SOL    HW190407   8.906   0.286   7.493 -1.3322  1.3303 -0.1896
28520SOL    HW290408   8.908   0.356   7.359 -0.3035  0.2797 -0.7515
28521SOL     OW90409   0.024   8.969   9.564 -0.4105 -0.1907  0.2089
28521SOL    HW190410   0.039   8.932   9.651  1.6578 -0.7878 -0.3546
28521SOL    HW290411   0.065   9.056   9.568  1.0271 -0.8052 -0.5835
28522SOL     OW90412   1.299   1.824   5.390 -0.0279 -0.0506  0.0922
28522SOL    HW190413   1.346   1.806   5.309 -1.3171  2.7083 -1.3947
28522SOL    HW290414   1.207   1.825   5.365 -0.4637  0.8355  1.5904
28523SOL     OW90415   0.214   9.727   9.517  0.5295 -0.5260  0.1161
28523SOL    HW190416   0.194   9.783   9.592  1.3109  1.3794 -1.0186
28523SOL    HW290417   0.234   9.788   9.447  1.2298 -2.2686 -1.2655
28524SOL     OW90418   0.144   1.701   6.770  0.0206  0.2050 -0.0340
28524SOL    HW190419   0.178   1.655   6.846  2.4257  2.4368  0.3850
28524SOL    HW290420   0.203   1.676   6.699 -0.1409  0.7300 -0.3532
28525SOL     OW90421   7.338   8.645   7.811  0.3790 -0.0798  0.9525
28525SOL    HW190422   7.361   8.647   7.903 -0.6918 -0.2556  1.2367
28525SOL    HW290423   7.293   8.729   7.795  0.2339 -0.2060  0.6841
28526SOL     OW90424   9.635   1.081   0.738  0.1212  0.1818  0.0404
28526SOL    HW190425   9.675   1.113   0.818  1.6874  0.6558 -0.8827
28526SOL    HW290426   9.644   1.154   0.676  1.8323 -1.2200 -1.4765
28527SOL     OW90427   1.093   9.178   6.741 -0.3237  0.0978 -0.9045
28527SOL    HW190428   1.123   9.162   6.831 -1.0782  0.6986 -0.5346
28527SOL    HW290429   1.165   9.147   6.686  2.0797  3.5962 -0.0500
28528SOL     OW90430   8.304   9.859   9.014 -0.1416  0.1869  0.3058
28528SOL    HW190431   8.290   9.791   9.081 -0.7207  0.3384  0.3447
28528SOL    HW290432   8.273   9.818   8.933  2.2046 -0.6563 -0.2313
28529SOL     OW90433   1.233   2.749   9.742 -0.1737  0.5470 -0.3121
28529SOL    HW190434   1.150   2.790   9.767 -1.7763 -2.6205  0.0733
28529SOL    HW290435   1.272   2.721   9.826  0.3255  0.3118 -0.6154
28530SOL     OW90436   0.167   1.334   7.990  0.6537  0.8592 -0.2089
28530SOL    HW190437   0.101   1.350   7.922  0.5215  0.8792 -0.0754
28530SOL    HW290438   0.241   1.389   7.965  1.7722 -1.2706 -1.9761
28531SOL     OW90439   1.217   8.229   9.568  0.0178 -0.1917 -0.1050
28531SOL    HW190440   1.126   8.199   9.567  0.2018 -0.7749  0.2423
28531SOL    HW290441   1.236   8.244   9.660  0.1200  0.4190 -0.2216
28532SOL     OW90442   9.833   1.532   0.644  0.0577 -0.0733 -0.0992
28532SOL    HW190443   9.884   1.604   0.680 -1.5377  1.2627 -0.3959
28532SOL    HW290444   9.793   1.568   0.565  0.2334 -1.6848 -0.9586
28533SOL     OW90445   9.790   1.493   8.306  0.1363  0.0140 -0.0145
28533SOL    HW190446   9.696   1.482   8.315  0.2668  0.1602  2.0798
28533SOL    HW290447   9.810   1.572   8.358  1.5912 -0.9332  0.9509
28534SOL     OW90448   0.087   2.869   0.389  0.3650  0.4593 -0.4677
28534SOL    HW190449   0.153   2.848   0.323 -1.5483  0.5635 -2.5453
28534SOL    HW290450   0.003   2.862   0.343 -0.9878  2.3289  1.4782
28535SOL     OW90451   1.503   1.842   7.721  0.9609 -0.0116 -0.5413
28535SOL    HW190452   1.475   1.756   7.689  2.2797 -1.8689  2.8101
28535SOL    HW290453   1.434   1.902   7.693 -1.6967 -2.7229 -0.2563
28536SOL     OW90454   1.133   1.352   0.001 -0.0913 -0.3196  0.0487
28536SOL    HW190455   1.074   1.427  -0.009  1.1830  0.7187  0.0134
28536SOL    HW290456   1.092   1.298   0.069 -1.9269 -0.5239 -1.1574
28537SOL     OW90457   1.036   3.069   9.645  0.0906  0.3044 -0.5514
28537SOL    HW190458   1.031   2.993   9.703 -1.1664  1.0891  0.4110
28537SOL    HW290459   0.980   3.047   9.571  0.7520 -0.2117 -0.9102
28538SOL     OW90460   8.966   0.654   8.475  0.0713 -0.4588  0.0003
28538SOL    HW190461   8.937   0.697   8.395  0.7062 -0.6865 -0.3570
28538SOL    HW290462   8.954   0.719   8.544  1.2693  0.3796 -0.5688
28539SOL     OW90463   8.225   1.957   1.792 -0.0012 -0.4172 -0.7856
28539SOL    HW190464   8.143   1.924   1.829 -0.2603 -0.6566 -1.5672
28539SOL    HW290465   8.276   1.984   1.869 -0.7236 -0.4542 -0.2796
28540SOL     OW90466   8.683   0.698   9.155  0.6158  0.3886 -0.2060
28540SOL    HW190467   8.688   0.634   9.225 -0.0289  1.0680  0.4763
28540SOL    HW290468   8.649   0.777   9.197 -1.5190  0.3110 -1.5921
28541SOL     OW90469   0.406   0.450   0.817  0.5921  0.2238 -0.5339
28541SOL    HW190470   0.368   0.506   0.749  0.0666  1.2506  0.5738
28541SOL    HW290471   0.341   0.382   0.832  1.1254 -0.5750 -1.7146
28542SOL     OW90472   0.115   1.703   0.796  0.1148  0.7847  0.2194
28542SOL    HW190473   0.170   1.747   0.731  1.2501  1.0951  1.3492
28542SOL    HW290474   0.172   1.693   0.873 -0.0250 -2.6831  0.0634
28543SOL     OW90475   1.233   0.094   9.776  0.4770 -0.6168 -0.0568
28543SOL    HW190476   1.310   0.041   9.799  0.6927 -0.1399  0.3465
28543SOL    HW290477   1.269   0.168   9.728  0.0489 -1.5037 -1.8566
28544SOL     OW90478   9.243   1.872   1.503  0.0927 -0.8108 -0.2163
28544SOL    HW190479   9.176   1.874   1.571 -0.3832  0.5286 -0.6924
28544SOL    HW290480   9.206   1.923   1.431  0.9345 -1.4809 -1.1566
28545SOL     OW90481   1.532   0.057   0.224  0.3129 -0.1424 -0.0796
28545SOL    HW190482   1.560   0.087   0.137 -1.1007  0.6000 -0.3144
28545SOL    HW290483   1.610   0.018   0.262  2.0362  2.8176 -0.2393
28546SOL     OW90484   8.723   8.210   9.189 -0.0303  0.2920 -0.2288
28546SOL    HW190485   8.677   8.265   9.125 -0.6047  0.3454  0.2157
28546SOL    HW290486   8.814   8.239   9.184 -0.1145  0.4739 -0.8355
28547SOL     OW90487   1.726   2.223   9.388 -0.0918  0.1611 -0.5526
28547SOL    HW190488   1.633   2.246   9.391 -0.5493 -1.5072 -0.5245
28547SOL    HW290489   1.756   2.257   9.304  0.0599  3.2625  0.6538
28548SOL     OW90490   0.160   1.294   9.206  0.7887  0.3046  0.3544
28548SOL    HW190491   0.080   1.345   9.218 -2.0549 -3.7871  0.9901
28548SOL    HW290492   0.214   1.316   9.282 -1.3330  0.7078  1.8467
28549SOL     OW90493   9.286   7.177   8.542  0.0673  0.0127  0.5296
28549SOL    HW190494   9.276   7.131   8.625  1.4250  3.4362  2.8374
28549SOL    HW290495   9.206   7.228   8.532 -1.4418 -2.5432 -2.0091
28550SOL     OW90496   1.157   1.937   0.100  0.0867  0.2252  0.1957
28550SOL    HW190497   1.206   1.903   0.025 -1.2407 -0.3025 -0.4711
28550SOL    HW290498   1.170   1.873   0.169  0.1242 -0.0386 -0.0552
28551SOL     OW90499   7.081   8.812   9.198  0.0916  0.3368  0.8532
28551SOL    HW190500   7.023   8.865   9.253 -0.3662 -1.0489  1.7797
28551SOL    HW290501   7.101   8.736   9.252  2.9302  0.8311  0.6085
28552SOL     OW90502   0.045   0.313   8.407  0.3602  0.2296  0.1488
28552SOL    HW190503  -0.018   0.310   8.480 -2.4709 -0.2035 -2.0997
28552SOL    HW290504   0.095   0.393   8.422 -2.3264  1.9202  0.9497
28553SOL     OW90505   8.785   8.368   9.799  0.0546  0.0356  0.3677
28553SOL    HW190506   8.726   8.313   9.746  0.2865 -0.1436  0.2923
28553SOL    HW290507   8.863   8.377   9.745 -0.1877  0.9069  0.1454
28554SOL     OW90508   0.396   1.664   2.261 -0.0428 -0.2697  0.7122
28554SOL    HW190509   0.392   1.689   2.353  0.0029 -1.7024  1.1187
28554SOL    HW290510   0.486   1.685   2.234  0.3936 -1.1804  1.4071
28555SOL     OW90511   0.503   8.848   0.429  0.1448  0.2741  0.1616
28555SOL    HW190512   0.582   8.800   0.454 -0.2979  0.0689  1.2291
28555SOL    HW290513   0.526   8.891   0.347  0.6754 -1.4830 -0.6525
28556SOL     OW90514   8.681   9.338   9.411 -0.0108 -0.2354 -0.0982
28556SOL    HW190515   8.648   9.303   9.328  0.4985  2.2725 -1.4505
28556SOL    HW290516   8.708   9.427   9.391  2.8811 -0.4674  2.1171
28557SOL     OW90517   0.152   9.476   9.314 -0.5835 -0.3364 -0.1945
28557SOL    HW190518   0.058   9.472   9.297 -0.7817  0.3497  0.6878
28557SOL    HW290519   0.164   9.555   9.366  0.5534 -0.1558 -0.6920
28558SOL     OW90520   0.037   2.019   9.209  0.1766 -0.2110 -0.3387
28558SOL    HW190521   0.004   2.043   9.296  0.0534 -0.9683 -0.1708
28558SOL    HW290522   0.002   2.087   9.151  1.8432  1.4261  0.4629
28559SOL     OW90523   1.533   9.685   2.533 -0.2368 -0.1076  0.5165
28559SOL    HW190524   1.613   9.736   2.524 -1.7106  2.3280  0.3623
28559SOL    HW290525   1.473   9.742   2.581 -1.6392 -2.1898  1.4273
28560SOL     OW90526   0.946   1.324   9.077  0.0204 -0.2309 -0.2718
28560SOL    HW190527   0.907   1.301   9.162 -0.2263  0.1575 -0.2754
28560SOL    HW290528   0.908   1.262   9.015 -1.1507  0.5721 -0.4010
28561SOL     OW90529   8.981   0.419   1.293  0.0001  0.3238 -0.1098
28561SOL    HW190530   8.973   0.498   1.347  0.7807 -0.2116  0.8168
28561SOL    HW290531   8.912   0.361   1.324 -0.5350  0.5976 -0.7510
28562SOL     OW90532   8.310   9.380   8.786  0.4594 -0.6157  0.4462
28562SOL    HW190533   8.393   9.364   8.831 -0.0233  0.7188  1.9023
28562SOL    HW290534   8.258   9.431   8.848 -0.2547  1.3734 -1.6375
28563SOL     OW90535   0.775   2.108   8.747  0.2680 -0.3773  0.3552
28563SOL    HW190536   0.804   2.195   8.778 -0.4499 -0.1181  0.3168
28563SOL    HW290537   0.750   2.062   8.827 -0.2645 -0.2005  0.2965
28564SOL     OW90538   7.081   0.971   9.219 -0.5317  0.1479  0.3937
28564SOL    HW190539   7.047   0.882   9.225  0.3417 -0.1176  2.2558
28564SOL    HW290540   7.062   1.009   9.304 -0.6774  1.6908 -0.2997
28565SOL     OW90541   8.589   8.617   0.676 -0.1055  0.1047  0.0788
28565SOL    HW190542   8.651   8.605   0.604 -1.1004 -0.3598 -0.7310
28565SOL    HW290543   8.622   8.694   0.723  0.6444  0.3388 -0.7897
28566SOL     OW90544   1.827   8.487   9.815  0.1018  0.0281  0.2805
28566SOL    HW190545   1.745   8.438   9.828 -0.2174 -0.2669 -2.2821
28566SOL    HW290546   1.798   8.573   9.785  0.7250  0.8605  1.9869
28567SOL     OW90547   8.193   1.807   8.539 -0.8515  0.0662  0.0331
28567SOL    HW190548   8.193   1.722   8.584 -0.8225  0.1479  0.1884
28567SOL    HW290549   8.286   1.831   8.534 -0.7855 -0.3197 -0.7911
28568SOL     OW90550   2.608   1.160   8.689 -0.4402 -0.7423 -0.1954
28568SOL    HW190551   2.582   1.151   8.781 -1.0306 -0.5173 -0.3335
28568SOL    HW290552   2.697   1.193   8.692  0.3467 -2.7634  0.3167
28569SOL     OW90553   8.095   9.127   2.028  0.1655 -0.1542  0.0401
28569SOL    HW190554   8.142   9.198   1.985  0.1988 -0.5931 -0.6632
28569SOL    HW290555   8.003   9.153   2.023  0.3081  0.8086  1.6070
28570SOL     OW90556   8.306   4.614   2.430 -0.0348 -0.1876 -0.0611
28570SOL    HW190557   8.279   4.656   2.348 -0.0477  1.2429  0.6350
28570SOL    HW290558   8.380   4.558   2.406 -0.3433 -0.1587 -1.1233
28571SOL     OW90559   8.077   4.089   2.301 -0.2546 -0.6783 -0.0187
28571SOL    HW190560   8.047   4.123   2.385  3.6143 -0.9175  1.7052
28571SOL    HW290561   8.154   4.142   2.280 -0.6446 -1.1455 -3.0778
28572SOL     OW90562   0.157   2.688   0.561  0.0013 -1.0578  0.0263
28572SOL    HW190563   0.071   2.644   0.564 -1.4028  1.4430  3.4114
28572SOL    HW290564   0.148   2.753   0.492 -1.7735  0.6189  1.7050
28573SOL     OW90565   8.900   4.236   0.793  0.0344 -0.0112  0.5186
28573SOL    HW190566   8.890   4.150   0.835  1.6883 -1.3146 -1.5584
28573SOL    HW290567   8.969   4.223   0.728 -1.5636  2.1496 -1.7908
28574SOL     OW90568   0.905   3.070   1.317  0.3113 -0.2373  0.1565
28574SOL    HW190569   0.813   3.079   1.294  0.8339  0.1148 -1.9221
28574SOL    HW290570   0.924   3.147   1.371 -0.6423 -0.4380  0.8043
28575SOL     OW90571   0.433   0.978   0.012  0.0976 -0.2210  0.2780
28575SOL    HW190572   0.366   0.995   0.078 -0.8653  0.3846 -0.8202
28575SOL    HW290573   0.406   0.896  -0.029  0.4763 -0.3921  0.3625
28576SOL     OW90574   0.606   1.739   2.462  0.5166  0.0829  0.9735
28576SOL    HW190575   0.662   1.807   2.423  0.8704 -0.0740  1.1958
28576SOL    HW290576   0.525   1.785   2.485  0.3956  0.2242  0.2743
28577SOL     OW90577   9.694   3.885   8.711  0.2169 -0.1437 -0.3261
28577SOL    HW190578   9.680   3.831   8.633 -0.5293  0.1586 -0.4000
28577SOL    HW290579   9.788   3.906   8.708  0.7123 -2.0868  0.1333
28578SOL     OW90580   1.642   0.000   3.359  0.0882 -0.0803  0.6161
28578SOL    HW190581   1.614  -0.091   3.366  1.3323 -0.5265  0.1062
28578SOL    HW290582   1.561   0.051   3.366 -0.4880 -1.1448  2.3682
28579SOL     OW90583   0.538   1.576   0.876  0.3490 -0.1246 -0.3144
28579SOL    HW190584   0.484   1.534   0.809  1.1951 -1.5814 -0.1013
28579SOL    HW290585   0.476   1.626   0.929 -0.3146  1.3594 -2.3433
28580SOL     OW90586   8.221   3.411   2.561 -0.1479 -0.3806 -0.8035
28580SOL    HW190587   8.267   3.462   2.628 -0.1031 -0.0725 -1.0607
28580SOL    HW290588   8.288   3.352   2.526 -0.4753 -1.4357  0.2759
28581SOL     OW90589   0.004   2.434   2.042 -0.4241  0.1479 -0.2860
28581SOL    HW190590  -0.039   2.507   2.087  0.7560  0.0286  1.1058
28581SOL    HW290591  -0.005   2.360   2.102 -0.6056 -0.5771 -1.1777
28582SOL     OW90592   9.805   3.977   0.842 -0.2863  0.1988  0.1691
28582SOL    HW190593   9.835   3.921   0.915  0.3009  1.6261  1.0694
28582SOL    HW290594   9.883   4.027   0.817 -0.6224  0.1261 -1.0995
28583SOL     OW90595   9.626   2.444   1.868  0.2297 -0.5049 -0.1846
28583SOL    HW190596   9.664   2.367   1.911 -0.9304 -0.2476  1.4077
28583SOL    HW290597   9.544   2.413   1.830  0.1539 -0.2472 -0.2327
28584SOL     OW90598   8.283   5.233   1.668  0.4265 -0.0988  0.1249
28584SOL    HW190599   8.265   5.284   1.747  0.3037  0.1526 -0.0646
28584SOL    HW290600   8.255   5.290   1.596  2.6603  0.6664 -0.2320
28585SOL     OW90601   8.816   1.842   1.093 -0.0560 -0.0591 -0.8513
28585SOL    HW190602   8.725   1.871   1.092  0.0914  0.4320 -0.4990
28585SOL    HW290603   8.819   1.774   1.159  0.2075  1.2192  0.4963
28586SOL     OW90604   1.406   3.343   1.234  0.0715 -0.3949 -0.3648
28586SOL    HW190605   1.438   3.312   1.149  0.0866  0.1776 -0.5709
28586SOL    HW290606   1.383   3.263   1.282 -1.6521 -0.6674 -1.5679
28587SOL     OW90607   0.328   3.424   8.745 -0.1093  0.0352 -0.7891
28587SOL    HW190608   0.303   3.500   8.796  0.5599  0.6221 -1.3167
28587SOL    HW290609   0.405   3.388   8.790  1.6149  1.6075 -2.3083
28588SOL     OW90610   8.199   1.999   2.587  0.4835  0.9584  0.2364
28588SOL    HW190611   8.104   1.997   2.594  0.3417 -0.2354 -1.5432
28588SOL    HW290612   8.230   1.958   2.668 -0.5936 -0.6124 -0.1132
28589SOL     OW90613   8.582   4.105   1.888  0.1151 -0.0829 -0.7622
28589SOL    HW190614   8.520   4.077   1.820 -1.5637  1.9421 -0.1428
28589SOL    HW290615   8.561   4.050   1.964 -0.2082 -0.1126 -0.8731
28590SOL     OW90616   8.973   3.655   6.916 -0.3738  0.6345  0.1292
28590SOL    HW190617   8.942   3.585   6.858 -0.7694  1.9800 -1.3604
28590SOL    HW290618   8.947   3.626   7.003 -0.5812 -1.0377 -0.4407
28591SOL     OW90619   8.474   2.762   1.262  0.7351  0.3445 -0.3657
28591SOL    HW190620   8.411   2.702   1.303  0.8322 -0.0933 -0.8475
28591SOL    HW290621   8.423   2.842   1.246  1.0572  1.0865  1.9167
28592SOL     OW90622   0.065   1.668   8.716  0.0887  0.5180  0.1404
28592SOL    HW190623   0.055   1.736   8.783  0.1697  1.1009 -0.4257
28592SOL    HW290624   0.160   1.658   8.706  0.1083  1.6064 -1.0292
28593SOL     OW90625   8.952   5.369   8.486  0.8075 -0.2827 -0.3247
28593SOL    HW190626   8.961   5.275   8.503 -0.0497 -0.5396 -1.1754
28593SOL    HW290627   9.031   5.393   8.439  1.4068 -0.3882  0.5927
28594SOL     OW90628   0.004   2.566   0.196  0.5437  0.4919  0.6198
28594SOL    HW190629  -0.027   2.623   0.126  0.1674  1.2164  1.3540
28594SOL    HW290630  -0.072   2.552   0.251  0.5665 -0.9799  0.2973
28595SOL     OW90631   8.300   1.720   9.672  0.3116  0.2073  0.2009
28595SOL    HW190632   8.303   1.808   9.709  1.9604 -0.3718  1.5571
28595SOL    HW290633   8.213   1.715   9.630  0.9914  3.1913 -1.9173
28596SOL     OW90634   0.209   8.703   0.251 -0.4151  0.0968 -0.0942
28596SOL    HW190635   0.114   8.699   0.257 -0.4093  1.4402  1.5938
28596SOL    HW290636   0.241   8.674   0.336  0.6794 -0.0169 -0.5184
28597SOL     OW90637   0.444   0.660   1.483 -0.1095 -0.0538 -0.6750
28597SOL    HW190638   0.406   0.686   1.567  0.3773 -0.7986 -0.2168
28597SOL    HW290639   0.412   0.572   1.468  0.6611 -0.3264 -0.7507
28598SOL     OW90640   9.387   3.950   2.145  0.2169  0.2617  0.2154
28598SOL    HW190641   9.361   4.010   2.214  0.1139 -0.8926  1.2023
28598SOL    HW290642   9.427   3.875   2.190 -1.9393 -1.6131 -0.7604
28599SOL     OW90643   0.673   2.850   1.003 -0.1734 -0.1726 -0.0516
28599SOL    HW190644   0.590   2.898   1.008 -0.0490 -0.0479  0.9319
28599SOL    HW290645   0.647   2.760   0.987 -0.4185  0.1471 -1.6452
28600SOL     OW90646   1.530   3.237   1.018  0.2743  0.4605  0.4177
28600SOL    HW190647   1.545   3.290   0.939 -0.3017  0.6064  0.4041
28600SOL    HW290648   1.618   3.214   1.048  0.5977  2.2980  1.0308
28601SOL     OW90649   0.609   3.582   0.592  0.3014 -0.0346 -0.4145
28601SOL    HW190650   0.594   3.609   0.683 -0.6207  0.2269 -0.6338
28601SOL    HW290651   0.656   3.655   0.552  2.1338 -0.7874  0.2335
28602SOL     OW90652   1.641   0.399   3.343  0.7314  0.2825  0.1723
28602SOL    HW190653   1.686   0.461   3.285 -2.0955  2.7201  0.3380
28602SOL    HW290654   1.567   0.369   3.291 -0.2954  0.3641  1.5385
28603SOL     OW90655   0.237   2.856   3.150 -0.1326  0.5291 -0.0161
28603SOL    HW190656   0.289   2.843   3.229  2.0013  0.3419 -1.3897
28603SOL    HW290657   0.153   2.814   3.169  0.9131 -0.9396  1.5623
28604SOL     OW90658   9.280   2.986   2.127  0.3306  0.1304  0.2435
28604SOL    HW190659   9.270   3.014   2.036 -0.2811  0.3203  0.3647
28604SOL    HW290660   9.340   3.051   2.165 -0.8755  1.1650  0.4535
28605SOL     OW90661   9.781   3.608   2.868 -0.3449  0.4861 -0.3832
28605SOL    HW190662   9.771   3.703   2.862  0.1569  0.6312  0.7378
28605SOL    HW290663   9.873   3.593   2.850 -0.4308  0.2125 -0.5873
28606SOL     OW90664   9.822   2.058   2.858  0.2246 -0.4488 -0.1538
28606SOL    HW190665   9.880   2.044   2.933  0.3796 -1.6767 -0.4881
28606SOL    HW290666   9.745   2.100   2.895  0.1024 -1.4620  0.7876
28607SOL     OW90667   7.319   3.092   1.500  0.0390 -0.1590 -0.2687
28607SOL    HW190668   7.229   3.123   1.500  0.1742  0.2486 -0.5391
28607SOL    HW290669   7.353   3.116   1.586  0.1441  0.4613 -0.4782
28608SOL     OW90670   7.850   2.931   1.508 -0.4028  0.1529 -0.0294
28608SOL    HW190671   7.860   2.870   1.580 -0.3090  1.5424  1.1935
28608SOL    HW290672   7.818   3.012   1.549  3.0577  2.2035 -0.9247
28609SOL     OW90673   8.569   1.545   1.729 -0.4339  0.2148 -0.2471
28609SOL    HW190674   8.555   1.515   1.639 -0.5850  0.2110 -0.2229
28609SOL    HW290675   8.499   1.608   1.745 -0.0193  0.7058 -0.3532
28610SOL     OW90676   1.563   4.046   1.235 -0.2805 -0.0378 -0.0425
28610SOL    HW190677   1.633   4.075   1.294 -0.8367 -1.3745  1.3410
28610SOL    HW290678   1.609   4.014   1.157  0.4912  1.4057 -0.2076
28611SOL     OW90679   9.353   2.901   1.257  0.0239  0.2339  0.2801
28611SOL    HW190680   9.381   2.993   1.250 -1.9174  0.8937  0.6651
28611SOL    HW290681   9.385   2.873   1.343 -0.5461  0.9932  0.7502
28612SOL     OW90682   9.581   9.451   0.970  0.2208  0.3450 -0.2091
28612SOL    HW190683   9.593   9.424   1.061  1.0742  1.0888 -0.0914
28612SOL    HW290684   9.488   9.473   0.965 -0.2284 -1.3123  0.0201
28613SOL     OW90685   8.220   1.979   0.380  0.0221 -0.0695  0.9972
28613SOL    HW190686   8.156   1.941   0.440 -1.3429 -1.3582 -1.1150
28613SOL    HW290687   8.272   1.904   0.351 -0.3858  0.2087 -0.5517
28614SOL     OW90688   8.976   1.413   0.351  0.4716  0.4285 -0.7991
28614SOL    HW190689   9.018   1.347   0.406 -2.8672 -3.7093 -2.6688
28614SOL    HW290690   8.979   1.377   0.262 -2.9038  1.9276 -1.7119
28615SOL     OW90691   0.069   4.644   2.308 -0.2364 -0.0157 -0.2941
28615SOL    HW190692   0.066   4.712   2.376  0.9407 -1.9447  1.8335
28615SOL    HW290693   0.163   4.630   2.293 -0.3928 -2.2102  0.4967
28616SOL     OW90694   9.331   1.791   9.562  0.1959 -0.5567 -0.0544
28616SOL    HW190695   9.365   1.774   9.475  0.3316 -0.4981 -0.0145
28616SOL    HW290696   9.378   1.730   9.619  1.3611  0.5432  0.2231
28617SOL     OW90697   9.848   1.827   9.032 -0.4267  0.0396  0.2146
28617SOL    HW190698   9.757   1.807   9.009 -0.5957 -1.1138  1.7089
28617SOL    HW290699   9.841   1.883   9.109  0.1463  1.2098 -0.5572
28618SOL     OW90700   0.937   4.443   2.417 -0.4460  0.1695 -0.6989
28618SOL    HW190701   0.982   4.493   2.349  0.3092 -0.0235 -0.3549
28618SOL    HW290702   0.896   4.509   2.473 -0.9086  0.3344 -1.2230
28619SOL     OW90703   8.169   3.026   3.646 -0.3288 -0.1574  0.1634
28619SOL    HW190704   8.210   3.014   3.731  0.3701  1.1194  0.0183
28619SOL    HW290705   8.081   2.990   3.657 -0.3676  0.2999  1.5280
28620SOL     OW90706   9.130   1.567   1.809 -0.1358  0.3373 -0.3032
28620SOL    HW190707   9.190   1.545   1.880 -1.9800 -3.8363  0.1903
28620SOL    HW290708   9.176   1.537   1.730 -0.7078 -1.0615 -0.1264
28621SOL     OW90709   8.244   3.348   0.258  0.5261  0.4029 -0.3744
28621SOL    HW190710   8.265   3.367   0.167  0.1239 -0.1325 -0.5860
28621SOL    HW290711   8.225   3.254   0.259 -0.1615  0.5418  0.1265
28622SOL     OW90712   9.756   4.938   1.437  0.2182  0.8018 -0.1969
28622SOL    HW190713   9.763   4.970   1.347  1.9011  0.5076 -0.1994
28622SOL    HW290714   9.675   4.977   1.470  0.8737  2.9970 -1.0180
28623SOL     OW90715   0.493   1.301   0.061 -0.4701 -0.1351  0.1156
28623SOL    HW190716   0.585   1.325   0.061 -0.1961 -1.0077  2.0104
28623SOL    HW290717   0.487   1.230  -0.003 -0.0654  0.6825 -0.8482
28624SOL     OW90718   0.436   3.974   1.302 -0.1576  0.1592  0.2332
28624SOL    HW190719   0.507   3.924   1.261 -1.0182 -0.9343  0.0340
28624SOL    HW290720   0.367   3.910   1.317 -0.5527  0.9057  1.7791
28625SOL     OW90721   0.019   2.433   9.729 -0.1523  0.1537  0.3974
28625SOL    HW190722   0.047   2.451   9.639 -1.1301  1.3245  0.2999
28625SOL    HW290723   0.038   2.514   9.777 -0.4910 -0.1353  1.0318
28626SOL     OW90724   1.318   2.916   9.450  0.0015 -0.0275 -0.3858
28626SOL    HW190725   1.246   2.859   9.478 -0.0500  0.7343  1.0875
28626SOL    HW290726   1.274   2.992   9.411  0.0538 -0.3302 -1.0556
28627SOL     OW90727   9.507   1.036   1.132  0.2332 -0.1263  0.1449
28627SOL    HW190728   9.522   1.127   1.156 -0.7355 -0.6216  3.0792
28627SOL    HW290729   9.412   1.031   1.117  0.3164 -0.6056 -0.2261
28628SOL     OW90730   0.031   1.013   1.308  0.3112  0.6888  0.3924
28628SOL    HW190731  -0.010   1.073   1.370 -1.9114 -1.0449  0.7671
28628SOL    HW290732  -0.038   0.948   1.289  1.7013 -0.2286 -2.0080
28629SOL     OW90733   2.291   2.365   9.743 -0.3537 -0.2934  0.2241
28629SOL    HW190734   2.331   2.382   9.829  0.3169  1.3828 -0.3591
28629SOL    HW290735   2.281   2.452   9.705 -1.8832 -0.9139 -0.8753
28630SOL     OW90736   0.920   3.049   2.446  0.0012  0.0300  0.8554
28630SOL    HW190737   0.919   3.079   2.355 -0.3379 -0.9995  0.5113
28630SOL    HW290738   0.942   2.956   2.441 -0.5845 -0.1729  1.7902
28631SOL     OW90739   8.298   2.646   0.343 -0.1351 -0.2415  0.4846
28631SOL    HW190740   8.302   2.559   0.303 -0.9265 -0.9555  1.8739
28631SOL    HW290741   8.209   2.676   0.325 -0.7485 -0.8824  2.2424
28632SOL     OW90742   9.356   3.300   2.099  0.0354  0.0364 -0.5224
28632SOL    HW190743   9.416   3.370   2.123  0.8271 -0.5301 -0.7844
28632SOL    HW290744   9.384   3.273   2.011 -1.0423  0.2089 -0.9448
28633SOL     OW90745   8.957   2.401   0.227 -0.0337 -0.5281 -0.1930
28633SOL    HW190746   8.935   2.465   0.159 -0.1344 -1.3222 -0.9305
28633SOL    HW290747   9.041   2.431   0.262  1.1831 -1.3001 -2.2423
28634SOL     OW90748   0.380   3.144   1.178  0.5284  0.0915 -0.1003
28634SOL    HW190749   0.355   3.060   1.140  1.2001  0.1941 -0.7994
28634SOL    HW290750   0.465   3.164   1.140  1.2730  0.1835  1.5136
28635SOL     OW90751   7.879   2.698   9.349 -0.2117 -0.5153 -0.9066
28635SOL    HW190752   7.911   2.779   9.389  0.2279 -0.1655 -1.9362
28635SOL    HW290753   7.872   2.719   9.256 -1.1425 -1.3303 -1.0342
28636SOL     OW90754   8.439   9.226   2.968 -0.2698 -0.7398 -0.1142
28636SOL    HW190755   8.442   9.321   2.960  2.0833 -0.6595  0.9118
28636SOL    HW290756   8.396   9.196   2.888  2.3952  1.0189 -2.3798
28637SOL     OW90757   8.816   2.551   2.443 -0.0981 -0.6153  0.4457
28637SOL    HW190758   8.908   2.564   2.467  0.2925 -0.3184 -1.0809
28637SOL    HW290759   8.771   2.626   2.481  0.5616  0.0769 -0.0935
28638SOL     OW90760   8.289   1.842   4.787  0.2410 -0.0605  0.0201
28638SOL    HW190761   8.347   1.766   4.777  1.8655  1.0845  0.3867
28638SOL    HW290762   8.201   1.808   4.768  1.1798 -1.5601 -1.9661
28639SOL     OW90763   9.420   2.715   1.661 -0.3487 -0.2004  0.2008
28639SOL    HW190764   9.380   2.689   1.745 -2.0957 -0.1623 -0.5774
28639SOL    HW290765   9.514   2.709   1.677 -0.6446 -1.2998  1.8298
28640SOL     OW90766   8.224   2.994   3.260  0.1572  0.3968  0.2931
28640SOL    HW190767   8.222   3.054   3.185  0.5454  0.5015  0.3642
28640SOL    HW290768   8.176   3.041   3.329  0.5158  0.6559  0.3696
28641SOL     OW90769   8.351   1.646   2.860 -0.1219 -0.5382 -0.1295
28641SOL    HW190770   8.356   1.659   2.955  0.2998 -0.5700 -0.1471
28641SOL    HW290771   8.427   1.693   2.825 -0.5985 -0.0327 -0.5018
28642SOL     OW90772   6.669   4.092   3.763  0.2085 -0.0532 -0.5935
28642SOL    HW190773   6.607   4.036   3.716 -0.4569 -0.4488  0.7203
28642SOL    HW290774   6.747   4.037   3.773  0.5188  0.1786 -1.5611
28643SOL     OW90775   9.816   3.347   3.763  0.0096 -0.7848 -0.2744
28643SOL    HW190776   9.898   3.309   3.793  0.5002  0.1859 -0.3582
28643SOL    HW290777   9.813   3.328   3.669 -1.0718 -2.9901  0.1457
28644SOL     OW90778   1.173   1.479   3.619  0.2493 -0.0066 -0.7043
28644SOL    HW190779   1.207   1.567   3.601  1.6894 -0.4251 -0.2372
28644SOL    HW290780   1.114   1.490   3.693  1.2238  0.4452  0.0304
28645SOL     OW90781   9.814   4.306   3.795 -0.1811 -0.3138  0.2192
28645SOL    HW190782   9.719   4.315   3.790 -0.0387  0.7439 -1.3758
28645SOL    HW290783   9.829   4.212   3.794 -1.2337 -0.5433  1.8280
28646SOL     OW90784   9.739   1.412   3.077 -0.5483 -0.4344 -0.0849
28646SOL    HW190785   9.732   1.339   3.015  4.3185 -0.7803 -0.6663
28646SOL    HW290786   9.729   1.371   3.163  1.0384 -1.7248 -0.4496
28647SOL     OW90787   0.083   4.379   1.201 -0.0435  0.1902  0.2483
28647SOL    HW190788   0.044   4.297   1.172  1.5146 -0.5510  0.1816
28647SOL    HW290789   0.162   4.388   1.148  3.3045 -1.4987  4.3871
28648SOL     OW90790   0.070   4.314   0.913  0.1892 -0.1017 -0.4297
28648SOL    HW190791   0.153   4.273   0.935 -0.0061 -1.1301 -1.5463
28648SOL    HW290792   0.023   4.249   0.862 -1.7508  0.0529  1.0172
28649SOL     OW90793   0.845   2.094   0.047  0.0468  0.0618  0.0172
28649SOL    HW190794   0.830   2.059   0.135  1.4314  1.4630  0.8661
28649SOL    HW290795   0.876   2.018  -0.003  0.2844 -0.5352  1.0307
28650SOL     OW90796   9.202   2.503   3.672 -0.1952 -0.2546 -0.0360
28650SOL    HW190797   9.200   2.592   3.638 -0.5880 -0.2552 -0.0177
28650SOL    HW290798   9.288   2.495   3.713  0.9277 -0.7320 -2.2969
28651SOL     OW90799   1.358   0.914   2.463  0.0403 -0.1153 -0.3752
28651SOL    HW190800   1.435   0.858   2.457  0.0500 -0.1013 -0.3808
28651SOL    HW290801   1.351   0.936   2.556  0.1103 -0.0213 -0.3927
28652SOL     OW90802   9.728   1.667   3.813 -0.4345 -0.0824 -0.1563
28652SOL    HW190803   9.653   1.671   3.755 -0.4507  1.6341 -0.0621
28652SOL    HW290804   9.786   1.736   3.783  1.1665 -1.3906 -0.2605
28653SOL     OW90805   9.265   4.400   3.103 -0.0799 -0.3462  0.3429
28653SOL    HW190806   9.307   4.355   3.029  2.2129  1.2684  0.5401
28653SOL    HW290807   9.338   4.441   3.150 -1.7424  0.9194  1.9588
28654SOL     OW90808   9.743   2.872   3.992 -0.2855  0.4664 -0.1339
28654SOL    HW190809   9.786   2.826   4.063  1.2025 -0.8483 -1.7852
28654SOL    HW290810   9.651   2.846   3.998  0.0171 -0.4759  0.6726
28655SOL     OW90811   1.384   4.587   4.385 -0.1796 -0.2730  0.6368
28655SOL    HW190812   1.397   4.589   4.480  0.6643 -1.2269  0.5629
28655SOL    HW290813   1.387   4.679   4.358 -0.4801  0.0077  1.5336
28656SOL     OW90814   9.169   3.159   2.835 -0.6979 -0.0620 -0.2289
28656SOL    HW190815   9.155   3.187   2.925 -0.9799 -0.1664 -0.2383
28656SOL    HW290816   9.190   3.239   2.787  2.8388 -0.3779  0.5419
28657SOL     OW90817   1.385   3.067   1.392 -0.0908  0.0121  0.4026
28657SOL    HW190818   1.338   3.017   1.325  1.4991  0.5117 -1.1621
28657SOL    HW290819   1.477   3.064   1.364  0.6419  0.2168  2.6011
28658SOL     OW90820   8.915   3.776   3.857  0.2863 -0.6020  0.4036
28658SOL    HW190821   8.920   3.785   3.952 -0.4553 -0.1516  0.4072
28658SOL    HW290822   8.821   3.768   3.839  0.4978 -2.4169 -0.1401
28659SOL     OW90823   0.327   1.903   3.457  0.4165 -0.2791  0.1076
28659SOL    HW190824   0.290   1.864   3.378 -1.2004 -0.9101  1.1202
28659SOL    HW290825   0.298   1.994   3.454 -0.1143 -0.4406  0.2398
28660SOL     OW90826   0.750   5.318   1.762 -0.4504  0.3985  0.6017
28660SOL    HW190827   0.719   5.344   1.676  1.0510 -0.2604 -0.1815
28660SOL    HW290828   0.699   5.239   1.783  1.1848 -1.2168 -1.0723
28661SOL     OW90829   0.715   4.203   5.029  0.4994 -0.3175 -0.5743
28661SOL    HW190830   0.626   4.172   5.046  0.6269 -0.1140  0.5687
28661SOL    HW290831   0.742   4.242   5.112  1.0725  1.0556 -1.3796
28662SOL     OW90832   8.849   2.805   0.697  0.7684  0.3760  0.0727
28662SOL    HW190833   8.879   2.842   0.614  1.3614  2.0121  0.9847
28662SOL    HW290834   8.912   2.836   0.762  0.9886 -1.8212  1.0116
28663SOL     OW90835   8.927   3.071   1.338 -0.0300 -0.5440 -0.4390
28663SOL    HW190836   8.896   2.980   1.343 -0.3917 -0.3828  0.6568
28663SOL    HW290837   8.936   3.088   1.245 -1.1917 -1.3043 -0.7161
28664SOL     OW90838   7.845   1.704   1.529 -0.7998  0.1141 -0.2439
28664SOL    HW190839   7.833   1.784   1.579 -0.1745 -0.5192  0.9468
28664SOL    HW290840   7.860   1.636   1.594 -1.4086 -1.0038 -1.2235
28665SOL     OW90841   9.016   1.134   0.808 -0.1187  0.2121  0.6074
28665SOL    HW190842   9.002   1.108   0.899  1.3915 -2.5636  0.1589
28665SOL    HW290843   8.979   1.063   0.756  0.8337  0.7370 -0.8762
28666SOL     OW90844   9.455   2.308   1.079 -0.4581 -0.0803  0.7743
28666SOL    HW190845   9.525   2.297   1.143 -0.3005  1.7664  0.9625
28666SOL    HW290846   9.402   2.379   1.113 -1.6233 -0.5097 -0.0809
28667SOL     OW90847   0.622   0.124   0.077  0.0911  0.5286  0.0350
28667SOL    HW190848   0.676   0.166   0.010 -1.3447  0.5925 -1.1212
28667SOL    HW290849   0.680   0.118   0.153  2.2804 -0.8859 -1.6107
28668SOL     OW90850   1.439   1.762   5.170 -0.1053 -0.2563 -0.3503
28668SOL    HW190851   1.506   1.721   5.224 -0.0755  0.0023 -0.1925
28668SOL    HW290852   1.448   1.720   5.084  3.1801  2.7755 -1.6985
28669SOL     OW90853   9.166   0.799   2.804 -0.2983  0.0273 -0.6231
28669SOL    HW190854   9.170   0.706   2.782 -0.8458 -0.1672  0.0693
28669SOL    HW290855   9.250   0.835   2.775 -0.6323 -0.3809 -2.2156
28670SOL     OW90856   1.140   0.619   2.059 -0.0411  0.1193  0.0259
28670SOL    HW190857   1.197   0.682   2.014 -0.9509 -0.3362 -1.8871
28670SOL    HW290858   1.052   0.649   2.038 -0.4811 -0.8897  0.4086
28671SOL     OW90859   8.900   1.320   2.029 -0.1338 -0.6315  0.0857
28671SOL    HW190860   8.884   1.369   1.949  1.1404 -0.9848 -0.4164
28671SOL    HW290861   8.899   1.228   2.001 -0.2646 -0.7872  0.5905
28672SOL     OW90862   1.813   2.163   3.621 -0.1696 -0.1161  0.4329
28672SOL    HW190863   1.767   2.246   3.635  1.0303  0.5157  0.8529
28672SOL    HW290864   1.767   2.122   3.548 -2.5047 -0.3915  1.9743
28673SOL     OW90865   0.058   5.139   3.872  0.7066 -0.6260 -0.5009
28673SOL    HW190866   0.037   5.226   3.907 -0.7367 -1.2493  0.2953
28673SOL    HW290867   0.079   5.087   3.950 -2.3191 -1.9797 -0.4732
28674SOL     OW90868   9.730   2.993   3.764 -0.2521 -0.0560  0.1169
28674SOL    HW190869   9.742   2.911   3.716 -0.7681  0.4743 -0.9600
28674SOL    HW290870   9.733   2.967   3.856 -0.6706 -1.3219 -0.1989
28675SOL     OW90871   8.985   2.227   1.922 -0.0252 -0.1221 -0.2043
28675SOL    HW190872   9.029   2.183   1.850  3.3015  2.4085  0.0060
28675SOL    HW290873   9.032   2.198   2.001 -0.0823  1.0591  0.2954
28676SOL     OW90874   9.070   3.002   4.015 -0.1127 -0.0668 -0.1025
28676SOL    HW190875   9.102   3.038   4.098  0.2465  0.6193 -0.5299
28676SOL    HW290876   9.040   3.079   3.966 -2.2936 -0.6570  0.2179
28677SOL     OW90877   8.465   2.675   3.402  0.1638 -0.5301  0.1147
28677SOL    HW190878   8.553   2.707   3.421 -0.1996 -0.5643  2.0476
28677SOL    HW290879   8.471   2.581   3.415  0.1734 -0.7498 -1.2713
28678SOL     OW90880   9.853   3.062   3.241  0.2457 -0.2000  0.1185
28678SOL    HW190881   9.873   3.055   3.148 -1.8606  0.6867 -0.4485
28678SOL    HW290882   9.810   2.980   3.263 -0.9025  0.3090 -0.1631
28679SOL     OW90883   0.827   2.722   1.998 -0.4309 -0.2823 -0.0910
28679SOL    HW190884   0.796   2.673   1.922 -0.9286 -1.2313  0.6980
28679SOL    HW290885   0.825   2.658   2.070 -1.6459  1.0294  1.1095
28680SOL     OW90886   1.465   0.633   4.486  0.2755 -0.5087 -0.2856
28680SOL    HW190887   1.453   0.574   4.412 -0.8932  0.8244 -1.2068
28680SOL    HW290888   1.490   0.576   4.559 -0.2500 -2.0522 -1.2731
28681SOL     OW90889   1.593   2.853   3.732  0.9320 -0.4771 -0.4792
28681SOL    HW190890   1.567   2.841   3.641 -1.9875 -1.0140  0.3116
28681SOL    HW290891   1.521   2.815   3.783  1.2073  2.0435  2.0728
28682SOL     OW90892   8.944   2.248   3.532 -0.6862  0.6129  0.2675
28682SOL    HW190893   9.033   2.214   3.541  0.0755  1.7066 -2.1559
28682SOL    HW290894   8.955   2.329   3.483 -3.1255  0.2731 -0.9700
28683SOL     OW90895   0.284   3.422   3.622  0.1864 -0.2454 -0.7953
28683SOL    HW190896   0.245   3.335   3.620  1.4926 -0.8310 -1.3427
28683SOL    HW290897   0.251   3.465   3.544 -0.2695 -0.3233 -0.6499
28684SOL     OW90898   9.714   1.730   0.866  0.1843 -0.0091  0.0456
28684SOL    HW190899   9.665   1.689   0.937 -1.2756 -0.4130 -1.1595
28684SOL    HW290900   9.802   1.693   0.873 -0.1587 -0.6482  1.1344
28685SOL     OW90901   8.808   3.311   3.572 -0.0351 -0.1909 -0.0591
28685SOL    HW190902   8.886   3.263   3.544  0.6141  0.8800 -0.1431
28685SOL    HW290903   8.744   3.296   3.503  0.4507 -0.2511 -0.4992
28686SOL     OW90904   0.007   4.026   3.750  0.2881  0.8566 -0.1015
28686SOL    HW190905   0.018   4.046   3.843 -0.4003  0.3011  0.1066
28686SOL    HW290906   0.094   3.997   3.721 -0.0062 -1.2226  0.9339
28687SOL     OW90907   7.317   5.394   4.023 -0.5724 -0.2290 -1.0826
28687SOL    HW190908   7.279   5.473   3.984 -0.5961  1.4611  2.0261
28687SOL    HW290909   7.241   5.341   4.049 -0.6033 -0.3106 -1.3353
28688SOL     OW90910   0.377   4.154   1.532 -0.2825 -0.0537  0.0785
28688SOL    HW190911   0.329   4.169   1.613 -0.3898 -1.9551  0.4013
28688SOL    HW290912   0.312   4.164   1.463 -0.7250 -0.7216  0.3888
28689SOL     OW90913   0.074   3.908   4.614 -0.0454 -0.6455  0.9319
28689SOL    HW190914   0.045   3.840   4.553  1.3475 -0.4829  0.0328
28689SOL    HW290915   0.162   3.881   4.639  0.2948  0.5103  1.0300
28690SOL     OW90916   8.256   4.551   4.378  0.7905 -0.2682 -0.3352
28690SOL    HW190917   8.328   4.489   4.364 -0.5464 -2.0459  0.3103
28690SOL    HW290918   8.181   4.511   4.335 -0.0876  1.0292 -0.0710
28691SOL     OW90919   0.365   1.196   0.988 -0.2151  0.5630  0.4541
28691SOL    HW190920   0.315   1.204   1.069 -1.7072  0.2401 -0.3951
28691SOL    HW290921   0.306   1.148   0.928  2.0945 -2.3213  0.2507
28692SOL     OW90922   9.744   1.754   2.088  0.2146 -0.4011 -0.2245
28692SOL    HW190923   9.719   1.835   2.132 -1.2271 -1.4101  0.9040
28692SOL    HW290924   9.813   1.780   2.027  0.3290  1.5247  0.6622
28693SOL     OW90925   0.818   3.484   4.499  0.2806 -0.9665 -0.3937
28693SOL    HW190926   0.766   3.480   4.419  0.2934 -2.1741 -0.3586
28693SOL    HW290927   0.761   3.449   4.567  0.2251  0.1645  0.1654
28694SOL     OW90928   2.081   2.169   5.062  0.1646  0.1112  0.1201
28694SOL    HW190929   2.116   2.113   5.132  1.9228 -0.3172 -1.0315
28694SOL    HW290930   1.994   2.195   5.094 -0.7089 -3.1296  0.8030
28695SOL     OW90931   0.469   4.309   3.362  0.0734 -0.1203 -0.2836
28695SOL    HW190932   0.504   4.248   3.427  3.1482 -0.1102 -1.7737
28695SOL    HW290933   0.416   4.253   3.304  0.8005 -0.9479 -0.1794
28696SOL     OW90934   8.768   0.709   2.868 -0.1601  0.0000  0.1223
28696SOL    HW190935   8.674   0.711   2.847 -0.3499  0.5547  0.9754
28696SOL    HW290936   8.771   0.688   2.961  0.5357  0.5642  0.2363
28697SOL     OW90937   8.795   2.833   1.281 -0.2989  0.1648  0.0824
28697SOL    HW190938   8.762   2.744   1.272 -0.2288  0.2205 -0.8151
28697SOL    HW290939   8.718   2.889   1.272 -0.3482  0.2002  0.6808
28698SOL     OW90940   1.495   1.096   8.857  0.0754 -0.2097  0.0707
28698SOL    HW190941   1.454   1.081   8.772  1.0430  0.5682 -0.5484
28698SOL    HW290942   1.514   1.008   8.890  0.1537 -0.5089 -0.7463
28699SOL     OW90943   0.469   5.443   0.476 -0.0707  0.1691 -0.2751
28699SOL    HW190944   0.389   5.448   0.424 -0.2343  1.2599  0.0354
28699SOL    HW290945   0.446   5.487   0.558  1.6798  3.4452 -1.3428
28700SOL     OW90946   0.917   4.300   3.509 -0.1831 -0.1460  0.0877
28700SOL    HW190947   0.854   4.320   3.580 -0.1770 -0.0587  0.0691
28700SOL    HW290948   0.909   4.375   3.450  0.2102  0.0485  0.2763
28701SOL     OW90949   0.041   1.852   3.699 -0.4975  0.0793 -0.4691
28701SOL    HW190950   0.019   1.932   3.653 -1.2442 -1.0862 -2.2671
28701SOL    HW290951   0.073   1.793   3.631 -1.4915 -1.6823  0.4970
28702SOL     OW90952   8.094   0.638   4.072 -0.1630  0.0536 -0.2236
28702SOL    HW190953   8.162   0.662   4.136  0.0101 -0.6957 -0.1183
28702SOL    HW290954   8.143   0.603   3.998 -0.4342 -0.5753 -0.1112
28703SOL     OW90955   1.341   3.117   3.797 -0.9569 -0.0906 -0.5375
28703SOL    HW190956   1.252   3.112   3.764 -0.9366 -0.8566 -0.4893
28703SOL    HW290957   1.338   3.075   3.883 -0.9861  1.7672  0.4177
28704SOL     OW90958   0.220   4.884   2.414  0.4411  0.3114 -0.1179
28704SOL    HW190959   0.227   4.948   2.485 -0.0039 -1.4480  1.6218
28704SOL    HW290960   0.309   4.853   2.401  0.3752 -0.1719  0.5105
28705SOL     OW90961   9.490   2.814   3.918  0.0067 -0.0646  0.4746
28705SOL    HW190962   9.507   2.721   3.934  1.1585  0.0025 -0.2573
28705SOL    HW290963   9.508   2.826   3.825 -0.1055  0.8964  0.5679
28706SOL     OW90964   8.078   5.206   5.126  0.5505  0.0310 -0.6912
28706SOL    HW190965   8.005   5.155   5.092 -0.2192  0.4890  0.2481
28706SOL    HW290966   8.138   5.214   5.052 -0.7633  0.4029 -1.7551
28707SOL     OW90967   8.659   3.574   0.716 -0.3136 -0.1140 -0.3697
28707SOL    HW190968   8.747   3.537   0.730 -0.3268  0.4010  1.2257
28707SOL    HW290969   8.652   3.643   0.781 -1.4379  0.7125 -1.3352
28708SOL     OW90970   9.129   0.155   2.804 -0.7287  0.1730 -0.2276
28708SOL    HW190971   9.209   0.165   2.753 -0.4936 -0.3843  0.0153
28708SOL    HW290972   9.070   0.107   2.746 -0.1759 -1.1865  0.2817
28709SOL     OW90973   9.438   3.109   4.388  0.3213 -0.1570 -0.0764
28709SOL    HW190974   9.428   3.114   4.293 -1.6421  1.7752  0.1586
28709SOL    HW290975   9.375   3.043   4.416 -0.4199  0.5744  0.0146
28710SOL     OW90976   8.904   1.839   4.669  0.2381 -0.3218 -0.3155
28710SOL    HW190977   8.985   1.883   4.695 -0.1144 -0.1967  0.6091
28710SOL    HW290978   8.924   1.745   4.676  0.1928 -0.2901  0.2893
28711SOL     OW90979   8.461   3.609   3.454 -0.2388  0.6410 -0.9232
28711SOL    HW190980   8.413   3.574   3.529 -1.7976  1.3340 -1.5481
28711SOL    HW290981   8.520   3.674   3.492 -0.3774  0.3580 -0.2096
28712SOL     OW90982   9.460   2.016   3.547 -0.0657  0.1973  0.1498
28712SOL    HW190983   9.531   2.074   3.519  2.2018 -1.1143  2.7270
28712SOL    HW290984   9.489   1.928   3.523 -1.4252 -0.2727  0.1340
28713SOL     OW90985   8.127   2.990   5.671  0.0084  0.0364  0.0519
28713SOL    HW190986   8.067   3.030   5.608 -0.1272  1.4889  1.0438
28713SOL    HW290987   8.161   2.912   5.626 -1.7036 -0.1682 -0.9754
28714SOL     OW90988   2.735   4.240   5.533  0.8084 -0.0596 -0.1503
28714SOL    HW190989   2.712   4.307   5.469  0.1526 -0.2734 -0.1410
28714SOL    HW290990   2.665   4.245   5.599  1.6942  0.4539  0.7828
28715SOL     OW90991   9.557   0.339   6.135  0.0062  0.0305  0.3207
28715SOL    HW190992   9.617   0.336   6.061 -1.5185 -1.5831 -0.9595
28715SOL    HW290993   9.551   0.431   6.159  3.1138  0.2198  0.6771
28716SOL     OW90994   8.395   3.569   4.950  0.1974  0.7943  0.3396
28716SOL    HW190995   8.409   3.603   4.861 -0.0374 -0.4584 -0.2076
28716SOL    HW290996   8.416   3.476   4.943 -1.2446  0.3628  1.2396
28717SOL     OW90997   9.030   3.150   4.255  0.3613 -1.1143  0.2132
28717SOL    HW190998   9.060   3.121   4.341  0.4821 -0.7572  0.2915
28717SOL    HW290999   8.935   3.148   4.260  0.3632 -0.2289  0.6456
28718SOL     OW91000   0.959   3.091   4.319 -0.0696  0.1970 -0.2778
28718SOL    HW191001   0.925   3.004   4.339 -0.1557 -0.3023 -2.4453
28718SOL    HW291002   0.882   3.141   4.292  0.3168  0.1987 -1.4238
28719SOL     OW91003   9.638   3.020   6.103 -0.2426 -0.1023 -0.2245
28719SOL    HW191004   9.660   2.951   6.166 -0.1683 -0.1708 -0.3240
28719SOL    HW291005   9.646   3.101   6.153  1.7051 -0.0032 -0.6173
28720SOL     OW91006   8.750   3.092   4.332  0.8645  0.4484  0.2578
28720SOL    HW191007   8.795   3.036   4.395  2.9693  2.5256  0.7615
28720SOL    HW291008   8.696   3.032   4.280  1.9180 -1.8055  1.6117
28721SOL     OW91009   9.332   2.828   5.447 -0.2614  0.2567 -0.2135
28721SOL    HW191010   9.375   2.769   5.509 -1.3895 -1.8075 -1.2469
28721SOL    HW291011   9.337   2.781   5.363  1.2443  2.9489 -1.7642
28722SOL     OW91012   0.172   2.918   4.320  0.2609  0.0576  0.3565
28722SOL    HW191013   0.223   2.997   4.300  0.9894 -0.4291  0.2634
28722SOL    HW291014   0.102   2.918   4.255  1.3157 -0.3271 -0.8370
28723SOL     OW91015   0.645   3.125   2.525 -0.1450 -0.2438  0.0534
28723SOL    HW191016   0.619   3.033   2.518 -1.8147  0.0796  1.3774
28723SOL    HW291017   0.729   3.129   2.479  0.7340 -2.7423  1.2443
28724SOL     OW91018   9.254   3.948   7.277  0.1768  0.3043 -0.0102
28724SOL    HW191019   9.242   3.968   7.184  0.4257 -1.6047 -0.4996
28724SOL    HW291020   9.202   3.869   7.292 -0.0772  0.7323  1.5546
28725SOL     OW91021   9.226   3.503   4.529  0.0058 -0.1060  0.5126
28725SOL    HW191022   9.281   3.437   4.572 -1.3413 -1.2076  0.6180
28725SOL    HW291023   9.148   3.455   4.502 -0.2455  1.0949 -0.9997
28726SOL     OW91024   9.821   4.156   4.629 -0.0516  0.5981  0.2111
28726SOL    HW191025   9.889   4.217   4.658 -0.4508  0.3916  1.6313
28726SOL    HW291026   9.868   4.074   4.613 -0.0143  0.3452  1.5654
28727SOL     OW91027   9.166   3.889   2.927 -0.0567  0.1423 -0.3646
28727SOL    HW191028   9.186   3.865   2.836 -0.1559 -1.3588 -0.0217
28727SOL    HW291029   9.076   3.921   2.923 -0.7828 -1.7574 -0.5501
28728SOL     OW91030   8.927   2.645   5.967  0.0834 -0.2698  0.0521
28728SOL    HW191031   8.890   2.585   5.901  0.0901 -0.4997  0.2549
28728SOL    HW291032   9.015   2.664   5.935 -0.1828  0.2315 -0.4025
28729SOL     OW91033   6.941   4.886   0.312 -0.5127  0.4105 -0.1190
28729SOL    HW191034   7.000   4.931   0.252  0.7743 -0.2016  0.6391
28729SOL    HW291035   6.998   4.824   0.359 -1.3340  1.2586  2.1025
28730SOL     OW91036   0.058   3.279   6.163 -0.6129 -0.1121 -0.1667
28730SOL    HW191037   0.106   3.313   6.088  1.2219 -0.4353  0.7887
28730SOL    HW291038   0.078   3.186   6.163 -1.0635 -0.2096  0.3866
28731SOL     OW91039   8.806   3.845   0.637  0.4510  0.3442  0.7261
28731SOL    HW191040   8.809   3.877   0.547 -0.2981 -1.4893  0.0007
28731SOL    HW291041   8.841   3.917   0.689  0.5665  1.5878 -0.9820
28732SOL     OW91042   8.098   1.102   4.138  0.0182 -0.1256 -0.4350
28732SOL    HW191043   8.174   1.142   4.095  0.5666 -0.1482  0.4869
28732SOL    HW291044   8.040   1.175   4.157  0.5015  0.0976  0.2171
28733SOL     OW91045   6.814   2.239   5.153 -0.5625  0.3326 -0.1670
28733SOL    HW191046   6.865   2.318   5.171 -0.2268 -0.0511  0.5945
28733SOL    HW291047   6.880   2.174   5.129 -0.8390  0.2816 -0.8059
28734SOL     OW91048   9.713   2.349   4.522 -0.4116  0.1519  0.2884
28734SOL    HW191049   9.773   2.348   4.448  0.2906  1.0560  0.8281
28734SOL    HW291050   9.666   2.265   4.516  1.1622 -0.7525  0.0689
28735SOL     OW91051   0.494   3.088   4.070 -0.3600 -0.4869  0.5102
28735SOL    HW191052   0.430   3.043   4.015  0.1594 -0.4580 -0.1276
28735SOL    HW291053   0.452   3.170   4.094 -0.5304 -0.4343  0.0261
28736SOL     OW91054   7.159   4.219   7.504 -0.1180 -0.0287  0.0079
28736SOL    HW191055   7.109   4.297   7.531  2.2874  0.7643  2.6614
28736SOL    HW291056   7.230   4.254   7.451 -0.4697 -0.7736 -0.9824
28737SOL     OW91057   8.708   0.791   5.432 -0.3492  0.0398  0.0436
28737SOL    HW191058   8.774   0.722   5.434 -0.0908  0.1827 -1.8817
28737SOL    HW291059   8.752   0.868   5.469  0.8132  0.2919 -1.7491
28738SOL     OW91060   8.591   0.734   3.367  0.3678  0.3290 -0.0020
28738SOL    HW191061   8.651   0.690   3.428 -0.6538 -0.2057  0.6522
28738SOL    HW291062   8.513   0.679   3.366  1.0284 -0.7725 -3.3466
28739SOL     OW91063   8.326   3.697   3.232 -0.2708 -0.1836  0.0358
28739SOL    HW191064   8.261   3.766   3.242  2.4011  2.4441  1.1043
28739SOL    HW291065   8.341   3.664   3.321 -1.0321 -1.7187 -0.3754
28740SOL     OW91066   8.821   2.059   4.301 -0.3487 -0.3079  0.4692
28740SOL    HW191067   8.900   2.079   4.250 -1.0056 -0.7511 -0.7664
28740SOL    HW291068   8.754   2.116   4.265 -1.4144 -2.2998 -0.8346
28741SOL     OW91069   8.002   0.795   2.831 -0.1007  0.9820  0.0167
28741SOL    HW191070   8.062   0.727   2.799  1.1134  2.5193 -1.1418
28741SOL    HW291071   7.923   0.784   2.779  0.3441  0.8576 -0.6581
28742SOL     OW91072   9.506   3.959   5.449  0.0690 -0.1447 -0.4137
28742SOL    HW191073   9.457   3.974   5.368 -1.8967 -0.4672  0.6703
28742SOL    HW291074   9.552   4.042   5.464 -2.2610  1.1944 -0.1125
28743SOL     OW91075   9.764   1.774   5.429 -0.3532  0.1797 -0.5696
28743SOL    HW191076   9.807   1.849   5.470  1.7534 -1.0852 -0.3013
28743SOL    HW291077   9.772   1.790   5.335 -0.1883  0.4402 -0.5101
28744SOL     OW91078   8.401   1.582   5.280  0.1233 -0.4280 -0.3847
28744SOL    HW191079   8.322   1.617   5.240  0.5007 -0.9555 -1.6454
28744SOL    HW291080   8.403   1.620   5.368 -0.6848  0.8473 -0.9007
28745SOL     OW91081   2.952   3.842   6.526 -0.1777  0.2717  0.8526
28745SOL    HW191082   2.936   3.836   6.432 -0.7353 -1.0709  1.0158
28745SOL    HW291083   3.024   3.781   6.542  1.2532  1.9213  1.0346
28746SOL     OW91084   9.097   4.268   6.821  0.7695 -0.6727  0.1522
28746SOL    HW191085   9.143   4.191   6.855 -0.2666 -1.6117 -0.5311
28746SOL    HW291086   9.021   4.233   6.775  0.4264  0.7512 -0.4182
28747SOL     OW91087   7.405   3.283   5.201  0.0984  0.2742  0.2582
28747SOL    HW191088   7.481   3.338   5.217  0.1831  0.3546 -0.4001
28747SOL    HW291089   7.419   3.206   5.257  0.2933  0.6191  0.6969
28748SOL     OW91090   0.874   2.437   5.178  0.0869  0.3566  0.1297
28748SOL    HW191091   0.929   2.392   5.114  1.7131  0.9755  1.0095
28748SOL    HW291092   0.827   2.367   5.223  1.6226 -0.4072  0.6302
28749SOL     OW91093   9.379   3.510   3.382  0.1677  0.1570  0.3241
28749SOL    HW191094   9.409   3.598   3.406 -0.2296  0.1927  0.7044
28749SOL    HW291095   9.291   3.523   3.348  0.7231  0.1018 -1.1932
28750SOL     OW91096   0.962   1.836   4.969 -0.2926 -0.6019 -0.1377
28750SOL    HW191097   0.879   1.876   4.995  0.5442  0.3679  1.1908
28750SOL    HW291098   0.983   1.876   4.885 -0.6777 -0.1147 -0.0060
28751SOL     OW91099   9.402   2.100   2.276  0.1917  0.0367 -0.2592
28751SOL    HW191100   9.394   2.149   2.358 -0.8191 -0.2465 -0.1728
28751SOL    HW291101   9.326   2.128   2.224  0.3042 -0.4904 -0.7181
28752SOL     OW91102   8.567   4.472   4.792 -0.0945 -0.2253  0.1713
28752SOL    HW191103   8.472   4.458   4.796  0.2371 -2.5428  1.7983
28752SOL    HW291104   8.600   4.397   4.742  0.9552  0.1563  0.2711
28753SOL     OW91105   6.261   2.099   4.109 -0.6902  0.2133  0.3171
28753SOL    HW191106   6.171   2.067   4.103 -0.5775 -0.0908  0.2499
28753SOL    HW291107   6.262   2.178   4.056 -0.6788 -0.3025 -0.4637
28754SOL     OW91108   0.220   0.755   5.323  0.5842 -0.0145  0.0453
28754SOL    HW191109   0.267   0.786   5.400 -0.3496 -0.0503  0.6434
28754SOL    HW291110   0.288   0.713   5.269  1.5334  1.4303  0.0668
28755SOL     OW91111   7.438   4.975   5.374  0.4087  0.5211  0.8663
28755SOL    HW191112   7.456   5.032   5.299 -2.0232 -0.3701 -0.5128
28755SOL    HW291113   7.489   4.896   5.358  0.4921  0.6363  0.5661
28756SOL     OW91114   0.616   4.678   2.830  0.1281  0.8134 -0.1495
28756SOL    HW191115   0.635   4.591   2.864  2.2811  1.2014 -0.2566
28756SOL    HW291116   0.619   4.667   2.735 -1.6931  0.6115 -0.2213
28757SOL     OW91117   8.100   2.078   4.828 -0.1606  1.0104 -0.6163
28757SOL    HW191118   8.037   2.118   4.767 -0.6553 -0.3470 -1.0212
28757SOL    HW291119   8.162   2.032   4.773 -0.6699 -0.3191 -0.1096
28758SOL     OW91120   8.291   2.715   4.981  0.4082 -0.1313 -0.7708
28758SOL    HW191121   8.351   2.771   5.029  1.0422 -1.5247  0.1049
28758SOL    HW291122   8.258   2.652   5.045 -1.2371 -0.0330 -1.4454
28759SOL     OW91123   9.815   6.227   5.449 -0.3900  0.1395 -0.5743
28759SOL    HW191124   9.885   6.164   5.467 -0.2308  0.4790  0.0138
28759SOL    HW291125   9.778   6.248   5.535 -1.1239  0.0751 -0.8604
28760SOL     OW91126   9.014   0.907   3.111  0.7847  0.5295 -0.4349
28760SOL    HW191127   9.078   0.967   3.072  3.1042 -2.4846 -1.7260
28760SOL    HW291128   9.067   0.844   3.159 -1.5639 -0.1008  1.5284
28761SOL     OW91129   0.078   3.706   6.900  0.2485 -0.6610  0.2189
28761SOL    HW191130   0.058   3.772   6.966  2.3435  1.2115 -0.8635
28761SOL    HW291131   0.100   3.628   6.949  0.2536  0.2218  1.6725
28762SOL     OW91132   8.993   5.757   5.219  0.4938  0.2587 -0.0577
28762SOL    HW191133   8.976   5.851   5.222  3.0423  0.7594  0.7704
28762SOL    HW291134   8.962   5.725   5.304 -0.1212  0.3666 -0.2309
28763SOL     OW91135   9.769   3.467   4.017  0.2191 -0.4552 -0.3630
28763SOL    HW191136   9.719   3.450   3.937 -0.0417  0.9225 -0.5203
28763SOL    HW291137   9.855   3.428   4.000 -0.4872 -2.0927 -0.4257
28764SOL     OW91138   9.265   2.930   4.483 -0.1646  0.7245  0.2057
28764SOL    HW191139   9.309   2.879   4.551 -0.0504 -1.3402 -1.3147
28764SOL    HW291140   9.209   2.867   4.438 -2.2738  2.6003  0.0275
28765SOL     OW91141   8.912   2.804   5.095  0.0404  1.0695 -0.1451
28765SOL    HW191142   8.939   2.728   5.147 -0.7517  0.3062 -0.8365
28765SOL    HW291143   8.950   2.789   5.009 -0.6269  1.1447 -0.4574
28766SOL     OW91144   8.647   3.755   4.987 -0.3564  0.3598 -0.5715
28766SOL    HW191145   8.561   3.745   5.027  0.1583  0.5070  0.6254
28766SOL    HW291146   8.697   3.680   5.019  0.7002  1.5884  0.8318
28767SOL     OW91147   0.284   1.534   5.593  0.3688 -0.0141  0.1786
28767SOL    HW191148   0.362   1.487   5.623 -0.1303 -2.4696 -1.9844
28767SOL    HW291149   0.310   1.570   5.508 -0.5011  0.0742 -0.0522
28768SOL     OW91150   9.059   2.678   5.568 -0.6236  0.9959  0.4121
28768SOL    HW191151   9.130   2.622   5.599 -0.4905  0.3335 -1.0126
28768SOL    HW291152   9.004   2.620   5.516 -0.8609  2.0234 -0.5115
28769SOL     OW91153   1.002   2.421   3.894  0.0822 -0.1471  0.1306
28769SOL    HW191154   0.907   2.408   3.889 -0.0925  0.5101  1.4939
28769SOL    HW291155   1.036   2.335   3.917 -0.1433 -0.4581 -0.6607
28770SOL     OW91156   8.102   2.557   4.851 -0.3180  0.3974  0.1339
28770SOL    HW191157   8.036   2.578   4.918 -1.1605  0.8778 -0.8113
28770SOL    HW291158   8.162   2.632   4.852 -0.4431  0.4961  0.2143
28771SOL     OW91159   9.179   2.597   4.590  0.0424  0.3288 -0.3130
28771SOL    HW191160   9.204   2.515   4.546  0.7476  0.3601  0.0084
28771SOL    HW291161   9.124   2.643   4.526 -0.1312 -0.2666 -0.6049
28772SOL     OW91162   9.690   4.330   1.689 -0.1832 -0.2969 -0.4881
28772SOL    HW191163   9.614   4.359   1.640 -1.1663 -1.9785 -0.0472
28772SOL    HW291164   9.714   4.247   1.648 -0.4231 -1.2531  1.2103
28773SOL     OW91165   0.299   2.014   5.007  0.8523  0.4476 -0.0904
28773SOL    HW191166   0.263   2.012   4.918  0.4180  1.7862  0.0261
28773SOL    HW291167   0.222   2.028   5.063  1.2405  0.6580  0.3957
28774SOL     OW91168   0.334   1.391   7.409 -0.1864  0.2548  0.1159
28774SOL    HW191169   0.302   1.323   7.349 -0.2088  0.6363 -0.3132
28774SOL    HW291170   0.429   1.389   7.398 -0.3122  2.1315 -1.9801
28775SOL     OW91171   0.193   4.150   3.436  0.5530  0.0551 -0.5595
28775SOL    HW191172   0.218   4.088   3.504 -0.2149  0.1310 -0.2015
28775SOL    HW291173   0.214   4.105   3.354  0.1269 -0.6336 -0.3028
28776SOL     OW91174   1.389   0.825   3.999  0.0991  0.1113 -0.2682
28776SOL    HW191175   1.317   0.775   4.035  0.3341 -0.8667 -1.0866
28776SOL    HW291176   1.465   0.767   4.006  0.4077  0.3827 -1.1110
28777SOL     OW91177   9.560   2.538   5.471  0.4302  0.2422  0.6537
28777SOL    HW191178   9.618   2.609   5.443  0.8777 -0.2078  0.4314
28777SOL    HW291179   9.511   2.515   5.392 -0.3429  0.8884  0.9349
28778SOL     OW91180   7.543   2.236   4.493 -0.7033 -0.0089  0.0489
28778SOL    HW191181   7.605   2.286   4.440 -0.8133 -0.3064 -0.3661
28778SOL    HW291182   7.589   2.222   4.576  0.2927 -1.2636 -0.6597
28779SOL     OW91183   8.530   0.761   4.768 -0.5759 -0.1386 -0.2089
28779SOL    HW191184   8.507   0.689   4.827 -0.9143  0.1595  0.0275
28779SOL    HW291185   8.614   0.793   4.802 -1.3307  0.8019  0.8590
28780SOL     OW91186   1.090   0.403   8.043  0.0625  0.3505  0.1436
28780SOL    HW191187   1.114   0.489   8.078  2.8093 -0.7816  1.3410
28780SOL    HW291188   1.117   0.406   7.951  1.6378  0.3302  0.5672
28781SOL     OW91189   1.455   1.678   5.846  0.3111  0.1190  0.0613
28781SOL    HW191190   1.388   1.660   5.912  1.2312  0.0351  0.9969
28781SOL    HW291191   1.427   1.628   5.769 -1.6927  1.5412 -0.2460
28782SOL     OW91192   9.768   2.630   8.198 -0.6913  0.1219  0.4038
28782SOL    HW191193   9.817   2.684   8.261 -0.9031  0.8209 -0.0238
28782SOL    HW291194   9.734   2.558   8.251 -0.7457  0.6199  1.0669
28783SOL     OW91195   8.040   2.668   8.596 -0.3524  0.1733  0.1093
28783SOL    HW191196   8.049   2.574   8.611  0.7384  0.4020  0.9730
28783SOL    HW291197   7.994   2.700   8.673 -0.3644  0.4077  0.0043
28784SOL     OW91198   6.952   2.870   6.935  0.0705  0.0080 -0.6527
28784SOL    HW191199   6.955   2.916   6.851 -2.4010 -0.5265 -1.1166
28784SOL    HW291200   7.038   2.885   6.974  0.4866  2.2362 -2.2357
28785SOL     OW91201   0.798   2.681   7.368 -0.2118  0.0277  0.1001
28785SOL    HW191202   0.810   2.592   7.401 -1.6020 -0.1604  0.1612
28785SOL    HW291203   0.777   2.734   7.445 -0.6902  0.1354 -0.0962
28786SOL     OW91204   8.471   3.074   6.166 -0.0573  0.0908  0.1860
28786SOL    HW191205   8.451   3.155   6.212  2.2269  0.8487 -0.0140
28786SOL    HW291206   8.496   3.013   6.236 -1.1392 -0.2522  0.2846
28787SOL     OW91207   9.802   1.911   5.190  0.1633 -0.0461  0.1069
28787SOL    HW191208   9.844   1.856   5.125  0.4227  1.6925 -1.2563
28787SOL    HW291209   9.874   1.954   5.236  0.0826  2.7662 -2.0825
28788SOL     OW91210   8.150   2.560   7.709 -0.0329 -0.0569  0.4947
28788SOL    HW191211   8.217   2.491   7.709 -0.4630 -0.4982  1.5430
28788SOL    HW291212   8.194   2.636   7.747  0.8899  0.7482 -2.0110
28789SOL     OW91213   0.858   2.110   4.562  0.6081  0.8639  0.2744
28789SOL    HW191214   0.862   2.020   4.594 -0.6920  0.7747  0.2440
28789SOL    HW291215   0.782   2.148   4.606  0.0008  1.3623 -1.1361
28790SOL     OW91216   8.986   2.541   7.082 -0.1220 -0.2191  0.3102
28790SOL    HW191217   9.013   2.600   7.011  1.4536 -1.0191  0.2186
28790SOL    HW291218   9.045   2.561   7.154 -1.1335 -0.0481  1.1200
28791SOL     OW91219   0.242   2.190   6.482 -0.0107  0.1930 -0.6331
28791SOL    HW191220   0.319   2.133   6.490 -0.9298 -0.8771  1.2659
28791SOL    HW291221   0.272   2.263   6.428  1.6928 -1.2604 -1.7913
28792SOL     OW91222   0.530   3.133   5.748 -0.5037 -0.6242  0.0421
28792SOL    HW191223   0.528   3.062   5.684 -0.6973 -1.1747  0.6532
28792SOL    HW291224   0.608   3.116   5.801  0.4518  0.5993 -0.8941
28793SOL     OW91225   8.648   1.277   5.901 -0.0697 -0.4321  0.1776
28793SOL    HW191226   8.713   1.303   5.835 -0.4935 -2.8094 -1.3061
28793SOL    HW291227   8.597   1.357   5.916  1.9486  0.9818 -0.0454
28794SOL     OW91228   9.261   1.086   8.100 -0.3118 -0.3182 -0.2147
28794SOL    HW191229   9.328   1.028   8.138  0.1257  0.7976  0.8052
28794SOL    HW291230   9.188   1.082   8.162 -0.6643 -0.5150 -0.6412
28795SOL     OW91231   8.555   9.530   7.858 -0.2474 -0.4468 -0.2022
28795SOL    HW191232   8.629   9.471   7.875  0.7924  1.2873  1.6007
28795SOL    HW291233   8.503   9.528   7.938 -0.3479  0.8545 -0.2141
28796SOL     OW91234   1.839   1.653   5.820  0.2751 -1.0061 -0.0296
28796SOL    HW191235   1.826   1.592   5.893  0.9158  1.0297  1.9039
28796SOL    HW291236   1.893   1.722   5.856 -0.1341  0.5676 -2.2165
28797SOL     OW91237   1.281   3.765   7.913 -0.1251 -0.0004 -0.0265
28797SOL    HW191238   1.263   3.822   7.838 -0.5438 -0.7766 -0.5283
28797SOL    HW291239   1.376   3.768   7.923 -0.0429 -0.0575 -0.7293
28798SOL     OW91240   7.650   3.407   6.591  0.4104 -0.0577 -0.6882
28798SOL    HW191241   7.583   3.424   6.657  0.6969 -2.3799  0.3165
28798SOL    HW291242   7.633   3.472   6.523 -0.6515  1.6612  1.0922
28799SOL     OW91243   0.982   4.519   5.799 -0.9633 -0.1937 -0.4769
28799SOL    HW191244   0.990   4.611   5.773 -0.7408 -0.3394 -0.9198
28799SOL    HW291245   0.907   4.518   5.859  1.1174  0.8985  2.4125
28800SOL     OW91246   0.926   0.222   5.618  0.5610 -0.9883 -0.6090
28800SOL    HW191247   0.842   0.258   5.590 -0.4452 -0.9792  2.1437
28800SOL    HW291248   0.953   0.166   5.545 -1.1472  0.0385 -2.1236
28801SOL     OW91249   9.187   3.169   7.602 -0.3748 -0.0554  0.7816
28801SOL    HW191250   9.261   3.137   7.655  0.2453  0.3352  0.1688
28801SOL    HW291251   9.216   3.254   7.569  0.0319 -1.0335 -1.6499
28802SOL     OW91252   6.934   3.360   4.662  0.7792  0.8128 -0.4710
28802SOL    HW191253   6.842   3.337   4.678  0.7871  0.6262 -0.6834
28802SOL    HW291254   6.973   3.365   4.749  1.3444 -2.3090 -0.4520
28803SOL     OW91255   0.993   1.521   7.552  0.0746  0.3738 -0.2265
28803SOL    HW191256   0.972   1.431   7.577 -1.2295  0.8239  0.4331
28803SOL    HW291257   1.071   1.514   7.498  1.2722 -0.9506  1.5669
28804SOL     OW91258   0.410   0.333   7.540 -0.5902 -0.4513 -0.5211
28804SOL    HW191259   0.349   0.261   7.558 -0.9572 -0.3783 -1.4124
28804SOL    HW291260   0.432   0.322   7.447  0.4005 -0.2071 -0.3227
28805SOL     OW91261   0.851   4.431   6.436  0.1903  0.8267  0.4197
28805SOL    HW191262   0.768   4.475   6.417  0.4211  1.7352  1.3658
28805SOL    HW291263   0.830   4.338   6.436 -0.6899  1.0147  0.0218
28806SOL     OW91264   9.814   1.256   7.722  0.2524  0.0438  0.4634
28806SOL    HW191265   9.811   1.341   7.767  1.0839  1.0712 -1.2853
28806SOL    HW291266   9.874   1.271   7.649 -3.0534 -0.6358 -2.6818
28807SOL     OW91267   9.368   2.557   6.432  0.3117  0.1618 -0.0041
28807SOL    HW191268   9.331   2.471   6.413  1.6857 -0.4517 -0.0636
28807SOL    HW291269   9.456   2.554   6.393  1.2944  0.7310  2.0435
28808SOL     OW91270   9.750   1.381   6.379  0.2350 -0.4279  0.6122
28808SOL    HW191271   9.827   1.419   6.421  0.8446  0.4915 -1.2137
28808SOL    HW291272   9.772   1.288   6.368  0.1520 -0.6356  2.0593
28809SOL     OW91273   1.039   5.403   6.708 -0.1447  0.5487 -0.4394
28809SOL    HW191274   1.102   5.339   6.675  1.1638  1.5386  0.0692
28809SOL    HW291275   0.998   5.360   6.783  0.1387 -0.0024 -0.5972
28810SOL     OW91276   8.865   3.370   7.015  0.5616  0.2833  0.1272
28810SOL    HW191277   8.849   3.277   7.004  1.3291  0.2777 -1.1887
28810SOL    HW291278   8.841   3.388   7.106 -0.4307 -1.0022  0.1482
28811SOL     OW91279   9.656   3.283   6.211  0.0149  0.2401  0.4791
28811SOL    HW191280   9.632   3.376   6.206 -1.1266 -0.0811 -0.2145
28811SOL    HW291281   9.742   3.278   6.169 -0.4156  0.8158 -0.4948
28812SOL     OW91282   7.810   4.146   3.952  0.0548 -0.8888 -0.3539
28812SOL    HW191283   7.843   4.150   3.863  1.3096 -0.6793  0.0970
28812SOL    HW291284   7.889   4.140   4.007 -0.6177  0.1227  0.7954
28813SOL     OW91285   1.012   3.054   6.110  0.9235  0.3252 -0.6972
28813SOL    HW191286   0.952   3.021   6.177  1.8248  0.1193  0.0177
28813SOL    HW291287   0.977   3.141   6.088  0.6193  0.3962  0.0321
28814SOL     OW91288   0.100   1.256   4.865  0.2878  0.3961  0.5988
28814SOL    HW191289   0.165   1.277   4.797  0.1330 -1.0225 -0.0221
28814SOL    HW291290   0.029   1.318   4.851  0.7134  0.7838  0.1230
28815SOL     OW91291   0.395   1.632   5.344 -0.3036  0.0565  0.1888
28815SOL    HW191292   0.340   1.675   5.278  0.0274  1.5241  0.8453
28815SOL    HW291293   0.467   1.594   5.294 -0.6760  0.1468 -0.4253
28816SOL     OW91294   6.509   3.422   3.423 -0.3317  0.3893 -0.3051
28816SOL    HW191295   6.499   3.381   3.509  0.9897  0.1591 -0.2326
28816SOL    HW291296   6.504   3.350   3.361  2.3944 -0.0374 -0.1529
28817SOL     OW91297   7.148   4.711   5.909  0.9938 -0.6134 -0.1158
28817SOL    HW191298   7.113   4.712   5.820  1.2197 -0.4578 -0.2045
28817SOL    HW291299   7.203   4.789   5.914 -0.9121  0.7336  0.9402
28818SOL     OW91300   1.090   4.734   6.440 -0.1076  0.0572  0.2768
28818SOL    HW191301   1.046   4.652   6.465  1.3200 -0.5994  0.7362
28818SOL    HW291302   1.018   4.795   6.424 -1.1926 -0.5176  2.4942
28819SOL     OW91303   8.651   5.245   7.169 -0.7428  0.2080  0.0508
28819SOL    HW191304   8.652   5.258   7.074 -1.0888 -0.3590 -0.0309
28819SOL    HW291305   8.720   5.303   7.202 -0.1100 -0.1658 -0.6142
28820SOL     OW91306   0.361   2.425   5.851  0.7772 -0.6754 -0.3444
28820SOL    HW191307   0.314   2.393   5.774  1.6934 -0.7877 -0.8710
28820SOL    HW291308   0.453   2.422   5.826  1.0205  0.4168  0.3319
28821SOL     OW91309   9.312   2.393   7.014 -0.1157 -0.2546 -0.2030
28821SOL    HW191310   9.386   2.333   7.024  0.4063  0.7246  3.0114
28821SOL    HW291311   9.350   2.473   6.980  0.0269 -0.2325  0.0107
28822SOL     OW91312   9.309   0.261   7.124  0.2319 -0.3447 -0.0689
28822SOL    HW191313   9.311   0.247   7.030 -0.1020 -0.1994 -0.1007
28822SOL    HW291314   9.381   0.209   7.158 -0.7029 -1.8047 -0.2288
28823SOL     OW91315   9.701   2.543   7.957  0.0847  0.3383  0.6704
28823SOL    HW191316   9.764   2.477   7.928 -1.8422 -2.2657  2.1105
28823SOL    HW291317   9.736   2.575   8.040 -0.4349 -1.0748  1.4511
28824SOL     OW91318   0.895   3.491   7.013 -0.4912 -0.2352 -0.1788
28824SOL    HW191319   0.821   3.438   7.044  0.4215 -0.9294  0.8813
28824SOL    HW291320   0.940   3.435   6.950 -1.9666  0.9329 -2.4042
28825SOL     OW91321   0.943   0.780   8.025  0.3168  0.2068  0.3321
28825SOL    HW191322   1.026   0.823   8.003  0.8505 -1.2719 -0.7896
28825SOL    HW291323   0.924   0.726   7.948 -1.8278  0.6831  0.4723
28826SOL     OW91324   0.571   2.430   6.242 -0.1583 -0.4866 -0.2103
28826SOL    HW191325   0.545   2.338   6.250 -0.0266 -0.5598 -0.5850
28826SOL    HW291326   0.530   2.459   6.160 -0.1362 -0.2325 -0.1318
28827SOL     OW91327   8.904   4.906   7.378 -0.0940 -0.2204 -0.3813
28827SOL    HW191328   8.812   4.926   7.363 -0.0094 -0.7482 -1.6996
28827SOL    HW291329   8.950   4.986   7.351 -0.0745 -0.4786 -1.1286
28828SOL     OW91330   9.252   4.828   5.814 -0.0670 -0.0104 -0.1139
28828SOL    HW191331   9.266   4.922   5.828 -1.3488  0.2039 -0.1023
28828SOL    HW291332   9.191   4.803   5.883  1.3974 -1.2046  0.8072
28829SOL     OW91333   1.461   3.809   6.501 -0.9762 -0.3805  0.1978
28829SOL    HW191334   1.519   3.861   6.445 -1.9677  0.0392 -0.4699
28829SOL    HW291335   1.457   3.723   6.458  1.9423 -1.6555  2.1509
28830SOL     OW91336   1.135   2.731   6.183 -0.4919  0.1406 -0.2003
28830SOL    HW191337   1.105   2.643   6.204  0.8524 -0.6227 -1.3551
28830SOL    HW291338   1.058   2.775   6.146 -0.5790 -1.3696 -1.9403
28831SOL     OW91339   8.406   2.502   7.992 -0.5133 -0.3095  0.1776
28831SOL    HW191340   8.372   2.424   8.036 -1.0136 -1.1766 -1.6564
28831SOL    HW291341   8.491   2.475   7.957 -1.2077 -0.4664 -1.4984
28832SOL     OW91342   9.129   2.109   4.590  0.1051 -0.1986 -0.9349
28832SOL    HW191343   9.118   2.132   4.683 -1.6196 -0.6512 -1.0070
28832SOL    HW291344   9.145   2.015   4.590  1.5268  0.0210 -1.0282
28833SOL     OW91345   7.579   2.545   0.302 -0.1296 -0.2299  0.0918
28833SOL    HW191346   7.642   2.512   0.238  0.1328  1.8501 -0.8095
28833SOL    HW291347   7.543   2.624   0.261 -1.1229  0.2863  1.8636
28834SOL     OW91348   9.390   4.647   4.809 -0.0289  0.4486 -0.0990
28834SOL    HW191349   9.403   4.724   4.864  0.2398 -1.4712  2.7449
28834SOL    HW291350   9.385   4.681   4.719  2.8735  3.4690  0.7116
28835SOL     OW91351   0.312   1.295   6.729  0.0869 -0.2782 -0.6892
28835SOL    HW191352   0.298   1.376   6.778 -0.7086 -1.3463  0.9224
28835SOL    HW291353   0.308   1.322   6.637  0.7668  1.6491 -0.2022
28836SOL     OW91354   8.936   4.593   7.210 -0.0169  0.6222  0.3204
28836SOL    HW191355   8.982   4.675   7.198 -1.7185  1.5328 -0.4281
28836SOL    HW291356   8.845   4.612   7.185 -0.7734 -1.1181  1.4645
28837SOL     OW91357   8.313   1.565   8.587 -0.4336 -0.1475  0.0814
28837SOL    HW191358   8.282   1.549   8.498 -0.5743 -1.1839  0.3050
28837SOL    HW291359   8.393   1.617   8.576 -0.7145  0.1337 -0.6244
28838SOL     OW91360   8.469   3.990   1.662  0.4126  0.3318  0.1277
28838SOL    HW191361   8.488   4.013   1.571 -2.5996  0.1383 -0.6303
28838SOL    HW291362   8.392   3.934   1.657  0.2491  0.2037  2.8119
28839SOL     OW91363   9.220   1.545   4.123  0.6257  0.3974 -0.7229
28839SOL    HW191364   9.149   1.578   4.178 -0.2336 -2.3850  0.0084
28839SOL    HW291365   9.299   1.585   4.158 -0.3885  2.4258 -0.6223
28840SOL     OW91366   0.746   3.519   6.749  0.2335 -0.6442 -0.2851
28840SOL    HW191367   0.785   3.464   6.816 -1.1422  0.2512  1.3522
28840SOL    HW291368   0.814   3.528   6.682  3.0619  1.1467  2.5231
28841SOL     OW91369   8.089   3.795   7.337  0.0340  0.3699 -0.0387
28841SOL    HW191370   8.068   3.800   7.243  2.0539 -2.3127 -0.7770
28841SOL    HW291371   8.062   3.706   7.362 -2.0335  1.5906  2.4380
28842SOL     OW91372   9.024   2.893   6.733  0.4899 -0.3066 -0.4257
28842SOL    HW191373   9.111   2.869   6.764  1.5356  0.4424 -2.6343
28842SOL    HW291374   9.031   2.894   6.638 -1.9941 -0.3740 -0.6859
28843SOL     OW91375   0.013   2.037   6.505 -0.4237  0.3889 -0.2821
28843SOL    HW191376   0.102   2.071   6.495 -0.8871  1.5180 -0.8677
28843SOL    HW291377  -0.034   2.108   6.549 -0.7884 -0.6310  1.0047
28844SOL     OW91378   1.205   2.597   7.227  0.3186  0.3396 -0.4750
28844SOL    HW191379   1.182   2.644   7.307  0.1462  0.3152 -0.5092
28844SOL    HW291380   1.151   2.638   7.159 -2.3484 -2.0139  0.0297
28845SOL     OW91381   1.446   3.304   6.609 -0.6043 -0.2515 -0.1042
28845SOL    HW191382   1.526   3.257   6.584  0.3407 -0.5225  2.9605
28845SOL    HW291383   1.476   3.394   6.624 -1.2461  0.0415 -0.5719
28846SOL     OW91384   8.213   3.801   6.325  0.2085  0.3200  0.0994
28846SOL    HW191385   8.184   3.738   6.391  0.4406  0.9290  0.7997
28846SOL    HW291386   8.140   3.863   6.317  0.0951  0.1336 -0.3762
28847SOL     OW91387   9.178   1.792   3.876  0.5732 -0.1113  0.3948
28847SOL    HW191388   9.216   1.743   3.804  0.5119  1.4158 -0.7154
28847SOL    HW291389   9.253   1.823   3.926  0.6420 -0.3713  0.4578
28848SOL     OW91390   7.722   3.633   7.432 -0.1090  0.0722  0.8019
28848SOL    HW191391   7.764   3.695   7.493 -1.3868  0.3644  1.4181
28848SOL    HW291392   7.705   3.684   7.354  1.4327 -0.2726  0.2080
28849SOL     OW91393   8.639   3.906   8.051  0.2907  0.1013 -0.3251
28849SOL    HW191394   8.710   3.845   8.069  0.3361 -0.4863 -2.3052
28849SOL    HW291395   8.635   3.912   7.956 -0.7515  1.9829 -0.2169
28850SOL     OW91396   9.619   9.821   7.002  0.3887  0.2479 -0.0784
28850SOL    HW191397   9.580   9.871   7.074  1.9044  0.4199  0.6794
28850SOL    HW291398   9.695   9.778   7.042  0.5172 -0.7041 -1.2926
28851SOL     OW91399   8.515   2.785   5.438  0.6334  0.0923  1.1996
28851SOL    HW191400   8.541   2.694   5.426  0.5824  0.3325 -1.2086
28851SOL    HW291401   8.434   2.780   5.489 -0.7622 -1.4311 -1.0195
28852SOL     OW91402   8.716   2.521   5.486  0.3066 -0.1868  0.2514
28852SOL    HW191403   8.622   2.537   5.495  0.3977 -0.1692  1.2133
28852SOL    HW291404   8.757   2.595   5.530  0.7930  0.2359 -0.8713
28853SOL     OW91405   8.730   3.536   5.460  0.7025 -0.4201 -0.0802
28853SOL    HW191406   8.730   3.449   5.500 -0.5322 -0.3876  0.0446
28853SOL    HW291407   8.822   3.560   5.454  1.0678 -1.7847 -0.2304
28854SOL     OW91408   8.941   3.563   6.630  0.0991  0.3398  0.1457
28854SOL    HW191409   8.908   3.487   6.582 -0.3790  1.1403 -0.8277
28854SOL    HW291410   9.035   3.566   6.609  0.5266 -1.0451  1.6887
28855SOL     OW91411   9.516   9.723   8.321 -0.2454  0.0782 -0.4049
28855SOL    HW191412   9.579   9.776   8.370  0.4708 -0.9809 -0.1398
28855SOL    HW291413   9.450   9.786   8.291 -1.8486  0.5641  3.5596
28856SOL     OW91414   7.413   3.275   8.757 -0.1355  0.1685 -0.1772
28856SOL    HW191415   7.418   3.202   8.818  0.4073  1.9612  2.0469
28856SOL    HW291416   7.501   3.313   8.758 -1.1136  2.5989  1.0567
28857SOL     OW91417   0.838   1.099   6.879 -0.0399  0.0681 -0.0960
28857SOL    HW191418   0.875   1.113   6.967 -0.9669  2.7789 -0.0386
28857SOL    HW291419   0.901   1.042   6.835 -0.7418 -3.5137  3.0289
28858SOL     OW91420   1.951   1.005   9.469  0.0613 -0.4494  0.2503
28858SOL    HW191421   1.883   1.063   9.435  1.7989  1.1724 -0.6560
28858SOL    HW291422   2.029   1.060   9.474  0.7340 -1.4620  3.8779
28859SOL     OW91423   5.934   1.723   6.914  0.1883  0.2827  0.3074
28859SOL    HW191424   5.875   1.784   6.959  1.5289  1.2886  0.7667
28859SOL    HW291425   5.999   1.780   6.872  1.0463 -0.8048  0.1331
28860SOL     OW91426   9.079   1.944   7.402 -0.3623  0.4921 -0.1999
28860SOL    HW191427   9.165   1.984   7.393 -1.1191  1.9164 -1.5046
28860SOL    HW291428   9.076   1.912   7.492  1.5119  0.4236 -0.1392
28861SOL     OW91429   1.218   1.970   7.414 -0.0576 -0.1641  0.1506
28861SOL    HW191430   1.204   2.048   7.360  0.8869 -0.7991 -1.0419
28861SOL    HW291431   1.265   2.003   7.491  1.1337  0.3224 -0.7628
28862SOL     OW91432   9.708   4.601   1.179 -0.3159 -0.1327  0.0783
28862SOL    HW191433   9.736   4.608   1.271  1.1088 -1.4810 -0.2080
28862SOL    HW291434   9.650   4.525   1.178 -3.0119  1.7919  0.3926
28863SOL     OW91435   0.447   0.636   8.200  0.4929 -0.6042 -0.0770
28863SOL    HW191436   0.464   0.664   8.290  1.2390 -1.5731  0.0994
28863SOL    HW291437   0.429   0.717   8.153 -2.0639 -0.2335  1.3567
28864SOL     OW91438   9.694   3.594   7.909  0.3316 -0.5000 -0.6046
28864SOL    HW191439   9.780   3.563   7.883 -0.5296 -2.2845 -1.5647
28864SOL    HW291440   9.702   3.689   7.915  2.5561 -0.6959  0.1825
28865SOL     OW91441   9.154   2.965   9.814 -0.2506 -0.4144 -0.2433
28865SOL    HW191442   9.246   2.968   9.840  0.0198  1.6088 -1.1986
28865SOL    HW291443   9.123   3.055   9.826 -2.2149 -1.1085  0.3494
28866SOL     OW91444   9.241   4.566   8.225 -0.3737  0.0614 -0.2996
28866SOL    HW191445   9.269   4.651   8.260  2.1896 -0.8784  0.1828
28866SOL    HW291446   9.164   4.543   8.276 -0.1018  1.3543  0.7497
28867SOL     OW91447   9.445   1.792   9.295 -0.3272  0.6544 -0.0488
28867SOL    HW191448   9.526   1.763   9.336 -0.9107 -1.0948 -0.0512
28867SOL    HW291449   9.466   1.802   9.202 -0.0981  0.1946 -0.0497
28868SOL     OW91450   7.537   1.616   6.867 -0.2651  0.6331  0.7221
28868SOL    HW191451   7.553   1.649   6.956  0.6908  1.4385  0.2685
28868SOL    HW291452   7.612   1.647   6.816 -1.1550  0.7943 -0.5301
28869SOL     OW91453   4.920   4.027   6.941 -0.0554  0.9769 -0.1762
28869SOL    HW191454   4.843   4.082   6.953 -0.2647  0.7653 -0.5457
28869SOL    HW291455   4.916   3.999   6.850  0.0639  0.3658  0.0048
28870SOL     OW91456   9.560   4.375   1.207  0.6961  0.1864  0.4770
28870SOL    HW191457   9.518   4.329   1.134  2.0173 -2.9670  1.5123
28870SOL    HW291458   9.487   4.400   1.264 -0.1309 -0.1108 -0.4133
28871SOL     OW91459   2.116   2.726   6.119 -1.2064  0.5342 -0.2782
28871SOL    HW191460   2.085   2.655   6.063  0.1142 -1.1809  1.0408
28871SOL    HW291461   2.211   2.728   6.106 -1.0744  1.2197  0.6530
28872SOL     OW91462   9.303   0.451   7.351 -0.2216  0.1105  0.4051
28872SOL    HW191463   9.213   0.483   7.352 -0.8016 -1.2012 -1.6180
28872SOL    HW291464   9.312   0.408   7.266  2.2122 -0.1454  0.7034
28873SOL     OW91465   9.474   5.326   7.916 -0.5519  0.3713  0.4457
28873SOL    HW191466   9.410   5.257   7.904  0.1736 -0.3751  0.7215
28873SOL    HW291467   9.511   5.340   7.829  1.1117 -1.4389  0.7806
28874SOL     OW91468   1.184   5.348   7.764  0.0928  0.4923 -0.3272
28874SOL    HW191469   1.114   5.403   7.728 -0.4012  0.1104  0.0395
28874SOL    HW291470   1.214   5.296   7.689  0.5561  1.2394 -0.6749
28875SOL     OW91471   1.134   2.835   0.892 -0.4137 -0.3055 -0.0465
28875SOL    HW191472   1.156   2.925   0.869 -2.0829  0.2509  0.3925
28875SOL    HW291473   1.067   2.843   0.960  1.0449 -1.8959  1.7084
28876SOL     OW91474   8.435   2.109   9.275 -0.2838 -0.6761 -0.0977
28876SOL    HW191475   8.408   2.030   9.321  0.8429 -1.3496 -0.5550
28876SOL    HW291476   8.421   2.179   9.338  1.2818 -1.5814  1.3479
28877SOL     OW91477   9.176   3.783   7.596  0.2700  0.4506  0.4497
28877SOL    HW191478   9.142   3.706   7.642  0.0180 -1.0785 -2.1082
28877SOL    HW291479   9.270   3.781   7.612  0.2664 -0.4121  0.3907
28878SOL     OW91480   9.143   0.544   0.081  0.2089  0.1984 -0.3745
28878SOL    HW191481   9.170   0.613   0.141  0.1875  1.1476 -1.4265
28878SOL    HW291482   9.055   0.569   0.053 -1.3116 -2.0948  1.8782
28879SOL     OW91483   8.869   4.227   8.555  0.0608 -0.0027 -0.1643
28879SOL    HW191484   8.779   4.251   8.578  0.8126  1.0779  1.9252
28879SOL    HW291485   8.873   4.132   8.570 -0.9429 -0.2314 -1.1841
28880SOL     OW91486   1.931   1.476   9.076  0.1360  0.5347  0.0775
28880SOL    HW191487   1.991   1.525   9.020 -0.1306 -0.1489 -0.8181
28880SOL    HW291488   1.876   1.543   9.117  2.4269  1.3417  2.1156
28881SOL     OW91489   9.340   2.666   6.973 -0.2118 -0.0247 -0.0714
28881SOL    HW191490   9.424   2.706   6.950 -0.9896  1.3381 -0.6395
28881SOL    HW291491   9.275   2.715   6.923 -1.4852 -0.2066  1.3232
28882SOL     OW91492   9.374   0.932   5.354 -0.3363  0.3130 -0.4946
28882SOL    HW191493   9.409   0.844   5.337 -1.8354 -0.0676 -1.8520
28882SOL    HW291494   9.281   0.925   5.333 -0.1231  2.7412 -2.7506
28883SOL     OW91495   9.246   3.127   6.650 -0.5906 -0.3786 -0.0139
28883SOL    HW191496   9.294   3.069   6.592 -1.9492 -2.6108  0.9610
28883SOL    HW291497   9.259   3.089   6.737 -2.2880  0.2329  0.5404
28884SOL     OW91498   9.458   2.341   0.110  0.4168 -0.5025 -0.0035
28884SOL    HW191499   9.495   2.390   0.184  2.2894 -1.9815  0.1088
28884SOL    HW291500   9.526   2.345   0.042 -0.1276 -1.4879 -0.6335
28885SOL     OW91501   0.414   1.912   7.856 -0.6024 -0.1705  0.3974
28885SOL    HW191502   0.358   1.851   7.808  0.6304  0.1834 -1.5762
28885SOL    HW291503   0.391   1.998   7.821  1.0574 -0.0042 -0.3786
28886SOL     OW91504   8.350   0.933   7.079  0.5277  0.5819 -0.4877
28886SOL    HW191505   8.331   0.991   7.005  2.0623 -0.6582 -1.9411
28886SOL    HW291506   8.445   0.940   7.091  0.5944 -0.8349 -0.0290
28887SOL     OW91507   9.368   1.845   0.245 -0.1328  0.2479  0.0202
28887SOL    HW191508   9.299   1.911   0.244 -0.4668 -0.0940 -0.6060
28887SOL    HW291509   9.402   1.846   0.155  1.6170  1.3650  0.6499
28888SOL     OW91510   8.164   2.143   6.885  0.6856  0.0701 -0.1480
28888SOL    HW191511   8.078   2.118   6.851  1.3102 -0.3271 -1.5248
28888SOL    HW291512   8.199   2.062   6.923  1.5772 -0.5638 -2.1491
28889SOL     OW91513   8.480   2.606   9.426  0.0293 -0.3526 -0.1679
28889SOL    HW191514   8.450   2.588   9.515  0.4348 -1.4861 -0.2414
28889SOL    HW291515   8.490   2.701   9.423  0.3157 -0.3217  1.0904
28890SOL     OW91516   0.655   4.231   0.013  0.5141  0.0798  0.3713
28890SOL    HW191517   0.650   4.216   0.107 -0.6709  1.5371  0.5653
28890SOL    HW291518   0.711   4.159  -0.020 -0.7869 -1.7045  1.8614
28891SOL     OW91519   2.277   2.408   7.984 -0.1159 -0.2595 -0.4604
28891SOL    HW191520   2.244   2.320   7.971 -0.6694 -0.1265  0.0505
28891SOL    HW291521   2.349   2.398   8.047  0.8443 -0.5452 -1.5644
28892SOL     OW91522   8.209   1.689   6.426 -0.3052  0.6317  0.2859
28892SOL    HW191523   8.224   1.776   6.390  0.8289  0.0658 -0.7082
28892SOL    HW291524   8.290   1.641   6.406 -0.1974 -0.1489  2.3456
28893SOL     OW91525   9.190   0.622   9.598  0.0916 -0.5226  0.0958
28893SOL    HW191526   9.193   0.681   9.673 -0.1345 -1.4553  0.8518
28893SOL    HW291527   9.276   0.579   9.597 -0.7609 -2.3505  1.3551
28894SOL     OW91528   7.624   4.394   7.785 -0.1358  0.0759 -0.2678
28894SOL    HW191529   7.654   4.397   7.694  0.7402  0.5977  0.0223
28894SOL    HW291530   7.696   4.434   7.835 -0.0374 -1.3451  0.8003
28895SOL     OW91531   8.488   0.913   9.731 -0.0917 -0.0970 -0.2733
28895SOL    HW191532   8.535   0.850   9.676  1.2957 -0.8016  1.6176
28895SOL    HW291533   8.399   0.878   9.737  0.0676 -0.6551 -1.0682
28896SOL     OW91534   8.924   2.380   7.388 -0.6948  0.4474 -0.2143
28896SOL    HW191535   8.915   2.464   7.433  0.4462  0.0285  0.8636
28896SOL    HW291536   9.017   2.375   7.365 -0.8746 -0.2419 -0.8388
28897SOL     OW91537   7.012   1.865   7.720  0.0455 -0.0828 -0.2675
28897SOL    HW191538   7.105   1.886   7.735  0.0580 -1.2712  1.6944
28897SOL    HW291539   6.967   1.949   7.732  0.7612  0.2829 -0.0087
28898SOL     OW91540   0.721   2.524   8.846 -0.0399 -0.5227 -0.3824
28898SOL    HW191541   0.650   2.466   8.822 -2.6244  1.9841  0.6599
28898SOL    HW291542   0.683   2.612   8.845  2.5972  0.8282  1.7188
28899SOL     OW91543   6.809   3.510   1.376 -0.0440 -0.1855  0.1566
28899SOL    HW191544   6.771   3.436   1.424  1.2137 -0.4824  0.7392
28899SOL    HW291545   6.866   3.470   1.310 -0.4168  0.2516 -0.4376
28900SOL     OW91546   8.431   4.435   0.202  0.0768 -0.2383 -0.2706
28900SOL    HW191547   8.470   4.350   0.183 -1.0371 -0.9310  0.4178
28900SOL    HW291548   8.368   4.417   0.273  0.4727  1.3199  0.5118
28901SOL     OW91549   8.053   0.827   9.323  0.2399 -0.3701 -0.0118
28901SOL    HW191550   8.039   0.829   9.417 -0.9962  0.2074 -0.1948
28901SOL    HW291551   7.989   0.764   9.289 -0.1644  0.3284 -0.5842
28902SOL     OW91552   0.292   0.272   6.790 -0.0162 -0.1228  0.0877
28902SOL    HW191553   0.337   0.196   6.753  1.5883  0.9109 -0.1618
28902SOL    HW291554   0.330   0.347   6.744 -1.3616  0.8716  0.5296
28903SOL     OW91555   0.727   2.682   8.582  0.7328  0.2477  0.3115
28903SOL    HW191556   0.694   2.721   8.663 -0.5050 -1.3816  0.6431
28903SOL    HW291557   0.650   2.676   8.525  1.6565  1.6808 -1.1396
28904SOL     OW91558   9.389   2.760   7.841 -0.0474 -0.4410  0.2121
28904SOL    HW191559   9.370   2.849   7.872 -0.7899 -0.7988  0.8147
28904SOL    HW291560   9.303   2.723   7.820  0.3413 -0.6214 -1.1891
28905SOL     OW91561   0.071   4.040   9.452  0.6762 -0.3610  0.2584
28905SOL    HW191562   0.146   4.093   9.481 -0.5239  0.7445  1.5419
28905SOL    HW291563  -0.005   4.083   9.493 -0.9424 -0.0800 -2.7719
28906SOL     OW91564   8.446   2.110   6.459 -0.1114 -0.0785  0.4405
28906SOL    HW191565   8.484   2.054   6.526  0.8440 -0.2250 -0.1978
28906SOL    HW291566   8.426   2.050   6.387 -2.2976 -0.1332  1.0205
28907SOL     OW91567   1.941   3.599   7.905 -0.0030  0.5596  0.5927
28907SOL    HW191568   1.964   3.519   7.952 -0.5558 -0.4396 -0.7790
28907SOL    HW291569   1.899   3.569   7.825  2.4276  2.0927 -1.4297
28908SOL     OW91570   6.931   3.589   9.200 -0.9890 -0.1360 -0.3428
28908SOL    HW191571   6.905   3.631   9.282  1.1908 -0.9370  0.8442
28908SOL    HW291572   6.952   3.499   9.225  2.8886  0.4121 -1.0203
28909SOL     OW91573   7.716   2.074   7.735 -0.1463 -0.7222 -0.2470
28909SOL    HW191574   7.810   2.081   7.721 -0.1055 -1.2993 -0.2658
28909SOL    HW291575   7.689   2.163   7.760  0.5960 -0.8276  1.0044
28910SOL     OW91576   0.526   2.679   8.354 -0.4895 -0.8491  0.4619
28910SOL    HW191577   0.450   2.660   8.408 -0.0547 -0.4705  1.2179
28910SOL    HW291578   0.518   2.772   8.332 -0.5033 -0.9277  0.1174
28911SOL     OW91579   8.525   4.681   9.738  0.7088 -0.0627 -0.5050
28911SOL    HW191580   8.619   4.673   9.755  0.4483 -1.2263  0.6128
28911SOL    HW291581   8.496   4.591   9.724 -0.2443  0.2847 -0.8244
28912SOL     OW91582   8.598   5.027   8.672  0.2260  0.1705  0.9710
28912SOL    HW191583   8.688   5.055   8.660  0.2205 -0.7484 -2.6190
28912SOL    HW291584   8.545   5.103   8.646  0.0109  0.1382  1.3121
28913SOL     OW91585   9.186   1.349   9.343 -0.1330  0.0039  0.1626
28913SOL    HW191586   9.248   1.389   9.404  0.7216  0.3831 -0.9323
28913SOL    HW291587   9.234   1.340   9.261 -1.3278 -0.2895 -0.5352
28914SOL     OW91588   8.806   4.802   9.706 -0.5940 -0.1343 -0.1051
28914SOL    HW191589   8.875   4.741   9.730 -0.8561 -0.8967 -1.2125
28914SOL    HW291590   8.771   4.833   9.790 -0.1245 -1.1275  0.4692
28915SOL     OW91591   2.466   2.443   8.582 -0.1147 -0.1512  0.0429
28915SOL    HW191592   2.505   2.356   8.570 -0.4590 -0.7652  2.8240
28915SOL    HW291593   2.503   2.495   8.510  2.8871 -1.6677  0.3269
28916SOL     OW91594   7.808   3.230   6.458  0.0363 -0.4591 -0.0049
28916SOL    HW191595   7.899   3.260   6.455 -0.3763  0.8304 -0.5935
28916SOL    HW291596   7.763   3.297   6.510 -0.6924 -0.7627 -0.2372
28917SOL     OW91597   8.306   2.783   8.568 -1.0217 -0.6675  0.1923
28917SOL    HW191598   8.218   2.751   8.588 -2.4055  3.4481  1.7227
28917SOL    HW291599   8.294   2.843   8.495  0.7359 -0.7256 -0.1929
28918SOL     OW91600   9.403   4.596   1.097 -0.2371  0.3457  0.2538
28918SOL    HW191601   9.475   4.591   1.033  2.0251 -4.1925  2.7022
28918SOL    HW291602   9.332   4.546   1.057  0.3546 -0.5975  0.3597
28919SOL     OW91603   7.465   1.981   9.296 -0.3646 -0.9337  0.0346
28919SOL    HW191604   7.451   1.889   9.276 -1.9228 -0.5847 -0.6796
28919SOL    HW291605   7.515   2.014   9.221  0.0043 -1.1487  0.1859
28920SOL     OW91606   5.845   4.958   1.937  0.2993 -0.1907 -0.3176
28920SOL    HW191607   5.897   4.998   1.867  0.8407 -3.3782 -1.8959
28920SOL    HW291608   5.907   4.947   2.009  0.9986 -1.0251 -1.0230
28921SOL     OW91609   9.581   2.749   7.653  0.1429 -0.4782  0.6626
28921SOL    HW191610   9.562   2.822   7.594  0.4735 -1.5303 -0.8022
28921SOL    HW291611   9.511   2.752   7.718 -0.4809  0.4685 -0.0256
28922SOL     OW91612   9.785   2.868   8.693  0.5928 -0.7352 -0.0989
28922SOL    HW191613   9.797   2.928   8.767  0.3397 -1.1631  0.2938
28922SOL    HW291614   9.840   2.793   8.715 -0.5439 -1.4664  0.3324
28923SOL     OW91615   0.679   1.564   7.226 -0.0944  0.7571  0.2381
28923SOL    HW191616   0.721   1.624   7.164  3.3296 -0.4882  1.0901
28923SOL    HW291617   0.604   1.528   7.179  0.4431  2.3183 -1.9303
28924SOL     OW91618   9.545   2.209   6.974 -0.4203  0.1647 -0.1069
28924SOL    HW191619   9.518   2.179   6.887 -0.2732  2.0655 -0.8706
28924SOL    HW291620   9.587   2.294   6.958 -0.3484  0.5424  1.8177
28925SOL     OW91621   1.049   4.737   0.277  0.0926 -0.0250  0.3947
28925SOL    HW191622   0.993   4.766   0.205  0.5564 -1.1988 -0.4744
28925SOL    HW291623   1.027   4.645   0.289  2.0551 -0.6113 -0.1997
28926SOL     OW91624   9.257   6.207   9.724 -0.3867  0.2755 -0.1161
28926SOL    HW191625   9.250   6.125   9.675 -0.1195  0.2378 -0.0904
28926SOL    HW291626   9.323   6.190   9.791  0.4593  0.8390 -0.7851
28927SOL     OW91627   0.429   1.868   1.157  0.2555  1.0820  0.1008
28927SOL    HW191628   0.462   1.911   1.078 -0.9651  1.8306 -0.0314
28927SOL    HW291629   0.500   1.876   1.221  0.4572  2.3569 -0.2654
28928SOL     OW91630   9.715   4.443   0.375  0.2161  0.1764 -0.7416
28928SOL    HW191631   9.698   4.380   0.306 -0.1357 -2.9856  1.9703
28928SOL    HW291632   9.629   4.458   0.416  0.8866 -1.0563  1.2822
28929SOL     OW91633   8.951   1.645   8.439 -0.3968  0.0354  0.4878
28929SOL    HW191634   8.957   1.722   8.382 -0.5373  0.1839  0.6713
28929SOL    HW291635   9.023   1.656   8.502  1.8249 -1.7287 -1.5612
28930SOL     OW91636   9.285   3.497   8.234  0.3570  0.6183 -0.8155
28930SOL    HW191637   9.271   3.506   8.328  1.0424 -1.3230 -0.4829
28930SOL    HW291638   9.357   3.435   8.226  0.4399  0.8911 -2.6239
28931SOL     OW91639   8.521   1.648   9.087 -0.1061 -0.1099 -0.0239
28931SOL    HW191640   8.458   1.695   9.031 -0.3608 -0.4318 -0.0070
28931SOL    HW291641   8.601   1.644   9.035 -0.3475 -0.4211 -0.3727
28932SOL     OW91642   9.336   1.575   8.281 -0.4164 -0.3302  0.1448
28932SOL    HW191643   9.299   1.656   8.316 -1.6036 -0.5849 -0.4666
28932SOL    HW291644   9.387   1.603   8.205  0.6256  0.0143  0.9461
28933SOL     OW91645   9.654   2.966   1.876  0.2989  0.0025 -0.7288
28933SOL    HW191646   9.622   2.931   1.959 -0.6050 -0.5648 -1.2910
28933SOL    HW291647   9.652   2.891   1.816  2.5363 -0.0150 -0.8591
28934SOL     OW91648   8.594   1.461   0.004  0.1188  0.4152  0.2985
28934SOL    HW191649   8.637   1.453   0.089  1.5656 -1.3075 -0.5305
28934SOL    HW291650   8.612   1.551  -0.023  1.3643  0.3842  0.9378
28935SOL     OW91651   8.855   2.341   8.925 -0.2519 -0.9522 -0.2223
28935SOL    HW191652   8.797   2.409   8.959 -0.1141 -1.4149  0.9661
28935SOL    HW291653   8.890   2.378   8.844 -1.0758 -0.0848 -0.1967
28936SOL     OW91654   8.736   4.064   0.341  0.1270  0.4113  0.4811
28936SOL    HW191655   8.813   4.036   0.390 -0.1674  0.9045  1.2488
28936SOL    HW291656   8.692   3.983   0.316  0.6166  0.1405  0.4987
28937SOL     OW91657   6.989   9.461   8.677 -0.3158  0.5767 -0.2988
28937SOL    HW191658   6.952   9.547   8.698  0.1643  0.8502 -0.5501
28937SOL    HW291659   7.072   9.457   8.725 -0.5603  0.0590  0.0874
28938SOL     OW91660   8.534   1.657   0.735  0.2558 -0.0266  0.4797
28938SOL    HW191661   8.442   1.673   0.754  0.3154  0.0603  0.6940
28938SOL    HW291662   8.536   1.639   0.641 -0.0236 -0.3540  0.5344
28939SOL     OW91663   9.496   3.231   8.677  0.3873 -1.0355  0.3101
28939SOL    HW191664   9.491   3.295   8.606  0.9863 -2.5379 -1.1527
28939SOL    HW291665   9.409   3.233   8.718 -0.0461 -0.2852 -0.6162
28940SOL     OW91666   0.845   3.678   0.919  0.2383  0.4059 -0.1130
28940SOL    HW191667   0.885   3.672   1.005  0.4920  2.9526  0.0185
28940SOL    HW291668   0.752   3.660   0.934  0.4810 -0.3939  0.4567
28941SOL     OW91669   0.436   5.009   8.258  0.1227 -0.1129  0.0408
28941SOL    HW191670   0.421   5.039   8.348 -0.1210 -0.8330  0.2543
28941SOL    HW291671   0.478   5.083   8.214 -1.2852  0.8761  0.2828
28942SOL     OW91672   9.158   9.857   0.573  0.1652 -0.0272 -0.4218
28942SOL    HW191673   9.217   9.800   0.523  0.6971  1.0802 -1.0688
28942SOL    HW291674   9.212   9.931   0.599 -0.7411  0.6019 -0.3028
28943SOL     OW91675   8.562   2.445   0.337  0.5304  0.1549  0.6794
28943SOL    HW191676   8.627   2.377   0.356  1.4609  0.5999 -0.6850
28943SOL    HW291677   8.560   2.449   0.241 -0.3137  1.2830  0.7273
28944SOL     OW91678   9.004   4.503   8.699 -0.3365  0.3690  0.3166
28944SOL    HW191679   9.004   4.588   8.742  1.7581  0.4413  0.2697
28944SOL    HW291680   8.995   4.440   8.771 -0.8342  0.5866  0.4488
28945SOL     OW91681   0.454   2.860   9.106 -0.1972  0.4062 -0.0225
28945SOL    HW191682   0.372   2.813   9.098  0.1474 -0.1894 -0.0686
28945SOL    HW291683   0.442   2.939   9.053 -0.9754  0.6536  0.5050
28946SOL     OW91684   9.600   1.320   1.209 -0.6173  0.6007 -0.2770
28946SOL    HW191685   9.660   1.393   1.226  0.3584 -0.1611 -0.3703
28946SOL    HW291686   9.585   1.280   1.294 -0.0053  0.0396 -0.4303
28947SOL     OW91687   0.287   0.575   0.615 -0.3986 -0.3807  0.5471
28947SOL    HW191688   0.225   0.645   0.597  1.6188  0.7079 -3.5551
28947SOL    HW291689   0.250   0.499   0.569 -0.8018 -1.0237  1.8959
28948SOL     OW91690   0.561   3.927   8.899  0.1890 -0.0123 -0.3214
28948SOL    HW191691   0.539   3.836   8.878  0.9352 -0.2008 -0.3032
28948SOL    HW291692   0.602   3.922   8.986  0.5473  0.2964 -0.4695
28949SOL     OW91693   0.315   1.778   1.628  0.1625 -0.2072 -0.6778
28949SOL    HW191694   0.279   1.821   1.550  1.8691  0.9961 -0.8657
28949SOL    HW291695   0.409   1.769   1.610 -0.0144 -3.8922 -0.5211
28950SOL     OW91696   9.432   1.772   8.735  0.6415  0.5946 -0.7010
28950SOL    HW191697   9.420   1.737   8.823 -0.6259 -1.1805 -1.5258
28950SOL    HW291698   9.490   1.709   8.692  0.1033  0.6701 -1.5575
28951SOL     OW91699   0.592   2.284   9.708  0.2898  0.0226  0.4460
28951SOL    HW191700   0.567   2.193   9.690 -1.2472 -0.1158  2.8068
28951SOL    HW291701   0.642   2.280   9.789  2.5655  1.0755 -0.8078
28952SOL     OW91702   8.492   3.268   0.442  0.5096  0.0442  0.3006
28952SOL    HW191703   8.532   3.210   0.377  1.0173  1.2058 -0.4735
28952SOL    HW291704   8.412   3.223   0.468  1.2955 -1.3807  0.3620
28953SOL     OW91705   0.324   2.468   1.094 -0.1192 -0.0646 -0.1653
28953SOL    HW191706   0.398   2.496   1.039 -0.6789  0.0054 -0.8974
28953SOL    HW291707   0.267   2.545   1.097 -0.4970 -0.3446 -0.1769
28954SOL     OW91708   9.522   4.746   1.339 -0.5207  0.2136  0.1108
28954SOL    HW191709   9.573   4.757   1.419 -1.4737  1.5147  0.5799
28954SOL    HW291710   9.578   4.694   1.282 -0.1044 -1.4252  1.8737
28955SOL     OW91711   9.074   2.829   0.203  0.0548 -0.1106 -0.5527
28955SOL    HW191712   9.132   2.862   0.134  0.7405 -0.4051 -0.1215
28955SOL    HW291713   9.004   2.895   0.209  0.7688  0.6594 -0.5271
28956SOL     OW91714   9.449   4.104   1.480  0.0041 -0.2810  0.3453
28956SOL    HW191715   9.528   4.065   1.517  1.4753  1.8428 -0.3423
28956SOL    HW291716   9.410   4.152   1.554 -0.3824 -0.9242  0.5640
28957SOL     OW91717   0.375   7.188   9.708  0.6270 -0.1453  0.2257
28957SOL    HW191718   0.461   7.199   9.750 -0.8778  0.2074  3.5519
28957SOL    HW291719   0.339   7.109   9.748 -0.4890 -0.4983 -1.3857
28958SOL     OW91720   7.658   5.895   1.608  0.0387  0.2027 -0.1317
28958SOL    HW191721   7.736   5.898   1.663  0.4588 -0.1754 -0.6988
28958SOL    HW291722   7.588   5.867   1.667  0.3260  0.5443  0.3788
28959SOL     OW91723   0.082   3.307   3.290 -0.0252  0.0374  0.0442
28959SOL    HW191724   0.075   3.216   3.261  1.4513  0.3322 -1.3515
28959SOL    HW291725   0.036   3.357   3.222 -0.7803  0.3601  0.7752
28960SOL     OW91726   9.454   3.378   9.295 -0.0217 -0.3697 -0.0484
28960SOL    HW191727   9.399   3.455   9.282 -1.0967 -0.9904  0.6075
28960SOL    HW291728   9.412   3.331   9.367  1.9840 -0.3515  1.1777
28961SOL     OW91729   0.625   2.928   1.927  0.3606  0.0825  0.1167
28961SOL    HW191730   0.561   2.859   1.946  1.2007 -0.7757 -0.1077
28961SOL    HW291731   0.616   2.944   1.833 -1.1023  1.6031  0.4631
28962SOL     OW91732   0.139   5.423   3.356  0.1399  0.2618 -0.8388
28962SOL    HW191733   0.158   5.359   3.425  1.0098  0.7806 -0.5818
28962SOL    HW291734   0.084   5.375   3.294  0.5983 -0.6729 -0.5470
28963SOL     OW91735   8.704   5.572   2.183  0.5239  0.1681  0.1975
28963SOL    HW191736   8.662   5.609   2.260  0.1869  1.3623 -0.5324
28963SOL    HW291737   8.797   5.590   2.195  0.5044  0.1140  0.4371
28964SOL     OW91738   8.197   4.827   0.887  0.1739  0.4331  0.3241
28964SOL    HW191739   8.116   4.859   0.927  0.0142  1.0226 -0.4521
28964SOL    HW291740   8.247   4.791   0.960  0.7612  3.2537  1.4272
28965SOL     OW91741   8.630   2.329   1.089 -0.0586  0.0040  0.2042
28965SOL    HW191742   8.535   2.318   1.079 -0.0404 -0.7925  0.8128
28965SOL    HW291743   8.662   2.242   1.112  0.6883  0.4736  0.9899
28966SOL     OW91744   0.204   3.404   8.420  0.0765  0.3143  0.2018
28966SOL    HW191745   0.153   3.395   8.340  0.2210 -1.4187  0.2529
28966SOL    HW291746   0.295   3.406   8.391  0.3417 -3.1458  0.3384
28967SOL     OW91747   9.143   4.481   0.673  0.2556  0.3827 -0.3781
28967SOL    HW191748   9.116   4.389   0.664  0.5716  0.1428  0.8750
28967SOL    HW291749   9.061   4.530   0.670  0.0297  0.0021 -0.5077
28968SOL     OW91750   6.768   5.750   0.759  0.3946  0.0910  0.2192
28968SOL    HW191751   6.861   5.726   0.751  0.3624 -0.8897  2.2522
28968SOL    HW291752   6.723   5.692   0.698  1.1538  1.1499 -1.4206
28969SOL     OW91753   0.943   3.616   0.369 -0.8035 -1.1231 -0.0144
28969SOL    HW191754   0.889   3.563   0.311 -2.5103  0.2824  0.2232
28969SOL    HW291755   0.970   3.691   0.315 -2.2223  0.0836  0.8689
28970SOL     OW91756   0.253   4.283   3.097  0.5138  0.1002 -0.6167
28970SOL    HW191757   0.198   4.294   3.020  0.7393 -1.9281 -1.1239
28970SOL    HW291758   0.221   4.203   3.139 -1.7940  2.7268  3.3300
28971SOL     OW91759   0.089   4.138   2.887  0.2977  0.1588 -0.6835
28971SOL    HW191760   0.134   4.144   2.803  3.1173  0.0553  0.6963
28971SOL    HW291761   0.056   4.049   2.890 -1.1642  0.6013 -2.2501
28972SOL     OW91762   9.730   1.793   1.343 -0.3153  0.0892  0.4361
28972SOL    HW191763   9.776   1.870   1.377 -0.0471 -0.0685  0.4305
28972SOL    HW291764   9.687   1.755   1.419  0.2539 -0.2420  0.6012
28973SOL     OW91765   0.504   5.313   2.055  0.4925  0.6541 -0.0595
28973SOL    HW191766   0.410   5.321   2.070  0.6123  1.8710  0.2053
28973SOL    HW291767   0.512   5.266   1.973 -0.2993 -1.1479  0.8529
28974SOL     OW91768   0.363   5.246   7.304  0.4900 -0.0421 -0.3079
28974SOL    HW191769   0.437   5.230   7.363 -0.1608 -0.3736  0.4440
28974SOL    HW291770   0.317   5.162   7.300  0.9899 -0.2630 -1.9845
28975SOL     OW91771   1.405   2.649   2.200 -0.2129  0.5101  0.0422
28975SOL    HW191772   1.457   2.598   2.138  0.1237 -0.4085  1.0330
28975SOL    HW291773   1.383   2.586   2.269  0.0898  1.6841  1.2489
28976SOL     OW91774   0.852   4.939   1.820  0.4993  0.4910  0.2263
28976SOL    HW191775   0.805   5.007   1.772 -0.7353 -0.9599 -0.7485
28976SOL    HW291776   0.786   4.873   1.840  1.8629 -1.0562 -0.0677
28977SOL     OW91777   9.456   5.407   0.786 -0.1548 -0.7340 -0.7623
28977SOL    HW191778   9.520   5.446   0.846 -0.5911 -0.4547 -0.4707
28977SOL    HW291779   9.374   5.453   0.806 -0.2433 -0.4163 -1.7885
28978SOL     OW91780   8.257   6.313   9.495 -0.0928  0.2360 -0.0674
28978SOL    HW191781   8.281   6.395   9.539 -1.4992 -0.1872  1.5778
28978SOL    HW291782   8.305   6.245   9.543 -1.6686 -0.2330  0.9453
28979SOL     OW91783   0.293   5.204   8.703 -0.2276 -0.2731  0.0339
28979SOL    HW191784   0.326   5.293   8.714 -0.0672 -0.3379  0.0920
28979SOL    HW291785   0.246   5.205   8.619  0.4591 -0.3275 -0.3655
28980SOL     OW91786   7.955   4.104   9.109 -0.3900  0.4246  0.4375
28980SOL    HW191787   8.037   4.054   9.109 -0.7939 -0.2610 -0.1967
28980SOL    HW291788   7.936   4.120   9.201  0.0436 -0.1037  0.6196
28981SOL     OW91789   8.675   4.402   9.386  0.2984 -0.0937 -0.3916
28981SOL    HW191790   8.744   4.467   9.394  1.1937 -1.0585 -0.0545
28981SOL    HW291791   8.622   4.433   9.313  1.3354  0.4431 -0.9422
28982SOL     OW91792   9.320   6.112   1.189 -0.0348  0.4123 -0.2519
28982SOL    HW191793   9.321   6.187   1.130 -0.5676  0.4558 -0.2129
28982SOL    HW291794   9.364   6.142   1.268 -0.8716  0.9163  0.0364
28983SOL     OW91795   9.168   3.101   8.647  0.3222 -0.1162  0.3120
28983SOL    HW191796   9.094   3.146   8.688 -0.1174  0.0030 -0.5890
28983SOL    HW291797   9.205   3.047   8.717 -0.5123 -0.0465  0.8221
28984SOL     OW91798   9.190   5.355   7.392 -0.3158 -0.0248 -0.6390
28984SOL    HW191799   9.255   5.357   7.462  0.6830 -1.1125 -1.4945
28984SOL    HW291800   9.236   5.390   7.315 -0.4236 -1.6146 -1.4768
28985SOL     OW91801   0.172   4.251   9.631 -0.1309 -0.2635 -0.0829
28985SOL    HW191802   0.121   4.325   9.598  2.1780  0.4645 -2.4559
28985SOL    HW291803   0.224   4.288   9.703 -0.7131 -0.2263  0.3245
28986SOL     OW91804   0.962   2.036   8.998  0.5023 -0.3888  0.0243
28986SOL    HW191805   0.979   1.952   8.956 -4.2351 -1.4129 -0.3859
28986SOL    HW291806   0.923   2.014   9.082 -1.3135  1.3294 -0.2914
28987SOL     OW91807   8.261   5.970   9.849  0.1748  0.4798 -1.1429
28987SOL    HW191808   8.311   5.951   9.769  3.0183 -0.7629  0.7978
28987SOL    HW291809   8.290   6.057   9.875  0.7296  0.0879 -0.4402
28988SOL     OW91810   9.788   5.882   0.331  0.2331  0.0456 -0.0145
28988SOL    HW191811   9.849   5.930   0.386  0.6255 -0.9984  0.4944
28988SOL    HW291812   9.711   5.869   0.386 -0.6731  1.7571 -0.8059
28989SOL     OW91813   1.100   3.007   0.174  0.0911 -0.2019  0.2128
28989SOL    HW191814   1.068   2.987   0.085 -0.4216  2.5265 -0.2937
28989SOL    HW291815   1.056   2.942   0.229 -1.6655 -0.3380 -1.2222
28990SOL     OW91816   2.866   2.395   8.637 -0.2358  0.0833  0.0440
28990SOL    HW191817   2.945   2.342   8.628 -0.4568 -0.0774 -1.1062
28990SOL    HW291818   2.799   2.332   8.664 -0.3842 -0.1473 -0.8287
28991SOL     OW91819   0.639   4.383   0.556  0.0955 -0.8376 -0.0118
28991SOL    HW191820   0.696   4.413   0.485 -0.7107 -0.1293 -0.3780
28991SOL    HW291821   0.623   4.291   0.538  1.5664 -1.2037  0.4084
28992SOL     OW91822   0.963   5.609   9.503  0.1481 -0.1090 -0.7517
28992SOL    HW191823   0.968   5.526   9.456 -0.1197 -1.2599  1.1266
28992SOL    HW291824   0.879   5.646   9.476  0.3189 -0.3780 -1.6964
28993SOL     OW91825   0.080   6.650   0.901  0.2849  0.4212 -0.2290
28993SOL    HW191826   0.029   6.723   0.868 -0.2095  0.1795  0.0023
28993SOL    HW291827   0.105   6.601   0.822  0.0247  0.4484 -0.3263
28994SOL     OW91828   2.140   4.381   1.258  0.4874  0.1605 -0.0045
28994SOL    HW191829   2.177   4.449   1.203 -0.4898  0.0983 -0.7781
28994SOL    HW291830   2.045   4.395   1.253  0.3442  1.9469  3.9504
28995SOL     OW91831   0.921   5.942   3.070  0.3404 -0.6866  0.4071
28995SOL    HW191832   0.864   5.868   3.047 -0.2114 -0.1217 -0.0665
28995SOL    HW291833   0.870   5.994   3.132  1.0791 -1.1697  1.4543
28996SOL     OW91834   0.061   3.308   4.447 -0.8561 -0.2222  0.4299
28996SOL    HW191835   0.107   3.380   4.490 -0.1075 -1.8238  2.5062
28996SOL    HW291836   0.124   3.274   4.384 -0.9228  0.4067  0.0108
28997SOL     OW91837   0.609   2.361   1.667 -0.2127  0.1696  0.0461
28997SOL    HW191838   0.610   2.295   1.598 -2.1878  0.7280 -0.6002
28997SOL    HW291839   0.680   2.422   1.643  0.1538 -0.4966 -0.5884
28998SOL     OW91840   9.628   3.101   0.873  0.2314  0.9309 -0.1764
28998SOL    HW191841   9.638   3.118   0.966  1.4158  1.3639 -0.3715
28998SOL    HW291842   9.718   3.093   0.840 -0.1239 -2.5967 -0.6793
28999SOL     OW91843   9.565   4.671   0.097  0.0786  0.4294 -0.4179
28999SOL    HW191844   9.570   4.726   0.019 -2.9511 -1.1455 -1.9042
28999SOL    HW291845   9.656   4.656   0.123  1.0911  3.3815 -1.8513
29000SOL     OW91846   8.470   5.134   2.341  0.6230  0.0228  0.1067
29000SOL    HW191847   8.538   5.068   2.354  0.9302  0.4492  0.6915
29000SOL    HW291848   8.515   5.208   2.301  0.7199  0.6867  1.4043
29001SOL     OW91849   0.586   5.514   9.413  0.2408 -0.2516  0.1017
29001SOL    HW191850   0.507   5.567   9.403  0.9600  0.5317 -1.9503
29001SOL    HW291851   0.599   5.507   9.507 -0.6898  2.0032  0.4499
29002SOL     OW91852   0.960   3.991   1.998  0.1136  0.3477 -0.0843
29002SOL    HW191853   1.055   3.985   2.006  0.1799 -0.7404 -1.4353
29002SOL    HW291854   0.945   4.037   1.916 -0.5250 -0.2366 -0.3028
29003SOL     OW91855   9.033   5.779   1.438  0.8041  0.2370 -0.2462
29003SOL    HW191856   8.993   5.711   1.492  0.5074 -0.4065 -1.2683
29003SOL    HW291857   9.117   5.741   1.410  0.2735 -0.0520 -1.4946
29004SOL     OW91858   2.394   5.338   8.229  0.3080 -0.3036  0.3975
29004SOL    HW191859   2.410   5.290   8.148 -3.0335 -0.6082 -0.2255
29004SOL    HW291860   2.378   5.270   8.295  0.9904 -0.0352  0.8595
29005SOL     OW91861   8.253   1.731   0.326  0.3906  0.2357  0.0445
29005SOL    HW191862   8.198   1.692   0.394  1.2206  0.8622  1.0910
29005SOL    HW291863   8.333   1.678   0.326  0.4906  0.3803 -0.2905
29006SOL     OW91864   9.395   3.252   0.467 -0.2365 -0.6188  0.3833
29006SOL    HW191865   9.302   3.234   0.480 -0.7235  1.8362  0.9289
29006SOL    HW291866   9.429   3.269   0.555  0.3645 -0.0407  0.0503
29007SOL     OW91867   8.514   4.718   1.670 -0.0186  0.1106  0.1891
29007SOL    HW191868   8.508   4.767   1.588  0.3330  1.8283  1.1357
29007SOL    HW291869   8.606   4.693   1.676  0.1901  0.9042  0.5276
29008SOL     OW91870   1.208   5.086   2.120 -0.2339  0.1476  0.0140
29008SOL    HW191871   1.176   4.998   2.139  0.7907 -0.3540 -0.4733
29008SOL    HW291872   1.298   5.073   2.088 -0.1801  1.3396 -0.4011
29009SOL     OW91873   8.384   6.448   0.168 -0.0186 -0.2237 -0.5309
29009SOL    HW191874   8.332   6.372   0.140  1.0370 -1.3230  0.3916
29009SOL    HW291875   8.363   6.458   0.261 -2.0472  2.2122 -1.1490
29010SOL     OW91876   1.223   5.808   2.586 -0.1182  0.5256  0.0638
29010SOL    HW191877   1.215   5.715   2.606  1.5609  0.5975  1.3131
29010SOL    HW291878   1.188   5.852   2.663  0.2904  0.8988  0.0413
29011SOL     OW91879   0.446   2.722   1.960  0.2962  0.1625 -0.0431
29011SOL    HW191880   0.360   2.745   1.924 -0.1856 -0.9120  0.3629
29011SOL    HW291881   0.434   2.634   1.996  0.3524  1.5746  3.8805
29012SOL     OW91882   9.546   3.474   0.658  0.3741 -0.1384  0.9234
29012SOL    HW191883   9.479   3.540   0.643 -0.3656 -0.5476  2.2106
29012SOL    HW291884   9.560   3.433   0.573  0.1640  1.0327  0.3083
29013SOL     OW91885   9.116   4.609   8.476  0.4705 -0.9318 -0.2630
29013SOL    HW191886   9.126   4.606   8.571 -0.2494  0.3076 -0.1238
29013SOL    HW291887   9.146   4.696   8.451 -0.5321 -0.7716 -1.0090
29014SOL     OW91888   2.372   4.526   9.394  0.3085  0.1063 -0.5410
29014SOL    HW191889   2.297   4.471   9.414  0.7116 -0.2251  0.1092
29014SOL    HW291890   2.341   4.586   9.327 -0.3455 -0.4549 -0.7530
29015SOL     OW91891   0.817   5.040   8.346 -0.1554 -0.2857  0.6023
29015SOL    HW191892   0.789   5.082   8.265  0.3724 -0.4298  0.3434
29015SOL    HW291893   0.736   5.025   8.395 -0.6382 -1.6467 -0.5795
29016SOL     OW91894   8.450   5.846   0.863  0.5389 -0.9122 -0.5086
29016SOL    HW191895   8.373   5.847   0.807  0.5064 -2.0726 -0.5104
29016SOL    HW291896   8.456   5.935   0.898  1.6077  0.4615 -3.7321
29017SOL     OW91897   8.454   5.169   9.080  0.0431  0.0586  0.3664
29017SOL    HW191898   8.446   5.125   9.164 -1.3335 -1.2316 -0.4027
29017SOL    HW291899   8.394   5.243   9.085  0.6459  0.5312  0.8215
29018SOL     OW91900   0.316   2.618   9.845 -0.4037  0.1888 -0.4629
29018SOL    HW191901   0.307   2.601   9.752 -0.6934 -0.3723 -0.3418
29018SOL    HW291902   0.367   2.698   9.851  1.6187 -0.9665 -1.0841
29019SOL     OW91903   8.018   3.988   1.534 -0.2437  0.3205 -0.3355
29019SOL    HW191904   8.001   4.053   1.602  0.4118  0.8845 -0.7012
29019SOL    HW291905   7.957   4.011   1.463  0.9818  1.4561 -1.0598
29020SOL     OW91906   1.069   6.766   1.076  0.8597  0.8365 -0.7150
29020SOL    HW191907   1.111   6.750   1.161  0.0041  0.8247 -0.2846
29020SOL    HW291908   1.072   6.682   1.031 -1.5726 -0.0578  0.6221
29021SOL     OW91909   7.906   4.667   1.803 -0.5241 -0.6310 -0.2857
29021SOL    HW191910   7.930   4.694   1.714 -0.3395 -1.2108 -0.4182
29021SOL    HW291911   7.935   4.576   1.808  0.5935 -0.2319  0.7963
29022SOL     OW91912   7.736   5.752   1.119  0.3243 -0.4131 -0.1623
29022SOL    HW191913   7.747   5.845   1.101 -0.6055  0.3332  2.6260
29022SOL    HW291914   7.729   5.746   1.214 -1.2266 -3.1547 -0.3232
29023SOL     OW91915   9.565   5.611   1.867  0.0398 -0.2913  0.4082
29023SOL    HW191916   9.621   5.585   1.794  0.2477 -0.2077  0.5365
29023SOL    HW291917   9.626   5.629   1.939 -0.1623 -0.3686  0.6005
29024SOL     OW91918   1.709   3.066   2.696 -0.0215 -0.6072  0.0208
29024SOL    HW191919   1.767   2.996   2.663  0.4123  0.6652 -2.1532
29024SOL    HW291920   1.746   3.146   2.659 -1.3232  0.6298  1.2983
29025SOL     OW91921   8.284   5.621   0.572  0.1304 -0.1813 -0.5906
29025SOL    HW191922   8.262   5.584   0.486 -0.2916 -1.2102 -0.0547
29025SOL    HW291923   8.302   5.545   0.627 -0.9573  0.3861  0.5954
29026SOL     OW91924   8.762   3.442   8.491  0.2317  0.5644 -0.3565
29026SOL    HW191925   8.732   3.477   8.406 -0.2244  0.6620 -0.1563
29026SOL    HW291926   8.721   3.499   8.556  1.0084  0.8174 -0.0804
29027SOL     OW91927   9.439   4.062   1.196  0.5683 -0.6511  0.0857
29027SOL    HW191928   9.441   4.084   1.289 -0.0991 -0.0148 -0.0462
29027SOL    HW291929   9.515   4.004   1.184  0.9057 -0.4050  0.9356
29028SOL     OW91930   8.885   4.493   3.860 -0.1324  0.1471 -0.1449
29028SOL    HW191931   8.861   4.449   3.942 -0.7143 -1.3179 -1.0703
29028SOL    HW291932   8.947   4.560   3.887  0.1814 -0.7233  1.4299
29029SOL     OW91933   9.136   6.692   9.414  0.2916  0.3685 -0.2770
29029SOL    HW191934   9.104   6.626   9.352  0.0711  0.0346  0.1877
29029SOL    HW291935   9.178   6.641   9.483 -0.6580  0.6613  0.5336
29030SOL     OW91936   7.231   4.503   5.328  0.1333  0.0005  0.1087
29030SOL    HW191937   7.285   4.427   5.350 -1.0071 -0.5262  1.2776
29030SOL    HW291938   7.179   4.518   5.407 -2.6510 -0.5974 -1.4726
29031SOL     OW91939   9.839   4.439   4.951  0.1280  0.0354  0.0581
29031SOL    HW191940   9.925   4.475   4.933  0.1225  0.1339  0.2369
29031SOL    HW291941   9.808   4.485   5.029 -0.7218  1.1016 -0.8580
29032SOL     OW91942   7.709   3.659   2.631 -0.9958  0.3037  0.0232
29032SOL    HW191943   7.779   3.622   2.685 -0.5421  3.2048  1.6288
29032SOL    HW291944   7.714   3.611   2.549  1.3492 -1.1341  0.9055
29033SOL     OW91945   1.244   4.809   1.950 -0.1496 -0.2526  0.1234
29033SOL    HW191946   1.209   4.802   2.038  0.6862 -2.1198  0.3552
29033SOL    HW291947   1.339   4.814   1.961 -0.1220  1.7485 -0.6115
29034SOL     OW91948   1.077   4.789   9.717 -0.3913 -0.2717 -0.3612
29034SOL    HW191949   0.998   4.803   9.666 -0.4391 -1.9887 -0.8421
29034SOL    HW291950   1.061   4.835   9.800 -0.5860  1.9864 -1.5833
29035SOL     OW91951   7.828   2.477   2.623  0.4975 -0.1135  0.3392
29035SOL    HW191952   7.777   2.456   2.545 -0.3433  0.1041  0.8096
29035SOL    HW291953   7.815   2.571   2.634  0.6139 -0.1443  0.7372
29036SOL     OW91954   7.750   6.296   1.186  0.4682 -0.4380  0.6692
29036SOL    HW191955   7.806   6.330   1.116  0.4854  0.7769  1.2543
29036SOL    HW291956   7.776   6.345   1.264 -1.5943  0.3796  0.8898
29037SOL     OW91957   1.004   4.404   5.067  0.2889  0.0711  0.2937
29037SOL    HW191958   0.946   4.393   5.142  3.5156  1.4274  3.2745
29037SOL    HW291959   1.005   4.499   5.051  0.6764 -0.0727 -0.6259
29038SOL     OW91960   0.632   5.453   1.486 -0.7164 -0.2740 -0.1219
29038SOL    HW191961   0.634   5.357   1.489 -0.2609 -0.2729 -0.2903
29038SOL    HW291962   0.720   5.478   1.457 -0.7868  0.2009  0.0617
29039SOL     OW91963   7.817   4.553   2.673 -0.2369 -0.3618  0.1598
29039SOL    HW191964   7.886   4.575   2.610 -0.4921 -0.2578 -0.0856
29039SOL    HW291965   7.859   4.562   2.759 -0.0132 -0.0536  0.0207
29040SOL     OW91966   9.839   4.957   4.209 -0.1207  0.0661 -0.2838
29040SOL    HW191967   9.810   4.868   4.225 -1.1013  0.4345  0.0606
29040SOL    HW291968   9.878   4.986   4.292  0.1366 -0.0128 -0.3754
29041SOL     OW91969   7.636   5.751   3.190 -0.2702 -0.0715 -0.2098
29041SOL    HW191970   7.691   5.825   3.215  0.0941 -0.3407 -0.2051
29041SOL    HW291971   7.698   5.683   3.162 -0.4800 -1.0144  1.4307
29042SOL     OW91972   7.802   3.565   1.987 -0.0267 -0.3830 -0.5928
29042SOL    HW191973   7.818   3.579   1.894 -0.7486 -0.7744 -0.7799
29042SOL    HW291974   7.888   3.540   2.022  1.2178  3.4951 -0.3652
29043SOL     OW91975   9.536   4.953   2.969 -0.1408 -0.0172  0.3041
29043SOL    HW191976   9.449   4.990   2.954  0.4905  1.0392 -0.8962
29043SOL    HW291977   9.559   4.910   2.887  0.5194 -0.1770  0.5616
29044SOL     OW91978   8.887   4.595   2.271 -0.0469  0.0200 -0.3892
29044SOL    HW191979   8.925   4.520   2.318 -1.4305 -0.3681  0.1863
29044SOL    HW291980   8.806   4.614   2.319 -1.1513  0.0804 -2.1735
29045SOL     OW91981   7.483   3.636   1.833  0.0931 -0.2289  0.3135
29045SOL    HW191982   7.428   3.692   1.778 -0.9051 -1.8511 -0.4040
29045SOL    HW291983   7.570   3.642   1.794 -0.0971  0.4803 -0.0136
29046SOL     OW91984   1.468   5.757   4.078  0.0661 -0.7419 -0.4270
29046SOL    HW191985   1.546   5.784   4.127  0.3772 -1.4000 -0.5545
29046SOL    HW291986   1.406   5.728   4.145  0.6523 -2.0594 -0.4323
29047SOL     OW91987   8.501   5.297   2.698  0.3763 -0.2804  0.6025
29047SOL    HW191988   8.538   5.330   2.780  0.4712 -1.1885  0.9348
29047SOL    HW291989   8.444   5.225   2.724 -0.7771  0.3855 -0.0099
29048SOL     OW91990   9.418   4.929   9.709 -0.2056  0.2943 -0.0585
29048SOL    HW191991   9.446   4.894   9.624 -0.5439  1.2528 -0.5785
29048SOL    HW291992   9.468   5.010   9.719  0.4457 -0.2203  1.0537
29049SOL     OW91993   2.814   2.003   9.393  0.3688  0.0392 -0.1965
29049SOL    HW191994   2.815   1.969   9.482  1.0178 -0.5631 -0.4253
29049SOL    HW291995   2.745   2.070   9.393  1.3121  1.0497  1.1192
29050SOL     OW91996   0.774   4.396   1.608 -0.8884 -0.0564 -0.6582
29050SOL    HW191997   0.776   4.492   1.598 -0.7108 -0.0951 -1.0121
29050SOL    HW291998   0.831   4.379   1.682  0.3155 -0.0006 -1.5492
29051SOL     OW91999   0.151   3.476   2.802 -0.2054  0.4627  0.1523
29051SOL    HW192000   0.225   3.453   2.858 -0.1377  1.1906  0.3717
29051SOL    HW292001   0.186   3.477   2.713 -0.3123 -0.6973  0.0787
29052SOL     OW92002   8.637   3.608   1.499 -0.5095  0.3228  0.0176
29052SOL    HW192003   8.711   3.566   1.544 -0.5561  1.1221  0.8660
29052SOL    HW292004   8.666   3.698   1.486 -1.1184  0.4902 -0.1639
29053SOL     OW92005   2.473   4.571   4.430  0.0434  0.3221 -0.3626
29053SOL    HW192006   2.383   4.541   4.437  1.1010 -3.3214 -0.2710
29053SOL    HW292007   2.493   4.570   4.337  0.5000 -0.8470 -0.2740
29054SOL     OW92008   9.783   1.039   2.166  0.2849 -0.2046 -0.0469
29054SOL    HW192009   9.824   1.107   2.220  2.0846  0.2053 -1.8089
29054SOL    HW292010   9.762   0.969   2.229  0.6533  0.9529  1.4400
29055SOL     OW92011   8.816   5.638   2.532 -0.0506  0.3187 -0.1724
29055SOL    HW192012   8.745   5.676   2.481  0.7398  0.7725 -0.9521
29055SOL    HW292013   8.896   5.669   2.490  0.6635  1.7672  2.0877
29056SOL     OW92014   7.502   1.588   1.442  0.3203 -0.3116  0.0770
29056SOL    HW192015   7.544   1.674   1.449 -0.7325  0.1713  0.7861
29056SOL    HW292016   7.542   1.536   1.512  1.4308 -0.6184 -0.7696
29057SOL     OW92017   0.743   2.726   3.917  0.0245 -0.0300  0.0391
29057SOL    HW192018   0.772   2.664   3.850  0.4137  0.4206 -0.2184
29057SOL    HW292019   0.691   2.674   3.978 -1.9252 -0.1167 -1.5980
29058SOL     OW92020   0.262   4.174   2.683 -0.2316 -0.1409 -0.0151
29058SOL    HW192021   0.301   4.092   2.714  0.4625  0.5009  0.8693
29058SOL    HW292022   0.330   4.239   2.697 -1.5922  1.0241  1.5535
29059SOL     OW92023   0.380   3.720   1.845 -0.2338 -0.5827 -0.4029
29059SOL    HW192024   0.375   3.625   1.838 -0.4405 -0.7119  1.0548
29059SOL    HW292025   0.296   3.751   1.811 -0.8175 -1.0481  0.5561
29060SOL     OW92026   8.902   4.353   5.309 -0.1859 -0.5485  0.1403
29060SOL    HW192027   8.939   4.264   5.304  0.2871 -0.3820  0.5702
29060SOL    HW292028   8.836   4.347   5.378 -0.8251 -0.7930 -0.4800
29061SOL     OW92029   7.826   5.092   4.079  0.3027  0.0081  0.1169
29061SOL    HW192030   7.917   5.119   4.074  0.6013 -0.7030  1.3162
29061SOL    HW292031   7.797   5.122   4.165 -0.5871  0.1848 -0.2337
29062SOL     OW92032   0.086   4.529   3.868  0.0928 -0.1477  0.2505
29062SOL    HW192033   0.039   4.459   3.822 -0.9787 -0.0236  1.0975
29062SOL    HW292034   0.176   4.498   3.875 -0.1325 -0.9561 -0.3490
29063SOL     OW92035   9.163   3.315   3.776 -0.1030  0.6422 -0.4670
29063SOL    HW192036   9.146   3.404   3.807 -0.9001  0.2085  0.3802
29063SOL    HW292037   9.078   3.272   3.780  0.4924 -0.4979  0.2454
29064SOL     OW92038   0.846   5.600   1.941  0.6923  0.6985  0.0560
29064SOL    HW192039   0.888   5.597   2.027  0.3700 -2.4124  0.2353
29064SOL    HW292040   0.913   5.567   1.881 -0.2315 -0.7327 -0.2384
29065SOL     OW92041   9.431   3.855   2.468 -0.3307  0.1650  0.0042
29065SOL    HW192042   9.495   3.853   2.539 -1.4417 -1.0454  1.0219
29065SOL    HW292043   9.390   3.941   2.475  1.4048  1.1315 -0.9224
29066SOL     OW92044   0.174   4.417   2.508 -0.2335  0.4849 -0.0220
29066SOL    HW192045   0.124   4.496   2.486 -0.3797  0.4194  0.0716
29066SOL    HW292046   0.133   4.348   2.456 -1.9343 -0.0994  1.9534
29067SOL     OW92047   9.601   3.462   4.518  0.5032  0.2979 -0.7007
29067SOL    HW192048   9.533   3.395   4.508 -2.0350  2.5267  0.2659
29067SOL    HW292049   9.626   3.485   4.429 -0.6660  0.0188 -1.1191
29068SOL     OW92050   0.324   3.091   5.163  0.2078  0.4903 -0.1448
29068SOL    HW192051   0.258   3.023   5.173 -1.0528  1.3750 -1.8693
29068SOL    HW292052   0.407   3.043   5.160 -0.1174 -0.5392  3.3689
29069SOL     OW92053   8.755   5.255   2.564  0.1327  0.2867  0.6559
29069SOL    HW192054   8.735   5.235   2.473  0.0059 -0.4340  0.8372
29069SOL    HW292055   8.669   5.270   2.605  0.1240 -0.3466  0.8731
29070SOL     OW92056   9.148   5.861   2.182  0.2334  0.4441 -0.6196
29070SOL    HW192057   9.123   5.823   2.267 -1.1224 -2.8645 -2.3213
29070SOL    HW292058   9.126   5.953   2.190 -0.7623  0.0620  2.3129
29071SOL     OW92059   9.547   4.781   1.650 -0.2880  0.2660  0.0385
29071SOL    HW192060   9.612   4.840   1.688  0.2481 -0.6789  0.6263
29071SOL    HW292061   9.485   4.764   1.721 -0.4928  0.1982 -0.1535
29072SOL     OW92062   0.338   5.969   2.402  0.1900 -0.2999  0.0192
29072SOL    HW192063   0.405   5.997   2.340 -0.6596  1.2591 -0.2347
29072SOL    HW292064   0.285   5.905   2.353 -0.7311  1.2267 -1.0698
29073SOL     OW92065   7.151   5.617   3.985  0.1603  0.5839 -0.1792
29073SOL    HW192066   7.182   5.706   4.003 -2.5538  1.6395 -0.1118
29073SOL    HW292067   7.112   5.589   4.068 -0.0728 -0.1895 -0.5458
29074SOL     OW92068   8.906   2.246   2.585 -0.3163  0.0430  0.2631
29074SOL    HW192069   8.892   2.295   2.666 -1.4130 -2.2661  1.5506
29074SOL    HW292070   8.854   2.167   2.595  0.2732 -0.7674 -2.3250
29075SOL     OW92071   8.190   5.109   2.440  0.0356  0.6988 -0.9139
29075SOL    HW192072   8.284   5.119   2.427 -0.1315  1.7886 -1.4178
29075SOL    HW292073   8.167   5.031   2.390  0.8101 -0.1560  0.0132
29076SOL     OW92074   7.947   4.882   2.852  0.2142 -0.3806  0.0279
29076SOL    HW192075   7.938   4.976   2.839 -1.7069 -0.5397 -0.0269
29076SOL    HW292076   7.936   4.869   2.946 -1.8848 -0.7356 -0.2247
29077SOL     OW92077   8.705   1.880   4.480  0.7719 -0.2002  0.0106
29077SOL    HW192078   8.762   1.870   4.557  0.7875 -0.8770 -0.0875
29077SOL    HW292079   8.749   1.947   4.427  1.2025 -0.3365  0.1886
29078SOL     OW92080   9.303   3.720   3.976 -0.5132  0.4531  0.3913
29078SOL    HW192081   9.268   3.765   4.054  0.0111 -0.2712  1.0546
29078SOL    HW292082   9.392   3.754   3.967 -0.6915  0.8037 -0.1199
29079SOL     OW92083   1.224   6.043   1.491 -0.0593 -0.1969 -0.0295
29079SOL    HW192084   1.181   6.125   1.467  0.2386 -0.0063  0.0951
29079SOL    HW292085   1.151   5.982   1.503 -0.3992  0.4488  1.4460
29080SOL     OW92086   7.587   6.148   6.037 -0.0765  0.2258  0.1639
29080SOL    HW192087   7.564   6.213   5.970  1.8272  0.5666 -0.2247
29080SOL    HW292088   7.630   6.078   5.988 -1.3939 -0.9772  0.6851
29081SOL     OW92089   1.072   4.124   4.130  0.2720 -0.0867 -0.4618
29081SOL    HW192090   1.162   4.154   4.148  0.3720 -0.4684 -0.3173
29081SOL    HW292091   1.016   4.188   4.174  0.4732  0.1627 -0.5663
29082SOL     OW92092   8.337   7.050   1.421 -0.4450  0.6381  0.5029
29082SOL    HW192093   8.274   7.110   1.382  1.1370  0.8120 -2.0807
29082SOL    HW292094   8.374   7.003   1.346  2.4202  0.5089  1.8470
29083SOL     OW92095   8.663   3.772   3.185  0.1567  0.2310  0.0983
29083SOL    HW192096   8.738   3.717   3.211 -0.7320 -0.1880  1.9010
29083SOL    HW292097   8.639   3.819   3.264 -2.6393 -1.0333  0.1032
29084SOL     OW92098   0.283   2.110   2.505  0.4614 -0.2738 -0.9000
29084SOL    HW192099   0.197   2.122   2.464 -1.0422 -1.3267  1.6236
29084SOL    HW292100   0.284   2.174   2.576  2.2132  0.3762 -1.4848
29085SOL     OW92101   9.004   3.610   2.603  0.0056 -0.0222 -0.1470
29085SOL    HW192102   8.946   3.576   2.535 -0.3883  0.7763 -0.2177
29085SOL    HW292103   8.949   3.612   2.682  0.1540  0.0480 -0.0458
29086SOL     OW92104   8.850   3.897   1.983  0.2126  0.1513  0.0445
29086SOL    HW192105   8.876   3.821   2.035  2.5091  1.5902  1.1378
29086SOL    HW292106   8.855   3.971   2.043 -1.9994  1.2384 -0.9801
29087SOL     OW92107   0.046   5.387   3.971 -0.5403  0.1893  0.1574
29087SOL    HW192108   0.038   5.403   4.065 -0.9501  0.4407  0.0817
29087SOL    HW292109   0.040   5.474   3.931  1.0200  0.2488 -0.0233
29088SOL     OW92110   1.773   4.631   4.369 -0.2458 -0.4231 -0.1553
29088SOL    HW192111   1.805   4.620   4.280 -0.8792 -1.4097 -0.2759
29088SOL    HW292112   1.714   4.558   4.383 -1.5456  0.6950  0.4633
29089SOL     OW92113   9.439   3.318   1.835  0.0016  0.0093  0.0692
29089SOL    HW192114   9.431   3.304   1.740 -0.3692 -2.7151  0.4176
29089SOL    HW292115   9.528   3.289   1.856 -0.0774  0.1508  0.6095
29090SOL     OW92116   9.383   5.539   6.091 -0.5574  0.4667 -0.2810
29090SOL    HW192117   9.347   5.602   6.154 -1.8047 -1.0100  0.5491
29090SOL    HW292118   9.346   5.565   6.007  0.0616  1.6704 -0.1956
29091SOL     OW92119   9.393   4.073   3.503  0.4144  0.4835  0.1309
29091SOL    HW192120   9.308   4.118   3.496 -0.4691 -0.9779  0.9788
29091SOL    HW292121   9.457   4.144   3.507 -0.7017  1.6260 -1.0443
29092SOL     OW92122   0.435   4.373   2.410 -0.2576 -0.5198  0.1872
29092SOL    HW192123   0.359   4.373   2.468 -2.4243 -0.5936 -2.5115
29092SOL    HW292124   0.427   4.293   2.359 -0.0445  0.8745 -2.1627
29093SOL     OW92125   8.848   3.033   3.050 -0.2261 -0.0043 -0.5833
29093SOL    HW192126   8.761   3.048   3.013 -0.9481 -1.1174  0.5791
29093SOL    HW292127   8.883   2.960   2.999 -2.1010 -3.0481  2.0424
29094SOL     OW92128   0.886   5.890   5.383 -0.1490  0.3910  0.2164
29094SOL    HW192129   0.977   5.916   5.370  0.0133 -1.1119 -2.2478
29094SOL    HW292130   0.885   5.796   5.363 -2.3667  0.5302 -0.5571
29095SOL     OW92131   9.829   4.858   5.946 -0.1494  0.6069  1.0136
29095SOL    HW192132   9.760   4.833   5.884  1.0247  0.9071 -0.4796
29095SOL    HW292133   9.830   4.787   6.010 -0.4341 -0.5032 -0.1542
29096SOL     OW92134   8.247   4.296   2.130 -0.2500  0.2470 -0.3275
29096SOL    HW192135   8.173   4.353   2.111 -0.7548 -0.3468 -0.1741
29096SOL    HW292136   8.319   4.355   2.152 -0.5476  0.8440 -0.9213
29097SOL     OW92137   0.317   5.034   6.048 -0.1734  0.5901  0.2098
29097SOL    HW192138   0.264   4.956   6.062  2.0966 -1.0718  0.1108
29097SOL    HW292139   0.263   5.091   5.994 -1.2417 -1.6766 -1.2266
29098SOL     OW92140   9.156   2.394   4.815 -0.1197 -0.0733 -0.4588
29098SOL    HW192141   9.238   2.404   4.767  1.4864 -1.7106  1.6946
29098SOL    HW292142   9.156   2.302   4.841 -0.7027  0.7160  2.7771
29099SOL     OW92143   0.674   4.740   5.266 -0.0169 -0.4591 -0.3262
29099SOL    HW192144   0.702   4.659   5.309  2.0758 -0.0364 -0.7527
29099SOL    HW292145   0.745   4.802   5.285 -1.4453  1.2075 -0.2164
29100SOL     OW92146   9.824   3.996   5.169 -0.1018 -0.0391 -0.5308
29100SOL    HW192147   9.852   4.071   5.116  0.8004  0.2662  0.3672
29100SOL    HW292148   9.824   4.028   5.259  1.0610 -1.3176 -0.0398
29101SOL     OW92149   8.998   4.967   5.549  0.3612  0.6607 -0.5601
29101SOL    HW192150   8.927   4.993   5.491 -0.9163  0.7267  0.9724
29101SOL    HW292151   9.022   5.048   5.595 -0.1179  0.2108  0.5201
29102SOL     OW92152   9.181   5.181   4.614  0.7840 -0.0442 -0.6215
29102SOL    HW192153   9.147   5.213   4.697  0.2550  1.0432 -1.2275
29102SOL    HW292154   9.139   5.096   4.601  1.6393 -0.6959  0.6727
29103SOL     OW92155   8.846   2.176   4.003  0.3085  0.2929 -0.4190
29103SOL    HW192156   8.813   2.090   3.977 -1.5085  0.4980  0.9914
29103SOL    HW292157   8.926   2.188   3.952  1.2962 -2.7571  0.2556
29104SOL     OW92158   8.560   4.996   4.214  0.4295  0.0494  0.6602
29104SOL    HW192159   8.624   5.024   4.148  0.7784  1.3877  1.5322
29104SOL    HW292160   8.500   4.940   4.166  0.1103  1.7341 -1.0486
29105SOL     OW92161   9.271   4.838   5.543  0.0411 -0.1364  0.0581
29105SOL    HW192162   9.269   4.783   5.621 -0.4768 -1.7341 -1.0262
29105SOL    HW292163   9.197   4.899   5.554  0.6227  0.3750  1.2734
29106SOL     OW92164   0.309   3.840   5.730  0.1445  0.0205 -0.4378
29106SOL    HW192165   0.380   3.790   5.689 -0.3017 -0.1339 -1.0283
29106SOL    HW292166   0.229   3.796   5.701 -0.1822 -0.4922  1.1026
29107SOL     OW92167   8.561   5.080   2.872 -0.4501  0.4076 -0.8438
29107SOL    HW192168   8.503   5.076   2.948 -0.8790  0.5600 -1.1552
29107SOL    HW292169   8.503   5.065   2.797  0.1487 -0.9064 -1.0699
29108SOL     OW92170   1.411   3.813   6.061  0.4228 -0.1524  0.0271
29108SOL    HW192171   1.319   3.806   6.088  1.2006 -2.7378  2.4556
29108SOL    HW292172   1.431   3.907   6.066 -1.1784  0.1366  2.9129
29109SOL     OW92173   8.752   4.101   3.563  0.0115  0.0041 -0.2961
29109SOL    HW192174   8.820   4.067   3.620  0.0076  1.0044  0.3415
29109SOL    HW292175   8.673   4.052   3.586 -0.3361  1.3363  1.6145
29110SOL     OW92176   8.421   3.894   4.279 -0.0893 -0.1192  0.3607
29110SOL    HW192177   8.405   3.930   4.192  1.7091 -2.0827 -0.8519
29110SOL    HW292178   8.380   3.808   4.278 -0.5339  0.0524  1.6846
29111SOL     OW92179   9.110   2.885   7.277 -0.1800  0.2043  0.3138
29111SOL    HW192180   9.192   2.933   7.264 -0.3649  0.6183  0.6297
29111SOL    HW292181   9.135   2.793   7.271 -0.0242  0.3308 -1.5174
29112SOL     OW92182   0.460   6.069   6.008 -0.1774 -0.2213  0.1924
29112SOL    HW192183   0.517   6.005   5.966 -0.6741 -1.5286  1.4435
29112SOL    HW292184   0.414   6.111   5.935  1.7348  0.2933 -0.7865
29113SOL     OW92185   0.016   6.376   4.025  0.3095  0.0924 -0.2697
29113SOL    HW192186  -0.041   6.420   4.088  0.6449 -0.7316  0.6460
29113SOL    HW292187  -0.005   6.416   3.941 -2.3808 -0.9233 -0.1611
29114SOL     OW92188   9.618   4.242   5.495 -0.1318  0.0010  0.6437
29114SOL    HW192189   9.603   4.257   5.588  1.2605 -0.1384  0.9183
29114SOL    HW292190   9.610   4.328   5.455 -1.2528 -0.0186  0.8025
29115SOL     OW92191   0.314   6.324   3.842 -0.2819 -0.3526  0.3381
29115SOL    HW192192   0.255   6.248   3.837 -3.2499  1.6820  1.3606
29115SOL    HW292193   0.358   6.315   3.927 -0.4072 -1.0385  0.3390
29116SOL     OW92194   0.902   4.496   3.297 -0.4846  0.1027 -0.4138
29116SOL    HW192195   0.948   4.419   3.264  0.2621 -0.0834  0.9962
29116SOL    HW292196   0.838   4.516   3.229  0.8293 -0.3847 -1.8502
29117SOL     OW92197   8.251   4.138   5.671 -0.0163  0.6514  0.1600
29117SOL    HW192198   8.166   4.096   5.656  0.9806 -0.8011 -1.7227
29117SOL    HW292199   8.268   4.124   5.764 -1.8337  1.0362  0.5990
29118SOL     OW92200   8.211   5.792   4.093  0.0750 -0.1835 -0.2564
29118SOL    HW192201   8.282   5.835   4.047 -0.0016 -0.9637 -1.1440
29118SOL    HW292202   8.253   5.719   4.139 -0.0162 -0.0912 -0.0267
29119SOL     OW92203   9.674   3.449   5.260  0.0767  0.3625  0.2049
29119SOL    HW192204   9.692   3.455   5.166 -0.3482  0.1308  0.1050
29119SOL    HW292205   9.671   3.540   5.290 -0.0202  0.4464 -0.0537
29120SOL     OW92206   1.020   3.613   3.027 -0.1356 -0.7191 -0.6563
29120SOL    HW192207   0.960   3.565   3.083  0.6371 -0.9048  0.0354
29120SOL    HW292208   0.969   3.687   2.994 -1.0041 -1.3958 -0.8321
29121SOL     OW92209   1.777   7.385   3.738  0.2589 -0.0535 -0.2524
29121SOL    HW192210   1.739   7.435   3.666  2.5183 -0.4463 -1.8070
29121SOL    HW292211   1.768   7.294   3.710  1.2921 -0.1992 -0.1570
29122SOL     OW92212   6.285   3.849   4.403  0.7123  0.1787  0.0006
29122SOL    HW192213   6.193   3.867   4.421  0.2665 -0.9192 -1.0310
29122SOL    HW292214   6.328   3.856   4.488 -0.4675 -0.0867  0.6376
29123SOL     OW92215   0.929   3.814   3.816 -0.2595 -0.4898  0.1001
29123SOL    HW192216   0.904   3.722   3.810 -0.8210 -0.5009  1.9832
29123SOL    HW292217   0.988   3.828   3.741 -3.0846 -1.3610 -2.4704
29124SOL     OW92218   0.198   2.328   4.479 -0.3679 -0.1568  0.2743
29124SOL    HW192219   0.204   2.312   4.573 -1.6951 -3.0195 -0.0424
29124SOL    HW292220   0.185   2.242   4.440  1.6183  0.7343 -2.7243
29125SOL     OW92221   9.102   6.697   3.969 -0.5127  0.1101  0.2072
29125SOL    HW192222   9.146   6.778   3.945 -0.3246 -0.0706 -0.0565
29125SOL    HW292223   9.078   6.657   3.886 -1.1277  0.1792  0.3426
29126SOL     OW92224   8.601   6.906   5.170 -0.0029 -0.3100  0.2501
29126SOL    HW192225   8.544   6.977   5.201 -0.2838  0.5615 -2.0548
29126SOL    HW292226   8.676   6.909   5.229 -1.4331 -0.2063  2.1558
29127SOL     OW92227   2.294   3.219   3.492 -0.0353  0.4126 -0.2379
29127SOL    HW192228   2.199   3.206   3.492 -0.2929  1.1808  3.5110
29127SOL    HW292229   2.305   3.313   3.509  1.4481  0.4856 -1.4045
29128SOL     OW92230   8.903   4.899   3.054 -0.4501  0.0634  0.4576
29128SOL    HW192231   8.847   4.933   3.124 -3.3197 -0.0100 -1.6178
29128SOL    HW292232   8.867   4.812   3.035  1.4610 -0.6921  0.0884
29129SOL     OW92233   7.886   4.950   5.332 -0.3680  0.1881 -0.2490
29129SOL    HW192234   7.942   5.023   5.362 -0.7972  0.4107  0.0237
29129SOL    HW292235   7.947   4.879   5.314  0.2240  1.0817 -1.9808
29130SOL     OW92236   7.554   4.954   5.631 -0.2053 -0.5897  0.3166
29130SOL    HW192237   7.529   5.012   5.558 -0.1583 -1.4637 -0.4127
29130SOL    HW292238   7.504   4.873   5.615 -0.8701 -0.4975  1.7441
29131SOL     OW92239   9.181   4.352   4.717 -0.0378  0.1091  0.0611
29131SOL    HW192240   9.091   4.333   4.689  0.0476  1.5892 -1.3103
29131SOL    HW292241   9.177   4.350   4.813 -2.0702  2.4002  0.1039
29132SOL     OW92242   0.381   3.342   6.091  0.2702 -0.5018 -0.2910
29132SOL    HW192243   0.407   3.393   6.014  2.4703  0.2066  0.8663
29132SOL    HW292244   0.327   3.401   6.142 -0.4671 -0.6859 -0.8342
29133SOL     OW92245   0.090   5.170   5.890  0.6102 -0.1530  0.3376
29133SOL    HW192246  -0.005   5.168   5.895  0.5553 -0.1827 -0.5344
29133SOL    HW292247   0.112   5.100   5.829  1.1755 -0.0102  0.3720
29134SOL     OW92248   0.363   3.636   4.197 -0.5419  0.1332  0.1079
29134SOL    HW192249   0.371   3.554   4.148 -1.5188  0.3960 -0.5089
29134SOL    HW292250   0.302   3.615   4.268 -0.7168  0.3061  0.0066
29135SOL     OW92251   9.223   4.228   4.992 -0.2969 -0.2262 -0.2848
29135SOL    HW192252   9.200   4.220   5.085  1.4128 -1.1827  0.1208
29135SOL    HW292253   9.288   4.298   4.990  0.2488 -0.7330 -0.6212
29136SOL     OW92254   9.235   5.342   4.407  0.0985 -0.6088  0.3720
29136SOL    HW192255   9.218   5.279   4.476 -1.7270 -0.3904  0.1685
29136SOL    HW292256   9.149   5.375   4.383  0.9898  2.4144  0.8893
29137SOL     OW92257   7.956   7.069   3.068 -0.9625 -0.2185 -0.1814
29137SOL    HW192258   8.026   7.031   3.121 -0.2568  1.9000  0.5001
29137SOL    HW292259   8.000   7.123   3.003 -1.9172 -0.7521 -1.3240
29138SOL     OW92260   7.020   3.541   4.038 -0.0455 -0.8797  0.5835
29138SOL    HW192261   6.981   3.626   4.055 -1.3261 -1.4604  0.6304
29138SOL    HW292262   6.949   3.478   4.052  0.6223 -1.8840 -0.3845
29139SOL     OW92263   9.539   5.012   6.136  0.4936  0.1133  0.1938
29139SOL    HW192264   9.464   5.055   6.177  0.1826  1.5869 -1.7635
29139SOL    HW292265   9.559   4.939   6.194 -0.5082  1.4620  2.3951
29140SOL     OW92266   8.019   3.955   5.829  0.1703  0.4735 -0.2571
29140SOL    HW192267   8.075   4.003   5.890  0.7053 -2.0788  1.3878
29140SOL    HW292268   8.072   3.880   5.802 -0.7643  0.5368 -2.4540
29141SOL     OW92269   8.356   4.232   4.517 -0.5634  0.0942 -0.2465
29141SOL    HW192270   8.312   4.307   4.558 -1.2651 -1.9276  3.1037
29141SOL    HW292271   8.286   4.184   4.474 -0.1850  1.0171 -1.9879
29142SOL     OW92272   9.444   3.305   3.908  0.6151 -0.0494 -0.7604
29142SOL    HW192273   9.487   3.372   3.854  0.1922 -0.6073 -1.8274
29142SOL    HW292274   9.350   3.319   3.893  0.2686  1.6665  2.1456
29143SOL     OW92275   6.853   5.634   3.002 -0.1471  0.2239  0.4819
29143SOL    HW192276   6.833   5.618   3.094  2.0011  0.4270  1.0317
29143SOL    HW292277   6.939   5.676   3.003 -0.6854  1.4958 -1.5531
29144SOL     OW92278   8.009   5.375   3.333  0.1198 -0.2898  0.1573
29144SOL    HW192279   8.104   5.365   3.340  0.2063  1.2999  1.9860
29144SOL    HW292280   7.997   5.462   3.296 -0.6390 -0.9182 -1.0994
29145SOL     OW92281   0.469   2.755   4.340  0.6988  0.1485 -0.1226
29145SOL    HW192282   0.462   2.849   4.324 -0.0321 -0.2873 -2.9415
29145SOL    HW292283   0.383   2.730   4.372  0.7048  0.3650  0.0616
29146SOL     OW92284   9.274   5.095   5.907 -0.5058  0.1688 -0.1971
29146SOL    HW192285   9.358   5.128   5.875  1.4137 -1.0610  3.0061
29146SOL    HW292286   9.231   5.171   5.946 -0.1221  0.5285 -0.4661
29147SOL     OW92287   2.046   3.780   7.349  0.6705 -0.0990 -0.2116
29147SOL    HW192288   2.082   3.847   7.291 -0.5748  1.4575  0.7274
29147SOL    HW292289   2.041   3.701   7.295  0.7510  0.9591 -1.8233
29148SOL     OW92290   0.130   5.539   4.442  0.2179  0.3464 -0.2131
29148SOL    HW192291   0.094   5.466   4.392 -0.9058 -0.5671  1.7825
29148SOL    HW292292   0.225   5.526   4.438  0.2216  0.7470 -2.6464
29149SOL     OW92293   8.163   6.194   5.150  0.0640 -0.0612 -0.0912
29149SOL    HW192294   8.122   6.277   5.128 -2.2447 -0.6678  1.5937
29149SOL    HW292295   8.257   6.213   5.146 -0.3731  2.5933  0.1425
29150SOL     OW92296   0.085   5.616   5.388 -0.2706 -0.2456 -0.0341
29150SOL    HW192297   0.047   5.529   5.375 -0.8833  0.0982 -0.5603
29150SOL    HW292298   0.035   5.673   5.331  1.8000  0.0326 -1.6855
29151SOL     OW92299   8.375   6.343   3.331  0.0824  0.2627  0.0328
29151SOL    HW192300   8.365   6.256   3.372  0.2763  0.4533  0.4927
29151SOL    HW292301   8.286   6.377   3.326  0.0840  0.3484  0.5475
29152SOL     OW92302   8.080   3.212   5.871  0.1782 -0.7070  0.0821
29152SOL    HW192303   8.076   3.218   5.776 -3.8732 -0.6127  0.0808
29152SOL    HW292304   8.172   3.226   5.892  1.2290 -0.6738 -3.7741
29153SOL     OW92305   0.507   4.676   3.504 -0.1480  0.0512 -0.4302
29153SOL    HW192306   0.415   4.663   3.526 -0.0494 -0.6553 -0.4067
29153SOL    HW292307   0.507   4.746   3.439 -0.5298  1.5912  1.1532
29154SOL     OW92308   9.392   4.303   2.101  0.3039 -0.0805 -0.0392
29154SOL    HW192309   9.303   4.269   2.092  0.3392 -0.5551  1.2463
29154SOL    HW292310   9.414   4.336   2.013 -1.5537  1.1186 -0.1150
29155SOL     OW92311   7.495   4.105   2.708 -0.2876  0.0330 -0.2387
29155SOL    HW192312   7.579   4.059   2.716 -0.1982  0.2579  0.1307
29155SOL    HW292313   7.519   4.193   2.678 -0.2412  0.5970  1.3286
29156SOL     OW92314   8.843   6.655   5.281 -0.0715  0.5400  1.0682
29156SOL    HW192315   8.923   6.608   5.302  0.2601  0.7821  0.3497
29156SOL    HW292316   8.860   6.745   5.310  1.1575  1.3777 -1.9361
29157SOL     OW92317   8.724   3.698   4.657 -0.4875 -0.1109  0.2025
29157SOL    HW192318   8.712   3.757   4.732 -1.6796 -0.1027  0.0259
29157SOL    HW292319   8.779   3.748   4.597 -0.1568  0.1905  0.7431
29158SOL     OW92320   1.096   2.770   5.085 -0.1973 -0.2573 -0.0262
29158SOL    HW192321   1.123   2.840   5.144 -1.2137 -0.9969  1.3605
29158SOL    HW292322   1.089   2.813   4.999 -0.1033  1.1663  0.6503
29159SOL     OW92323   9.750   6.028   5.691  0.7890  0.1079  0.9114
29159SOL    HW192324   9.835   6.038   5.649  0.1487  0.3013 -0.3919
29159SOL    HW292325   9.763   6.060   5.780  1.8198  1.1022  0.4229
29160SOL     OW92326   0.561   4.533   3.167 -0.3302  0.4051  0.6455
29160SOL    HW192327   0.615   4.485   3.104  0.2849  0.5483  1.0564
29160SOL    HW292328   0.520   4.465   3.221  0.9183  0.3261  1.5429
29161SOL     OW92329   0.290   5.212   6.295  0.2706  0.2071  0.2683
29161SOL    HW192330   0.339   5.205   6.377  0.5446  0.4376  0.1275
29161SOL    HW292331   0.356   5.198   6.227  0.1690  0.6573  0.0706
29162SOL     OW92332   0.404   6.088   5.543  0.0889  0.4315 -0.1039
29162SOL    HW192333   0.394   6.177   5.576 -0.4945  0.9002 -1.4520
29162SOL    HW292334   0.419   6.099   5.449  0.8575 -0.8649 -0.1584
29163SOL     OW92335   6.915   4.787   5.684  0.6771  0.1150 -0.0336
29163SOL    HW192336   6.943   4.875   5.658  2.4522 -0.6780 -0.9662
29163SOL    HW292337   6.921   4.735   5.604 -0.6774 -0.8046  0.4275
29164SOL     OW92338   1.308   4.216   3.840  0.0056  0.3119  0.2343
29164SOL    HW192339   1.214   4.201   3.848 -0.0832  1.5447  2.6387
29164SOL    HW292340   1.347   4.129   3.837 -1.2234 -0.2252 -1.9678
29165SOL     OW92341   0.765   4.193   3.242 -0.1023 -0.0848 -0.6821
29165SOL    HW192342   0.677   4.206   3.277  0.2348 -0.1211  0.2212
29165SOL    HW292343   0.778   4.267   3.183 -0.2757  0.6361  0.1466
29166SOL     OW92344   9.604   4.283   4.890  0.5906 -0.5518  0.1973
29166SOL    HW192345   9.686   4.333   4.888  1.9680 -2.7230 -1.4242
29166SOL    HW292346   9.601   4.246   4.979  2.6686 -2.3511 -0.3916
29167SOL     OW92347   8.772   5.819   3.370  0.5004 -0.0189  0.1166
29167SOL    HW192348   8.720   5.739   3.368  2.7629 -1.6941  1.9558
29167SOL    HW292349   8.827   5.813   3.291 -0.4428  0.5747 -0.5990
29168SOL     OW92350   0.574   5.642   6.923  0.0431 -0.0999  0.3282
29168SOL    HW192351   0.619   5.570   6.878 -2.0610 -0.7460 -0.8764
29168SOL    HW292352   0.563   5.709   6.855 -1.4351 -0.2755  0.3625
29169SOL     OW92353   0.344   3.251   6.574 -0.3080 -0.5900 -0.1062
29169SOL    HW192354   0.364   3.171   6.623  0.3073  0.0516  0.7058
29169SOL    HW292355   0.254   3.272   6.599 -1.0594 -1.8813 -1.5457
29170SOL     OW92356   1.300   5.196   5.432  0.4912 -0.2381 -0.3343
29170SOL    HW192357   1.266   5.127   5.375 -2.2000  0.0250  0.8406
29170SOL    HW292358   1.296   5.275   5.378  0.4321 -0.4296 -0.6122
29171SOL     OW92359   9.230   5.328   6.195 -0.0813 -0.2187 -0.2392
29171SOL    HW192360   9.292   5.264   6.230  1.0822 -0.3619 -2.3930
29171SOL    HW292361   9.285   5.398   6.160 -1.2649  1.0442  0.3076
29172SOL     OW92362   8.985   3.181   8.936  0.6390  0.1924  0.1352
29172SOL    HW192363   9.028   3.095   8.937  1.2619  0.4448 -1.6265
29172SOL    HW292364   9.057   3.244   8.948  0.4368  0.5255 -0.3625
29173SOL     OW92365   8.253   6.269   6.704  0.0293  0.1797 -0.1431
29173SOL    HW192366   8.176   6.315   6.736  0.0294 -0.9060  1.5526
29173SOL    HW292367   8.322   6.291   6.766 -0.1761 -2.6449  1.2463
29174SOL     OW92368   7.972   6.753   7.322  0.2002  0.4549 -0.4386
29174SOL    HW192369   7.972   6.745   7.227 -0.5259  0.4963 -0.4500
29174SOL    HW292370   8.032   6.825   7.340  1.4507 -0.4843 -0.7640
29175SOL     OW92371   0.891   3.438   6.542 -0.4446 -0.2670  0.1755
29175SOL    HW192372   0.900   3.402   6.453 -0.8763  0.0453  0.0032
29175SOL    HW292373   0.961   3.395   6.592  1.2722  1.1980 -0.8326
29176SOL     OW92374   0.103   3.386   5.108  0.1774  0.0829  0.5186
29176SOL    HW192375   0.062   3.471   5.122  1.6015  1.2493 -1.8782
29176SOL    HW292376   0.042   3.338   5.052  1.9448  1.9365 -3.3171
29177SOL     OW92377   8.796   5.330   5.083  0.4384  0.7319  0.2715
29177SOL    HW192378   8.713   5.375   5.101  0.4423  0.4290  1.1056
29177SOL    HW292379   8.805   5.267   5.154  0.4063 -0.6614 -0.9318
29178SOL     OW92380   8.444   7.051   7.266  0.1998 -0.4895  0.5183
29178SOL    HW192381   8.361   7.039   7.219  0.3269 -0.0543  0.1802
29178SOL    HW292382   8.489   6.967   7.257  1.8966  0.6053 -3.3753
29179SOL     OW92383   8.435   3.955   7.154 -0.5683 -0.0925  0.1239
29179SOL    HW192384   8.364   3.891   7.162 -1.0020  0.4693  0.8479
29179SOL    HW292385   8.502   3.923   7.216 -0.9106  0.3065  0.7102
29180SOL     OW92386   0.548   2.580   6.466  0.2187  0.3063 -0.8155
29180SOL    HW192387   0.456   2.591   6.489  0.1242  0.6059 -1.3322
29180SOL    HW292388   0.546   2.543   6.378  0.5784 -0.7820 -0.3839
29181SOL     OW92389   7.437   3.017   6.891 -0.2259  0.0578 -0.2371
29181SOL    HW192390   7.528   3.046   6.898 -0.2484 -0.0048  0.4458
29181SOL    HW292391   7.387   3.085   6.937 -0.3667 -0.6050  0.6308
29182SOL     OW92392   8.764   1.837   6.317 -0.1770  0.5550  0.0178
29182SOL    HW192393   8.733   1.916   6.361 -2.8432 -1.4126  2.0790
29182SOL    HW292394   8.686   1.803   6.272  0.4403 -1.6619  0.5009
29183SOL     OW92395   0.223   5.505   5.896 -0.0186  0.0315 -0.7348
29183SOL    HW192396   0.255   5.458   5.819  0.2944 -0.7573 -0.1511
29183SOL    HW292397   0.220   5.597   5.870 -0.1493 -0.2540 -1.7542
29184SOL     OW92398   0.917   0.991   5.816 -0.2760 -0.3804 -0.0461
29184SOL    HW192399   0.994   0.961   5.864 -0.2241 -0.9208 -0.4526
29184SOL    HW292400   0.950   1.011   5.728 -0.6944 -1.2188 -0.4117
29185SOL     OW92401   0.820   5.149   4.924  0.1872 -0.0654  0.6434
29185SOL    HW192402   0.849   5.090   4.993 -0.9473  0.9766  2.0568
29185SOL    HW292403   0.737   5.112   4.895  0.6671 -0.5082 -0.2129
29186SOL     OW92404   8.505   4.041   6.879  0.4117 -1.0575 -0.5974
29186SOL    HW192405   8.516   3.952   6.912  0.3883 -0.1489  2.1038
29186SOL    HW292406   8.592   4.068   6.852  0.8585 -1.1942  0.6394
29187SOL     OW92407   9.569   3.405   6.914  0.0424 -0.3824  0.1233
29187SOL    HW192408   9.628   3.460   6.966  0.4491 -0.3966 -0.3161
29187SOL    HW292409   9.482   3.440   6.931  0.3910  1.1156 -1.0077
29188SOL     OW92410   7.469   5.173   7.326 -0.0387 -0.1267 -0.2952
29188SOL    HW192411   7.478   5.256   7.279 -1.6802  0.2593  0.0189
29188SOL    HW292412   7.554   5.161   7.369  1.0304  0.1919 -2.2013
29189SOL     OW92413   8.243   2.704   6.683  0.0018  0.1874 -0.0855
29189SOL    HW192414   8.282   2.692   6.596 -1.8059 -0.0290 -0.9142
29189SOL    HW292415   8.164   2.650   6.682 -2.9961  4.0952 -0.2866
29190SOL     OW92416   8.705   5.191   9.020  0.6941  0.1374 -0.0815
29190SOL    HW192417   8.612   5.172   9.036  0.4078  1.4389 -0.0596
29190SOL    HW292418   8.746   5.182   9.105  0.4849  0.0902  0.0158
29191SOL     OW92419   8.441   4.214   6.265  0.2498 -0.1567  0.2393
29191SOL    HW192420   8.394   4.133   6.242 -1.3122  1.1849 -1.7033
29191SOL    HW292421   8.472   4.247   6.181  1.5706  0.8618  1.1090
29192SOL     OW92422   0.512   1.149   5.408  0.1899  0.2953  0.0291
29192SOL    HW192423   0.514   1.242   5.385  0.3082  0.3220  0.1425
29192SOL    HW292424   0.423   1.133   5.436  0.0294  0.2523 -0.4870
29193SOL     OW92425   8.673   4.921   7.618 -0.4670 -0.4961  0.2991
29193SOL    HW192426   8.712   4.833   7.620  1.1433  0.0746 -2.1282
29193SOL    HW292427   8.748   4.980   7.626 -1.2682  0.6527 -0.5151
29194SOL     OW92428   8.251   3.258   7.170 -0.0771  0.3143  0.1608
29194SOL    HW192429   8.291   3.255   7.083  1.2283  1.1643  0.7091
29194SOL    HW292430   8.220   3.169   7.185 -1.0531  0.3342 -1.4960
29195SOL     OW92431   1.153   6.280   5.536  0.6551  0.1496  0.4278
29195SOL    HW192432   1.239   6.315   5.561  0.8848  0.2377 -0.4405
29195SOL    HW292433   1.134   6.323   5.453 -1.1874  1.7090  1.5693
29196SOL     OW92434   0.653   2.724   4.952  0.0561 -0.2155 -0.5310
29196SOL    HW192435   0.630   2.806   4.909  0.4264  0.1965  0.0361
29196SOL    HW292436   0.623   2.735   5.042  0.5871 -0.4919 -0.3170
29197SOL     OW92437   0.039   2.634   6.969 -0.3918 -0.7330  0.0111
29197SOL    HW192438   0.016   2.603   6.881 -0.2059  1.1358 -0.7542
29197SOL    HW292439   0.128   2.670   6.959 -0.9290  0.8310  0.5775
29198SOL     OW92440   8.603   1.648   6.967 -0.1584  0.2013  0.0789
29198SOL    HW192441   8.550   1.711   6.917  1.1236  0.4952 -0.9536
29198SOL    HW292442   8.645   1.700   7.034  0.3915  0.3390 -0.3671
29199SOL     OW92443   0.430   1.718   7.494 -0.0880  0.1272 -0.3404
29199SOL    HW192444   0.525   1.701   7.495 -0.1804 -0.5362  1.3422
29199SOL    HW292445   0.422   1.812   7.480  0.8872  0.3625  0.5421
29200SOL     OW92446   9.106   4.422   5.794  0.2072 -0.4841 -0.0746
29200SOL    HW192447   9.161   4.436   5.871  1.0511  1.4283 -0.9447
29200SOL    HW292448   9.029   4.376   5.827 -0.4169  2.0416  2.3334
29201SOL     OW92449   9.807   3.464   8.827  0.5606 -0.1333 -0.2604
29201SOL    HW192450   9.855   3.506   8.755 -1.6332  2.6662 -0.2764
29201SOL    HW292451   9.719   3.502   8.823 -0.4430 -1.8638  2.3242
29202SOL     OW92452   9.842   5.947   6.336 -0.1379 -0.3944  0.0927
29202SOL    HW192453   9.795   5.883   6.283  0.4380 -0.4887 -0.3088
29202SOL    HW292454   9.915   5.899   6.373 -1.1222 -0.6076  1.8620
29203SOL     OW92455   8.859   4.081   5.647  0.4162  0.0661 -0.3337
29203SOL    HW192456   8.934   4.024   5.658 -1.1735 -2.0545  0.1005
29203SOL    HW292457   8.843   4.117   5.734 -1.9901 -3.4639  0.8895
29204SOL     OW92458   0.221   2.614   5.302 -0.1170  0.2850 -0.4867
29204SOL    HW192459   0.175   2.694   5.275 -2.0479 -0.2319  1.0343
29204SOL    HW292460   0.152   2.550   5.315  1.2187 -1.0536  0.2646
29205SOL     OW92461   9.694   5.160   7.011 -0.5546 -0.4048 -0.2569
29205SOL    HW192462   9.614   5.166   7.064  0.4696 -1.4743  1.5030
29205SOL    HW292463   9.742   5.241   7.032 -0.6698 -0.2859 -0.4496
29206SOL     OW92464   0.037   2.682   7.729  0.5053  0.4809  0.2475
29206SOL    HW192465   0.079   2.664   7.813  1.3100 -1.3760 -0.4710
29206SOL    HW292466  -0.028   2.612   7.719  2.9412 -1.6829 -2.1985
29207SOL     OW92467   9.711   5.073   7.537 -0.5675  0.6599 -0.3866
29207SOL    HW192468   9.729   5.149   7.593 -0.5693  0.6036 -0.3095
29207SOL    HW292469   9.620   5.085   7.510 -1.4137 -0.6050  1.6529
29208SOL     OW92470   9.311   5.899   4.818  0.0945 -0.0484 -0.2733
29208SOL    HW192471   9.402   5.924   4.807  1.5066 -2.3478  3.9817
29208SOL    HW292472   9.311   5.804   4.813 -2.2285 -0.0998 -0.6320
29209SOL     OW92473   8.725   3.397   9.099  0.6729  0.3292 -0.1874
29209SOL    HW192474   8.705   3.473   9.153 -2.3646 -1.4072  1.4112
29209SOL    HW292475   8.763   3.334   9.159  0.5471 -0.3964 -0.8490
29210SOL     OW92476   8.415   4.813   8.354 -0.1022  0.1419 -0.5091
29210SOL    HW192477   8.450   4.737   8.308 -1.0899  0.1929 -1.3902
29210SOL    HW292478   8.338   4.839   8.303 -0.6697  0.8048  0.6360
29211SOL     OW92479   9.088   3.965   6.533  0.0705  0.1970  0.6429
29211SOL    HW192480   9.157   4.030   6.518 -0.6775  0.8874  0.0874
29211SOL    HW292481   9.099   3.902   6.462 -0.3712  0.7652  0.0502
29212SOL     OW92482   9.542   3.773   6.339 -0.6245 -0.6512  0.6549
29212SOL    HW192483   9.482   3.822   6.283  0.4560 -0.2240 -0.1845
29212SOL    HW292484   9.561   3.832   6.412  3.2466  1.8447 -1.9374
29213SOL     OW92485   0.318   1.761   5.113 -0.6300 -1.0315 -0.6118
29213SOL    HW192486   0.336   1.838   5.059 -1.4223 -0.8220 -0.5948
29213SOL    HW292487   0.226   1.741   5.095 -0.4829 -1.8645 -0.4755
29214SOL     OW92488   9.535   4.894   7.153 -0.0152  0.2670  1.3565
29214SOL    HW192489   9.448   4.892   7.191 -0.4612  0.4617  0.3922
29214SOL    HW292490   9.543   4.983   7.118 -1.2944 -0.9570 -2.6324
29215SOL     OW92491   8.897   4.248   5.878  0.3234 -0.3238  0.1608
29215SOL    HW192492   8.916   4.155   5.883 -2.7713 -1.0170  1.3675
29215SOL    HW292493   8.892   4.277   5.969  2.6151  1.4280 -0.1764
29216SOL     OW92494   9.212   3.389   5.998  0.5679 -0.2022 -0.0799
29216SOL    HW192495   9.205   3.434   6.082  0.3397 -0.5754  0.1065
29216SOL    HW292496   9.127   3.347   5.986 -0.6833  2.6336 -2.1383
29217SOL     OW92497   3.109   6.377   6.682  0.2727  0.5221 -0.0381
29217SOL    HW192498   3.082   6.442   6.616 -1.5406  0.0506  0.2080
29217SOL    HW292499   3.120   6.428   6.762 -1.4187  0.5342  0.2225
29218SOL     OW92500   6.433   6.874   5.469  0.1060  0.7132 -0.0169
29218SOL    HW192501   6.503   6.917   5.420 -0.7572  0.7557 -1.2454
29218SOL    HW292502   6.406   6.801   5.413 -0.3599  0.2659  0.7732
29219SOL     OW92503   1.069   3.885   5.687 -0.4332  0.2063  0.6024
29219SOL    HW192504   1.117   3.869   5.606 -2.0166 -1.0233 -0.1378
29219SOL    HW292505   1.130   3.934   5.742  1.6727 -1.2512 -0.2975
29220SOL     OW92506   3.129   3.609   6.542  0.1106  0.7141  0.4498
29220SOL    HW192507   3.086   3.571   6.618 -3.1158 -1.1673 -2.0365
29220SOL    HW292508   3.190   3.541   6.512 -1.0408 -0.0025 -0.3945
29221SOL     OW92509   8.761   3.154   6.857  0.1990  0.0115  0.1694
29221SOL    HW192510   8.695   3.109   6.910  0.0925  0.6698  0.6060
29221SOL    HW292511   8.804   3.084   6.807 -0.9058 -0.4125 -0.2136
29222SOL     OW92512   7.607   4.503   6.538  0.3148 -0.1353  0.0956
29222SOL    HW192513   7.656   4.583   6.519 -1.5985  1.0023 -0.2963
29222SOL    HW292514   7.548   4.492   6.464  1.1149 -2.4532 -0.2962
29223SOL     OW92515   8.685   4.639   4.616 -0.0187  0.8708  0.2597
29223SOL    HW192516   8.779   4.647   4.631  0.1302  1.2373 -0.7924
29223SOL    HW292517   8.651   4.602   4.698  1.5047 -2.5239 -0.4299
29224SOL     OW92518   1.336   6.012   6.048 -0.3678  0.2035  0.5926
29224SOL    HW192519   1.297   5.933   6.012  1.2162 -0.2489 -0.2501
29224SOL    HW292520   1.269   6.080   6.039 -0.5873 -0.2666 -1.7693
29225SOL     OW92521   1.306   5.813   6.451 -0.6246 -0.6588 -0.2209
29225SOL    HW192522   1.402   5.809   6.461 -0.5218  1.1258 -0.0410
29225SOL    HW292523   1.273   5.794   6.539 -0.1748  3.0620  0.9644
29226SOL     OW92524   8.342   3.177   6.379  0.0018 -0.1593  0.2333
29226SOL    HW192525   8.262   3.126   6.377  0.6479 -1.1581 -1.0596
29226SOL    HW292526   8.374   3.167   6.469 -1.1388  0.0061  0.6769
29227SOL     OW92527   0.888   3.188   5.203  0.3401  0.0842  0.1039
29227SOL    HW192528   0.894   3.280   5.176 -0.7553  0.2183  0.2614
29227SOL    HW292529   0.912   3.139   5.124 -0.9918  0.4961 -0.5942
29228SOL     OW92530   9.152   5.138   7.091  0.0065  0.0206 -0.4058
29228SOL    HW192531   9.085   5.115   7.027  0.2590  0.8382 -0.9758
29228SOL    HW292532   9.108   5.130   7.175 -1.7014  3.2294 -0.8562
29229SOL     OW92533   6.707   3.966   4.545 -0.2402 -0.1926 -0.0856
29229SOL    HW192534   6.652   4.044   4.531  0.9916  0.6927 -0.1463
29229SOL    HW292535   6.794   4.001   4.563  0.8222 -1.5991 -2.1406
29230SOL     OW92536   8.743   4.489   6.030  0.6010 -0.0262  0.2820
29230SOL    HW192537   8.778   4.417   6.082  0.5072  0.4158  0.9683
29230SOL    HW292538   8.810   4.557   6.036  0.0345  0.4903  0.8589
29231SOL     OW92539   0.462   5.171   6.484  0.0762 -0.1865  0.1382
29231SOL    HW192540   0.429   5.174   6.574  1.6918  0.3623  0.7504
29231SOL    HW292541   0.517   5.093   6.481  3.0250  1.7152  0.8041
29232SOL     OW92542   8.881   5.008   6.558  0.7068  0.1873 -0.5193
29232SOL    HW192543   8.872   5.060   6.478 -0.1154  0.2706 -0.3704
29232SOL    HW292544   8.970   4.972   6.552  0.8984  0.7408 -1.1365
29233SOL     OW92545   8.191   3.557   6.963  0.1642 -0.4794  0.0231
29233SOL    HW192546   8.282   3.567   6.992 -0.0225  1.1482  0.1119
29233SOL    HW292547   8.189   3.471   6.920  1.8784 -0.3139 -0.4684
29234SOL     OW92548   9.508   3.952   6.979  0.1225 -0.0988 -0.1767
29234SOL    HW192549   9.567   3.886   7.015 -0.4024 -1.6784 -2.0281
29234SOL    HW292550   9.536   3.963   6.888 -2.8964 -1.6718 -1.4693
29235SOL     OW92551   7.693   3.356   8.801 -0.4498  0.5159 -0.3570
29235SOL    HW192552   7.693   3.422   8.732 -0.1407 -1.1863 -2.0940
29235SOL    HW292553   7.714   3.404   8.881  0.7690  2.3495 -1.6882
29236SOL     OW92554   7.962   5.553   7.246  0.1107 -0.2406  0.0308
29236SOL    HW192555   7.980   5.633   7.295  1.3410 -0.4311 -0.0890
29236SOL    HW292556   7.915   5.583   7.168 -1.9851  0.0540  1.3109
29237SOL     OW92557   7.617   2.795   7.673  0.2209 -0.3533  0.7956
29237SOL    HW192558   7.697   2.761   7.633  0.7725 -0.6726  2.1079
29237SOL    HW292559   7.637   2.887   7.691 -0.3064 -0.0035 -0.3289
29238SOL     OW92560   9.373   5.571   1.116 -0.6480 -0.4266  0.2721
29238SOL    HW192561   9.384   5.657   1.155 -0.4297 -0.2049 -0.2687
29238SOL    HW292562   9.323   5.587   1.036 -0.3529 -0.7639  0.0189
29239SOL     OW92563   0.077   4.574   2.015 -0.2588  0.1376 -0.4256
29239SOL    HW192564   0.008   4.516   1.985  1.1049 -0.8767 -1.7467
29239SOL    HW292565   0.085   4.556   2.109 -1.1589 -0.3620 -0.4342
29240SOL     OW92566   9.424   3.984   5.715  0.2819 -0.3006 -0.4778
29240SOL    HW192567   9.377   4.066   5.698 -0.7673 -0.9092 -0.5868
29240SOL    HW292568   9.454   3.955   5.629  1.8742  0.6457 -0.2935
29241SOL     OW92569   8.178   4.948   8.926  0.2334  0.1719 -0.6385
29241SOL    HW192570   8.204   4.909   8.842  1.1120 -0.8036  0.0545
29241SOL    HW292571   8.178   5.042   8.910  0.8396  0.0218 -1.6183
29242SOL     OW92572   7.315   3.605   9.401 -0.3375 -0.3870  0.8862
29242SOL    HW192573   7.295   3.551   9.325  0.7533  0.7991 -0.3039
29242SOL    HW292574   7.247   3.583   9.465 -0.7080 -2.1237 -0.0487
29243SOL     OW92575   0.297   1.995   6.161 -0.4391 -0.2988  0.5990
29243SOL    HW192576   0.217   1.954   6.128 -0.1226 -0.9230  0.6093
29243SOL    HW292577   0.313   2.068   6.101  0.1376 -1.4207 -0.6511
29244SOL     OW92578   7.960   4.309   6.666  0.1353 -0.5406  0.2829
29244SOL    HW192579   7.979   4.403   6.665  2.2438 -0.9040  0.5040
29244SOL    HW292580   7.894   4.298   6.734  0.1558  0.7303  0.5331
29245SOL     OW92581   8.887   3.787   0.285 -0.1325  0.9607  0.6665
29245SOL    HW192582   8.873   3.706   0.236 -0.0062  0.8138  0.8754
29245SOL    HW292583   8.803   3.833   0.278  0.1856  1.4055 -0.5417
29246SOL     OW92584   8.606   4.964   7.896 -0.0809  0.0097  0.3587
29246SOL    HW192585   8.634   4.876   7.871  1.1572  0.5301 -0.1782
29246SOL    HW292586   8.622   5.017   7.817  0.3824  0.9554  1.0673
29247SOL     OW92587   1.216   3.342   0.213  0.0112 -0.0268 -0.3205
29247SOL    HW192588   1.128   3.370   0.190  0.6666  2.6704  0.1342
29247SOL    HW292589   1.268   3.358   0.135  0.9218  2.7922  0.7559
29248SOL     OW92590   1.295   4.149   6.837 -0.0823  0.1455  0.0667
29248SOL    HW192591   1.278   4.055   6.833 -0.6730  0.2654 -0.5648
29248SOL    HW292592   1.208   4.189   6.836  0.1275  0.7788 -2.8651
29249SOL     OW92593   9.593   4.666   7.246 -0.2204 -0.2787  0.7659
29249SOL    HW192594   9.513   4.626   7.211  0.7551 -1.1483 -0.5813
29249SOL    HW292595   9.586   4.758   7.223 -0.9102 -0.3044  0.8357
29250SOL     OW92596   9.331   8.109   8.331  0.4795 -0.2728  0.3356
29250SOL    HW192597   9.348   8.179   8.268 -2.0555  0.1342 -0.0034
29250SOL    HW292598   9.370   8.139   8.412 -0.2782  1.4403  0.1123
29251SOL     OW92599   8.578   3.346   9.772  0.2969 -0.6465 -0.3336
29251SOL    HW192600   8.626   3.359   9.690  0.9609 -1.6913 -0.1322
29251SOL    HW292601   8.598   3.424   9.824 -0.2132  0.0693 -1.1910
29252SOL     OW92602   0.286   3.685   9.562 -0.6000 -0.1570 -0.3414
29252SOL    HW192603   0.309   3.778   9.553 -2.5028  0.4209  0.3320
29252SOL    HW292604   0.244   3.663   9.479  1.2122 -0.8834 -1.1098
29253SOL     OW92605   8.021   4.798   9.851  0.3174 -0.2582 -0.1885
29253SOL    HW192606   7.984   4.884   9.871 -0.1893 -0.5845  0.2755
29253SOL    HW292607   8.037   4.800   9.757  1.8517  0.9513  0.0513
29254SOL     OW92608   9.136   2.379   7.891  0.3626 -0.3475  0.0876
29254SOL    HW192609   9.152   2.458   7.840 -0.1997 -0.4581 -0.2666
29254SOL    HW292610   9.184   2.310   7.845 -1.8651 -0.8939 -1.5825
29255SOL     OW92611   2.299   5.015   9.281  0.5624  0.2219 -0.3774
29255SOL    HW192612   2.304   5.107   9.257 -1.1726  1.3986  3.1309
29255SOL    HW292613   2.207   4.992   9.267  0.4453 -0.2278  0.9930
29256SOL     OW92614   9.594   5.139   9.767  1.3652  0.0578 -0.4218
29256SOL    HW192615   9.687   5.161   9.760  2.0086 -1.8347  1.1596
29256SOL    HW292616   9.566   5.183   9.847  1.5698 -1.2457  0.4088
29257SOL     OW92617   8.789   4.739   0.415 -0.1361 -0.2829 -0.0550
29257SOL    HW192618   8.865   4.736   0.357  0.4148  1.5541  0.4879
29257SOL    HW292619   8.714   4.742   0.355  0.2406 -1.2375 -0.6031
29258SOL     OW92620   9.133   3.256   7.170 -0.2867 -0.5596  0.0192
29258SOL    HW192621   9.112   3.261   7.076  0.5240  0.5977 -0.1243
29258SOL    HW292622   9.051   3.279   7.214 -0.9249 -2.0167 -0.3706
29259SOL     OW92623   0.242   4.878   7.979  0.5908 -0.0468 -0.2160
29259SOL    HW192624   0.234   4.865   7.885 -2.6684 -0.3103  0.0065
29259SOL    HW292625   0.237   4.973   7.991 -0.7837 -0.0945 -0.2469
29260SOL     OW92626   8.530   3.485   8.907  0.1294 -0.1737  0.0555
29260SOL    HW192627   8.472   3.444   8.843 -0.1684 -0.3659  0.4399
29260SOL    HW292628   8.549   3.415   8.970 -1.0252  0.4759  1.1564
29261SOL     OW92629   9.249   4.955   0.059 -0.0029  0.3967 -0.9064
29261SOL    HW192630   9.301   4.954  -0.022 -0.5641  1.4303 -1.2870
29261SOL    HW292631   9.315   4.963   0.128  0.4140  0.8569 -1.3394
29262SOL     OW92632   9.667   0.880   1.290  0.0646  0.6896  1.3048
29262SOL    HW192633   9.606   0.930   1.236  0.8881  0.8165  0.4593
29262SOL    HW292634   9.612   0.838   1.356 -1.0769 -0.1253 -0.1086
29263SOL     OW92635   8.831   5.276   1.105 -0.1326 -0.2846 -0.3728
29263SOL    HW192636   8.833   5.360   1.060  0.0453 -0.8410 -1.4444
29263SOL    HW292637   8.834   5.298   1.198  1.1230  0.8581 -0.6496
29264SOL     OW92638   8.385   4.251   9.005 -0.1840  0.5854  0.1526
29264SOL    HW192639   8.315   4.196   8.970 -1.0268  1.2329  0.7843
29264SOL    HW292640   8.373   4.248   9.100  2.2620 -1.4108  0.5210
29265SOL     OW92641   8.858   3.901   7.599  0.5979 -0.5293  0.0929
29265SOL    HW192642   8.946   3.873   7.621  0.3110 -0.5360  1.2812
29265SOL    HW292643   8.857   3.995   7.616  0.7397 -0.2829 -1.1749
29266SOL     OW92644   0.807   4.998   1.440  0.1372 -0.0765  0.2724
29266SOL    HW192645   0.796   4.927   1.378  0.2098  0.3835 -0.2717
29266SOL    HW292646   0.901   5.000   1.459 -0.0469 -1.0779  1.4413
29267SOL     OW92647   0.110   6.409   7.565 -0.1111 -0.2615  0.2763
29267SOL    HW192648   0.016   6.390   7.567 -0.2689  0.1236 -1.6378
29267SOL    HW292649   0.140   6.389   7.654 -2.2817  1.1165  1.4307
29268SOL     OW92650   9.093   7.613   9.472 -0.2697  0.4893 -0.4885
29268SOL    HW192651   9.025   7.628   9.407 -0.3287 -0.0698 -0.5591
29268SOL    HW292652   9.046   7.604   9.555 -0.1065  2.6149 -0.1067
29269SOL     OW92653   0.865   5.032   9.205  0.3407 -0.1366 -0.3689
29269SOL    HW192654   0.842   5.123   9.186  1.7458  0.6086  1.1966
29269SOL    HW292655   0.785   4.994   9.242  0.5179  1.3828  1.7637
29270SOL     OW92656   7.698   3.008   9.217 -0.1450  0.1448  0.0006
29270SOL    HW192657   7.716   3.063   9.141  0.8321  0.9904  0.8194
29270SOL    HW292658   7.622   3.048   9.259  0.0644  0.3953  0.1419
29271SOL     OW92659   9.491   5.945   8.894  0.8294  0.3290 -0.0438
29271SOL    HW192660   9.496   5.861   8.939  1.6925  0.9308  1.0362
29271SOL    HW292661   9.449   5.925   8.810 -1.3259 -0.7533  1.2135
29272SOL     OW92662   0.544   3.286   7.808 -0.2697 -0.4238  0.0511
29272SOL    HW192663   0.547   3.190   7.801 -0.8390 -0.3362 -1.6640
29272SOL    HW292664   0.509   3.316   7.725 -1.5322  1.2165  1.1097
29273SOL     OW92665   8.872   4.853   9.444  0.2510 -0.3562  0.0717
29273SOL    HW192666   8.802   4.824   9.386  1.3993 -0.1644 -1.4619
29273SOL    HW292667   8.853   4.809   9.528 -0.1266 -2.5900 -1.0981
29274SOL     OW92668   9.010   4.960   6.139 -0.0696 -0.0292  0.1118
29274SOL    HW192669   9.019   5.033   6.077 -0.9547 -0.3151 -0.3699
29274SOL    HW292670   8.986   5.001   6.222  0.6926  0.3195  0.1749
29275SOL     OW92671   0.203   6.406   0.978 -0.0683 -0.4228  0.1442
29275SOL    HW192672   0.290   6.374   0.957 -0.1015 -0.6896  0.4101
29275SOL    HW292673   0.169   6.441   0.896  1.4836  2.5737  0.6277
29276SOL     OW92674   0.731   5.402   7.994 -0.3382 -0.0876  0.4405
29276SOL    HW192675   0.682   5.320   7.985 -0.6527  0.3257 -2.5575
29276SOL    HW292676   0.674   5.457   8.047 -0.7502 -1.3199  1.3399
29277SOL     OW92677   1.047   5.536   0.857  0.5467 -0.3894 -0.2721
29277SOL    HW192678   1.089   5.621   0.851 -0.5879  0.1600 -0.7753
29277SOL    HW292679   1.063   5.507   0.946 -1.1908  1.5433  0.7632
29278SOL     OW92680   7.925   5.312   7.508  0.9154  0.2729  0.4763
29278SOL    HW192681   8.013   5.305   7.470  0.5042  0.3160 -0.5147
29278SOL    HW292682   7.922   5.401   7.544  0.4289  1.2833 -1.8127
29279SOL     OW92683   2.898   3.478   6.978  0.4943  0.8465  0.6432
29279SOL    HW192684   2.939   3.562   6.957  0.0015  0.5135 -2.0697
29279SOL    HW292685   2.824   3.501   7.035  0.6492  2.2093  0.3328
29280SOL     OW92686   7.427   7.108   8.883 -0.5719  0.7184 -0.3904
29280SOL    HW192687   7.474   7.078   8.961 -0.6816 -1.3101 -1.0352
29280SOL    HW292688   7.488   7.168   8.839  0.6327 -0.3179 -0.1848
29281SOL     OW92689   2.555   6.460   9.288  0.2241 -0.4669  0.4644
29281SOL    HW192690   2.512   6.527   9.235 -0.1793  0.1041  1.4973
29281SOL    HW292691   2.484   6.419   9.338  0.1361 -2.9991 -1.5007
29282SOL     OW92692   8.427   3.546   9.508 -0.1245  0.3605  0.1946
29282SOL    HW192693   8.471   3.586   9.432  0.5569 -0.5673  0.0799
29282SOL    HW292694   8.458   3.455   9.508 -0.1312  0.3495  1.5876
29283SOL     OW92695   7.639   5.791   7.185 -1.1755  0.1832 -0.6056
29283SOL    HW192696   7.673   5.702   7.191 -1.7994 -0.1638 -1.8775
29283SOL    HW292697   7.690   5.832   7.115 -0.6359  0.9627  0.2168
29284SOL     OW92698   9.159   5.241   9.611 -0.2612 -0.3063 -0.0486
29284SOL    HW192699   9.213   5.162   9.607  1.6494  0.8865  0.6091
29284SOL    HW292700   9.133   5.257   9.521  1.6527 -0.2111 -0.6314
29285SOL     OW92701   8.835   2.235   8.170 -0.0881  0.1969 -0.2136
29285SOL    HW192702   8.812   2.309   8.115  1.3586 -0.5008 -1.8652
29285SOL    HW292703   8.787   2.161   8.133 -0.1148 -0.0377  0.2812
29286SOL     OW92704   8.495   6.428   6.099 -0.2274  0.0926 -0.3012
29286SOL    HW192705   8.470   6.408   6.190 -0.3954 -1.0458 -0.5732
29286SOL    HW292706   8.580   6.472   6.107 -0.0568 -0.3352  0.4007
29287SOL     OW92707   0.630   4.914   9.342 -0.0925 -0.4610 -0.0788
29287SOL    HW192708   0.672   4.830   9.358 -0.5719 -0.2291  2.9853
29287SOL    HW292709   0.544   4.892   9.307  0.7565 -1.0734 -1.9197
29288SOL     OW92710   9.137   4.768   7.154  0.0052 -0.4410  0.0284
29288SOL    HW192711   9.136   4.770   7.058 -0.4190 -0.1214  0.0347
29288SOL    HW292712   9.199   4.837   7.178  1.0682 -1.3642 -0.0283
29289SOL     OW92713   0.302   5.303   0.018 -0.5887 -0.4092  0.2417
29289SOL    HW192714   0.264   5.263   0.095  1.7507 -1.4981  0.9253
29289SOL    HW292715   0.377   5.353   0.052  0.3257 -0.6936 -1.2838
29290SOL     OW92716   9.593   5.570   9.363 -0.1679 -0.3302  0.5297
29290SOL    HW192717   9.563   5.500   9.304 -0.9684 -0.9634  1.6514
29290SOL    HW292718   9.556   5.548   9.448  1.6759  0.0915  1.5043
29291SOL     OW92719   7.802   2.297   9.310  0.0761 -1.4786 -0.2021
29291SOL    HW192720   7.826   2.367   9.371  1.2183 -1.3217 -0.8080
29291SOL    HW292721   7.718   2.325   9.274 -0.0416 -0.9965  0.4206
29292SOL     OW92722   8.859   4.770   8.468 -0.2684  0.1945  0.3135
29292SOL    HW192723   8.795   4.805   8.406 -2.3594 -0.7072  1.8447
29292SOL    HW292724   8.940   4.766   8.418 -1.6892  0.0951 -2.1763
29293SOL     OW92725   9.652   2.600   8.673  0.0955 -0.3877 -0.3586
29293SOL    HW192726   9.645   2.508   8.697 -0.2355 -0.3376 -0.2594
29293SOL    HW292727   9.719   2.635   8.732  0.8840 -0.7654 -1.0030
29294SOL     OW92728   9.429   3.757   5.856 -0.2675 -0.0321  0.1016
29294SOL    HW192729   9.363   3.690   5.839  0.5157 -0.6110 -0.7355
29294SOL    HW292730   9.422   3.817   5.782  1.5308 -1.2532 -1.1524
29295SOL     OW92731   8.990   4.327   8.260  0.5524  0.0309 -0.1568
29295SOL    HW192732   9.041   4.329   8.180 -0.9477  2.1230 -1.1572
29295SOL    HW292733   8.938   4.246   8.254 -0.8571  1.0066 -2.2321
29296SOL     OW92734   9.563   3.845   0.299  0.4098 -0.1376 -0.3699
29296SOL    HW192735   9.484   3.802   0.266  0.5297 -0.3004 -0.4442
29296SOL    HW292736   9.634   3.809   0.246  0.3716  1.0781 -1.2785
29297SOL     OW92737   1.286   6.532   8.040  0.2871 -0.0084 -0.1909
29297SOL    HW192738   1.283   6.440   8.012  1.6303 -0.0093 -0.4195
29297SOL    HW292739   1.367   6.566   8.001  0.1199  1.1102  0.3916
29298SOL     OW92740   0.811   3.695   8.987  0.1887  0.1600 -0.2822
29298SOL    HW192741   0.841   3.614   8.943 -1.2197  0.2155 -1.4190
29298SOL    HW292742   0.725   3.673   9.021  0.5986  0.6312  1.1002
29299SOL     OW92743   7.765   5.768   9.628 -0.5404 -0.1742 -0.0924
29299SOL    HW192744   7.781   5.728   9.713 -2.7930 -0.3854  0.2924
29299SOL    HW292745   7.774   5.862   9.644 -0.0485 -0.2659  0.1662
29300SOL     OW92746   2.422   4.379   9.068  0.7601 -0.2059 -0.6098
29300SOL    HW192747   2.336   4.390   9.110  2.3792  5.1447  2.3082
29300SOL    HW292748   2.470   4.324   9.129  0.7685  1.0190  0.5467
29301SOL     OW92749   3.000   3.743   8.057  0.2641 -0.0602  0.4073
29301SOL    HW192750   3.077   3.770   8.107  1.5277 -1.2240 -0.8231
29301SOL    HW292751   2.997   3.648   8.066 -1.2158 -0.0127  0.6631
29302SOL     OW92752   9.033   5.301   8.091 -0.0587 -0.1921  0.2485
29302SOL    HW192753   9.003   5.310   8.001  1.1092 -0.4562 -0.1863
29302SOL    HW292754   8.993   5.375   8.137  1.4575  1.5670 -1.0778
29303SOL     OW92755   7.554   5.058   8.692  0.9089 -0.2901 -0.2194
29303SOL    HW192756   7.501   5.106   8.628  0.3323 -1.3014 -0.5241
29303SOL    HW292757   7.644   5.074   8.666  0.8663  2.2209  0.8407
29304SOL     OW92758   9.355   3.187   1.200 -1.4378  0.1019  0.2974
29304SOL    HW192759   9.383   3.265   1.248 -0.8250  0.3394 -0.4392
29304SOL    HW292760   9.332   3.219   1.113  0.4506 -0.7565 -0.5806
29305SOL     OW92761   9.799   6.644   7.921 -0.2365 -0.1825 -0.5751
29305SOL    HW192762   9.713   6.602   7.927 -0.6706  0.5229 -1.6373
29305SOL    HW292763   9.812   6.685   8.007 -0.5582 -1.0251 -0.1095
29306SOL     OW92764   8.051   6.213   8.278  0.1988  0.6510 -0.7130
29306SOL    HW192765   7.960   6.226   8.253  0.2262  1.6515 -0.3640
29306SOL    HW292766   8.096   6.188   8.197 -0.4505 -0.2507 -0.8026
29307SOL     OW92767   0.687   4.956   2.097 -0.0165 -0.2500 -0.3006
29307SOL    HW192768   0.776   4.968   2.131 -1.2358 -2.2209  4.4324
29307SOL    HW292769   0.689   4.868   2.059 -0.3561 -1.3093  1.9791
29308SOL     OW92770   7.566   7.449   9.301 -0.1904 -0.2875 -0.8742
29308SOL    HW192771   7.561   7.353   9.297  0.9368 -0.4353  0.4984
29308SOL    HW292772   7.659   7.466   9.319 -0.8605  0.9311  1.7806
29309SOL     OW92773   1.708   5.874   0.551 -0.4970  0.1950 -0.2395
29309SOL    HW192774   1.800   5.856   0.570 -0.1161 -1.8881 -3.2029
29309SOL    HW292775   1.707   5.964   0.519  0.3131  0.5670  0.7506
29310SOL     OW92776   8.458   6.802   0.221  0.1669 -0.0530 -0.0912
29310SOL    HW192777   8.494   6.748   0.291  1.0796  0.5761 -0.0519
29310SOL    HW292778   8.445   6.888   0.262  0.6228  0.2934 -0.6591
29311SOL     OW92779   2.090   3.745   2.297 -0.0345 -0.0557  0.9890
29311SOL    HW192780   2.029   3.691   2.348 -0.8568 -0.0003  0.0979
29311SOL    HW292781   2.040   3.771   2.220  0.7204  1.0489  0.8499
29312SOL     OW92782   8.330   5.192   9.331  0.3569  0.4935  0.1330
29312SOL    HW192783   8.291   5.278   9.317 -0.5125  0.1543  0.4008
29312SOL    HW292784   8.396   5.206   9.399  0.6820  1.0644 -0.2900
29313SOL     OW92785   7.220   4.825   0.384  0.0685  0.1489 -0.1447
29313SOL    HW192786   7.291   4.857   0.329 -0.2191 -0.5242 -0.9294
29313SOL    HW292787   7.264   4.794   0.463  0.2946  3.0644  0.9808
29314SOL     OW92788   0.053   5.454   1.471 -0.5705  0.3324  0.0503
29314SOL    HW192789  -0.029   5.466   1.422 -0.3824  2.2370  0.1318
29314SOL    HW292790   0.026   5.453   1.563 -0.5424  0.7568  0.0673
29315SOL     OW92791   0.315   5.983   6.612 -0.2433 -0.3651  0.2620
29315SOL    HW192792   0.400   5.953   6.580  0.8137  0.9538  1.6942
29315SOL    HW292793   0.252   5.921   6.574  1.1856 -0.6186 -1.8896
29316SOL     OW92794   9.041   4.279   8.903 -0.6378  0.1554  0.1465
29316SOL    HW192795   9.072   4.348   8.962 -0.7193 -0.8652  1.4311
29316SOL    HW292796   9.013   4.209   8.962 -0.3278 -1.0693 -1.1325
29317SOL     OW92797   0.747   3.105   0.284  0.0290 -0.7638  0.6145
29317SOL    HW192798   0.797   3.024   0.295  2.0418  0.1379 -1.2067
29317SOL    HW292799   0.776   3.162   0.355 -1.8046 -1.7499  2.2410
29318SOL     OW92800   8.240   2.045   8.355 -0.6123 -0.1339 -0.3083
29318SOL    HW192801   8.178   2.009   8.419 -0.7320 -3.4113 -2.0641
29318SOL    HW292802   8.326   2.022   8.390 -0.6282 -0.6848 -0.6209
29319SOL     OW92803   0.543   5.373   8.479  0.1331  0.2480 -0.6682
29319SOL    HW192804   0.575   5.421   8.555 -1.9098  0.1245  0.3328
29319SOL    HW292805   0.463   5.419   8.454  0.2589 -0.2889 -2.1694
29320SOL     OW92806   7.909   5.066   8.797  0.0395 -0.0472 -0.1975
29320SOL    HW192807   7.997   5.033   8.781 -0.5379 -1.1974 -1.1923
29320SOL    HW292808   7.874   5.084   8.709 -0.7891  0.1880  0.1698
29321SOL     OW92809   1.115   5.031   0.077 -0.4214  0.4327  0.2188
29321SOL    HW192810   1.047   5.093   0.102 -1.8405 -1.2823  0.7986
29321SOL    HW292811   1.143   4.992   0.160  1.1813  0.9808 -0.0285
29322SOL     OW92812   6.562   4.644   1.625  0.0114  0.1151 -0.5154
29322SOL    HW192813   6.592   4.726   1.587  1.3691 -1.1129 -2.2292
29322SOL    HW292814   6.642   4.595   1.644 -0.7135 -0.3896  1.6289
29323SOL     OW92815   9.746   3.707   2.431 -0.6547  0.2126 -0.0344
29323SOL    HW192816   9.778   3.635   2.486  0.5496 -0.7034 -1.8207
29323SOL    HW292817   9.711   3.771   2.493 -1.3363 -1.6814  1.6676
29324SOL     OW92818   7.052   5.719   0.654 -0.4654 -0.1342  0.1741
29324SOL    HW192819   7.102   5.666   0.592 -1.8635 -0.7362 -0.5019
29324SOL    HW292820   7.066   5.678   0.739 -2.8528 -2.7675 -0.5511
29325SOL     OW92821   9.539   6.053   8.526 -0.4194  0.3567 -0.4395
29325SOL    HW192822   9.532   6.112   8.601  1.7768  1.5324 -1.0990
29325SOL    HW292823   9.609   6.089   8.473  0.1975 -2.1843 -1.5066
29326SOL     OW92824   0.330   4.727   0.615  0.1669 -0.2734 -0.6979
29326SOL    HW192825   0.360   4.817   0.633  1.1035 -0.2821 -2.0684
29326SOL    HW292826   0.343   4.716   0.521 -1.4697 -1.3120 -0.8359
29327SOL     OW92827   1.113   5.137   8.136 -0.6069  0.0633  0.1341
29327SOL    HW192828   1.121   5.071   8.205 -0.8325  0.4456  0.5295
29327SOL    HW292829   1.032   5.116   8.091 -1.2972  0.7621  1.0103
29328SOL     OW92830   0.161   7.423   7.246 -0.0209  0.5617 -0.3233
29328SOL    HW192831   0.172   7.333   7.215  0.4703  0.4228  0.2444
29328SOL    HW292832   0.099   7.416   7.318  0.6740  0.5531  0.2849
29329SOL     OW92833   9.208   3.643   8.826 -0.5520 -0.2710  0.0346
29329SOL    HW192834   9.216   3.738   8.826 -0.4851 -0.2508 -1.4045
29329SOL    HW292835   9.113   3.628   8.824 -0.5906 -0.1448 -2.2728
29330SOL     OW92836   9.779   3.216   8.696 -0.0959 -0.0461 -0.4687
29330SOL    HW192837   9.685   3.194   8.688  0.1007 -1.2081  0.1163
29330SOL    HW292838   9.781   3.295   8.750 -0.7379 -0.0380 -0.4464
29331SOL     OW92839   1.354   4.242   1.376 -0.3159 -0.2938  0.7971
29331SOL    HW192840   1.387   4.315   1.428 -1.0619 -0.8711  2.1195
29331SOL    HW292841   1.429   4.183   1.367  0.3443  0.7028 -0.4490
29332SOL     OW92842   9.106   4.861   9.314 -0.1589  0.4550 -0.0793
29332SOL    HW192843   9.018   4.862   9.351  0.3378  2.6447  1.2209
29332SOL    HW292844   9.159   4.814   9.380 -0.2110 -0.2740 -0.5453
29333SOL     OW92845   1.792   3.800   9.103 -0.6552 -0.2773 -0.2761
29333SOL    HW192846   1.798   3.867   9.034  1.8489 -0.8288 -0.7053
29333SOL    HW292847   1.704   3.764   9.094 -0.7850  0.4242 -2.4653
29334SOL     OW92848   7.906   4.135   8.653 -0.2400  0.0337 -0.0205
29334SOL    HW192849   7.952   4.160   8.573 -0.4384  0.2588 -0.0665
29334SOL    HW292850   7.957   4.174   8.724  0.1415 -0.4736 -0.0126
29335SOL     OW92851   8.116   5.398   0.542 -0.0296 -0.0884  0.0952
29335SOL    HW192852   8.022   5.403   0.525 -0.3346 -1.6194  1.1363
29335SOL    HW292853   8.148   5.333   0.480  0.2709  0.1261  0.0246
29336SOL     OW92854   7.875   5.783   8.967  0.1050 -0.0208  0.1216
29336SOL    HW192855   7.952   5.746   8.923 -0.7641 -1.5147 -0.1864
29336SOL    HW292856   7.867   5.871   8.929  1.0266 -0.2434 -0.6320
29337SOL     OW92857   9.357   6.831   2.367  0.2929  0.6771  0.4047
29337SOL    HW192858   9.319   6.763   2.311 -3.3182  3.4674 -0.9817
29337SOL    HW292859   9.444   6.847   2.331  0.3764 -1.6386 -0.5736
29338SOL     OW92860   2.139   5.249   2.526 -0.1266 -0.4938 -0.1371
29338SOL    HW192861   2.203   5.279   2.590  1.3305 -0.3339 -1.6194
29338SOL    HW292862   2.077   5.322   2.518  1.3869  0.7500 -1.0853
29339SOL     OW92863   8.238   8.217   0.052  0.3175  0.2079 -0.1020
29339SOL    HW192864   8.251   8.289   0.114  0.5941  0.9738 -1.0273
29339SOL    HW292865   8.183   8.254  -0.017 -1.2058 -1.0626  0.3853
29340SOL     OW92866   1.618   4.703   9.052  0.4822  0.2397  1.1676
29340SOL    HW192867   1.545   4.694   9.112  0.6892  0.5335  1.4641
29340SOL    HW292868   1.580   4.743   8.974  0.1284 -0.5409  0.9309
29341SOL     OW92869   0.028   7.529   9.345 -0.4061  0.4989  0.1239
29341SOL    HW192870   0.087   7.565   9.279  0.9780 -0.4198  0.7937
29341SOL    HW292871  -0.021   7.604   9.378 -0.8973  1.0190 -1.7042
29342SOL     OW92872   8.671   6.116   3.652  0.1428 -0.6559  0.4164
29342SOL    HW192873   8.657   6.117   3.558  0.1227  0.4394  0.4150
29342SOL    HW292874   8.585   6.096   3.689  0.1653 -1.1513  0.2109
29343SOL     OW92875   8.906   6.101   9.568 -0.5075  0.3161 -0.1017
29343SOL    HW192876   8.964   6.167   9.607  0.7264 -0.7412 -0.1013
29343SOL    HW292877   8.867   6.057   9.643  0.4723 -0.4991 -0.0474
29344SOL     OW92878   1.100   3.664   9.550  0.0374  0.4483  0.5685
29344SOL    HW192879   1.123   3.696   9.637 -2.1973 -0.3233  1.5124
29344SOL    HW292880   1.005   3.677   9.543  0.1795  0.7919 -1.9095
29345SOL     OW92881   8.572   5.697   2.424  0.0797  0.0074  0.0559
29345SOL    HW192882   8.526   5.637   2.482 -0.0806  0.2231  0.1546
29345SOL    HW292883   8.521   5.778   2.428  1.1369  0.6446  1.1178
29346SOL     OW92884   1.633   5.679   1.073 -0.1562 -0.3504 -0.1311
29346SOL    HW192885   1.569   5.615   1.042 -1.0280  0.5737 -0.2932
29346SOL    HW292886   1.629   5.750   1.009  0.4967  0.0588  0.2650
29347SOL     OW92887   8.817   7.951   1.818 -0.0010  0.8220  0.2160
29347SOL    HW192888   8.775   7.866   1.824  0.1585  0.7502  0.3509
29347SOL    HW292889   8.876   7.954   1.894  1.6130  0.1618 -0.9515
29348SOL     OW92890   0.373   5.803   8.494 -0.0645 -0.6078  0.6463
29348SOL    HW192891   0.457   5.782   8.452 -1.0521  0.1847 -1.8735
29348SOL    HW292892   0.388   5.888   8.536  0.1492 -0.0060 -0.6116
29349SOL     OW92893   0.050   6.076   0.495  0.5448  0.1818 -0.2107
29349SOL    HW192894   0.134   6.086   0.538  1.1187 -2.1474 -0.6537
29349SOL    HW292895  -0.001   6.153   0.523  1.5459 -0.1826  2.9598
29350SOL     OW92896   1.897   6.956   0.774  0.1543  0.2516  0.1132
29350SOL    HW192897   1.928   6.874   0.736  1.4569  0.2809  1.0544
29350SOL    HW292898   1.928   7.024   0.713 -0.6509  0.0882 -0.4972
29351SOL     OW92899   0.065   6.905   9.613  0.2352 -0.4528  0.5347
29351SOL    HW192900  -0.014   6.942   9.574  0.8387 -1.5071 -1.8892
29351SOL    HW292901   0.033   6.848   9.683 -1.0867 -0.2661  0.1078
29352SOL     OW92902   9.406   8.683   4.424 -0.0188 -0.7057  0.3076
29352SOL    HW192903   9.399   8.681   4.329 -2.4954  0.1615  0.4099
29352SOL    HW292904   9.441   8.597   4.447  2.4855 -0.2626 -1.4429
29353SOL     OW92905   0.810   5.910   2.153  0.0062  0.0502 -0.3596
29353SOL    HW192906   0.824   5.819   2.178 -0.5555 -0.1269 -0.6611
29353SOL    HW292907   0.893   5.954   2.173 -0.2084 -0.2020  1.2419
29354SOL     OW92908   0.596   7.531   1.914  0.3074  0.2836 -0.0209
29354SOL    HW192909   0.668   7.594   1.905 -1.1229  2.2093  1.1646
29354SOL    HW292910   0.615   7.485   1.995  0.4819  0.4120  0.0120
29355SOL     OW92911   9.220   8.071   3.590 -0.1309  0.1562 -0.1449
29355SOL    HW192912   9.272   8.092   3.668 -0.1556  0.2473 -0.1530
29355SOL    HW292913   9.202   8.156   3.550 -2.3453  0.3763  1.1609
29356SOL     OW92914   9.465   4.501   2.298 -0.7692  0.0278  0.0208
29356SOL    HW192915   9.375   4.503   2.330 -0.4803 -1.6701  1.0985
29356SOL    HW292916   9.468   4.426   2.239 -0.1906  0.3833 -0.4084
29357SOL     OW92917   9.030   4.228   9.850  0.0249  0.0182 -0.4111
29357SOL    HW192918   8.979   4.148   9.854 -1.4129  0.8828 -0.8876
29357SOL    HW292919   9.017   4.269   9.936 -0.6439  0.5480 -0.7505
29358SOL     OW92920   9.550   6.509   9.856 -0.6114 -0.0839  0.1522
29358SOL    HW192921   9.588   6.526   9.942  0.3877 -0.2884 -0.2353
29358SOL    HW292922   9.462   6.544   9.862 -0.7514 -0.5792  1.4374
29359SOL     OW92923   0.587   6.205   1.638  0.0559 -0.1708  0.2974
29359SOL    HW192924   0.625   6.231   1.722 -1.0091  0.0081  0.7436
29359SOL    HW292925   0.493   6.207   1.653 -0.1221 -1.3956 -0.5460
29360SOL     OW92926   0.844   6.372   0.588  0.1049 -0.2054  0.0336
29360SOL    HW192927   0.862   6.339   0.676 -0.2984 -2.1229 -0.5476
29360SOL    HW292928   0.748   6.377   0.584  0.0831 -0.9120 -0.5394
29361SOL     OW92929   0.184   7.816   1.438 -0.0883  0.1027  0.3379
29361SOL    HW192930   0.222   7.794   1.524  1.7647 -1.3019 -0.7594
29361SOL    HW292931   0.233   7.762   1.376 -2.3850 -0.0207 -1.4786
29362SOL     OW92932   0.697   3.926   0.828  0.0665  0.1530 -0.0215
29362SOL    HW192933   0.764   3.926   0.759  1.8578 -0.4899  1.6046
29362SOL    HW292934   0.714   3.845   0.876 -2.8827 -0.7964 -0.3865
29363SOL     OW92935   1.582   4.182   9.532 -0.5021  0.0890 -0.5064
29363SOL    HW192936   1.624   4.261   9.499 -0.7803 -0.1176 -1.3983
29363SOL    HW292937   1.538   4.145   9.455 -0.6247 -0.7689 -0.0341
29364SOL     OW92938   0.011   5.478   1.099 -0.4105  0.0159  0.1248
29364SOL    HW192939   0.052   5.403   1.143  0.5996  0.7282  0.4488
29364SOL    HW292940   0.034   5.553   1.154  0.9567  0.9592 -1.6463
29365SOL     OW92941   0.755   5.153   0.666 -0.1845 -0.4529  0.0435
29365SOL    HW192942   0.820   5.222   0.678 -0.0627 -0.6528  0.5686
29365SOL    HW292943   0.718   5.139   0.753 -2.3425  1.0206 -0.5467
29366SOL     OW92944   8.563   7.289   2.154 -0.0887  0.1454  0.0845
29366SOL    HW192945   8.472   7.262   2.163 -0.3278  1.2194  1.1848
29366SOL    HW292946   8.570   7.318   2.063  0.1200 -3.1618 -1.0925
29367SOL     OW92947   9.391   4.858   0.555  0.3222  0.3771 -0.1671
29367SOL    HW192948   9.367   4.801   0.628 -1.0199  0.2441 -0.6950
29367SOL    HW292949   9.460   4.810   0.510  1.8225  0.8517  1.4801
29368SOL     OW92950   0.276   3.658   1.566  1.0008  0.0323  0.1632
29368SOL    HW192951   0.266   3.753   1.568  1.5988  0.1938 -1.8785
29368SOL    HW292952   0.370   3.643   1.568  0.9082 -0.5346  0.5705
29369SOL     OW92953   8.937   6.879   9.763  0.0307 -0.0123 -0.4720
29369SOL    HW192954   8.921   6.854   9.854  1.9173 -0.4752 -0.2187
29369SOL    HW292955   8.920   6.974   9.761 -1.8761 -0.3074 -0.1406
29370SOL     OW92956   8.679   7.370   0.695  0.1008 -0.7910  0.3725
29370SOL    HW192957   8.737   7.424   0.641 -1.1454  1.9665  1.5673
29370SOL    HW292958   8.735   7.336   0.764  0.7977 -0.4335 -0.0024
29371SOL     OW92959   9.228   7.706   0.237 -0.4322 -0.5642  0.1391
29371SOL    HW192960   9.162   7.763   0.276 -0.0830 -0.2800  0.3238
29371SOL    HW292961   9.207   7.704   0.144 -0.9001 -0.7424  0.2457
29372SOL     OW92962   9.153   5.370   1.021  0.2655 -0.5501 -0.1918
29372SOL    HW192963   9.223   5.306   1.010  0.7699  0.0162 -0.3181
29372SOL    HW292964   9.126   5.391   0.931  1.2983  0.6991 -0.2508
29373SOL     OW92965   8.316   7.372   7.986 -0.1638  0.2811 -0.2598
29373SOL    HW192966   8.240   7.313   7.985 -0.0693  0.1277  0.6725
29373SOL    HW292967   8.385   7.324   7.940 -0.9008  0.8234 -2.0151
29374SOL     OW92968   9.141   7.265   1.451 -0.2097 -0.3202 -0.6075
29374SOL    HW192969   9.186   7.225   1.526  2.0465  0.7787 -1.2968
29374SOL    HW292970   9.118   7.191   1.395 -1.8585 -1.1612  1.0369
29375SOL     OW92971   0.366   5.896   0.355  0.0216 -0.2171  0.1476
29375SOL    HW192972   0.401   5.916   0.268  0.5283 -1.4068  0.0741
29375SOL    HW292973   0.371   5.980   0.402 -1.1505  0.6860 -1.2536
29376SOL     OW92974   0.191   5.044   9.243 -0.3539  0.2356  0.2998
29376SOL    HW192975   0.185   4.954   9.277 -0.5283  0.1275 -0.0121
29376SOL    HW292976   0.223   5.034   9.154 -0.0358  0.5113  0.3840
29377SOL     OW92977   0.763   6.853   2.581  0.2176  0.3391 -0.5747
29377SOL    HW192978   0.760   6.949   2.574 -0.9464  0.2786 -1.1147
29377SOL    HW292979   0.825   6.826   2.513  1.2552  0.7440  0.1751
29378SOL     OW92980   9.034   5.992   0.674 -0.8993 -0.2041 -0.2012
29378SOL    HW192981   8.975   5.971   0.602 -0.3884  0.0598 -0.6987
29378SOL    HW292982   9.078   6.073   0.648  0.6558 -1.0877 -0.4565
29379SOL     OW92983   9.346   6.636   1.650 -0.1467 -0.2345 -0.2438
29379SOL    HW192984   9.406   6.607   1.582  1.3324  0.0938  0.8861
29379SOL    HW292985   9.259   6.626   1.610  0.3365 -4.0257 -0.7341
29380SOL     OW92986   9.288   5.625   8.879 -0.1553 -1.1549  0.8844
29380SOL    HW192987   9.319   5.662   8.795 -0.0078 -0.0469  1.4072
29380SOL    HW292988   9.266   5.535   8.858 -0.0276 -0.9290 -0.3406
29381SOL     OW92989   0.181   7.799   0.855 -0.8959 -0.1589  0.0479
29381SOL    HW192990   0.144   7.776   0.769 -1.0103 -0.2811  0.1297
29381SOL    HW292991   0.257   7.854   0.834 -1.6325  0.8218 -0.1021
29382SOL     OW92992   1.141   6.602   2.593  0.2691  0.2567 -0.1696
29382SOL    HW192993   1.150   6.694   2.616  2.3457  0.6594 -2.2184
29382SOL    HW292994   1.100   6.603   2.507 -1.7033 -0.9102  0.6765
29383SOL     OW92995   8.662   8.217   1.767  0.4057  0.0051 -0.6353
29383SOL    HW192996   8.620   8.192   1.849  0.3781  1.0763 -0.2998
29383SOL    HW292997   8.724   8.146   1.749 -0.8938 -1.1614 -0.6833
29384SOL     OW92998   9.823   6.770   0.384 -0.5552  0.0732 -0.2176
29384SOL    HW192999   9.825   6.751   0.477 -0.0838 -0.7156 -0.3778
29384SOL    HW293000   9.786   6.692   0.344 -1.3983  0.6760 -0.6375
29385SOL     OW93001   0.201   5.451   0.419  0.8411  0.0725  0.0335
29385SOL    HW193002   0.182   5.534   0.376 -0.7664  0.9480  2.2388
29385SOL    HW293003   0.208   5.473   0.512 -3.3226 -2.6282  1.2682
29386SOL     OW93004   8.162   6.172   1.212 -0.0249 -0.0070 -0.4005
29386SOL    HW193005   8.163   6.230   1.288  1.0303 -1.6579  0.9030
29386SOL    HW293006   8.079   6.125   1.218  0.7852 -1.3604  0.7509
29387SOL     OW93007   9.437   5.997   0.276  0.1258  0.5474 -0.0329
29387SOL    HW193008   9.407   5.942   0.348  0.3919 -1.2843 -1.2251
29387SOL    HW293009   9.499   6.058   0.315  1.1113 -1.1210  1.1478
29388SOL     OW93010   1.030   7.353   7.443 -0.0382 -0.5666  0.2209
29388SOL    HW193011   1.005   7.366   7.351  0.5471 -1.3286 -0.0602
29388SOL    HW293012   1.042   7.441   7.477 -1.6049 -0.2259 -0.0404
29389SOL     OW93013   1.077   7.957   0.583 -0.0377 -0.4014 -0.0295
29389SOL    HW193014   1.110   7.929   0.497 -0.9117 -2.5471  0.2591
29389SOL    HW293015   1.123   8.038   0.602 -0.2375  0.4435 -2.7750
29390SOL     OW93016   1.196   6.799   9.348 -0.0176 -0.6200  0.2653
29390SOL    HW193017   1.245   6.724   9.314 -0.2253 -0.3513 -0.6508
29390SOL    HW293018   1.262   6.866   9.363 -0.1009 -0.1283 -1.3189
29391SOL     OW93019   7.665   8.419   1.068 -0.0814 -0.3939  0.1972
29391SOL    HW193020   7.651   8.506   1.032 -0.1404 -0.6960 -0.5122
29391SOL    HW293021   7.759   8.417   1.089 -0.1083 -0.1156  0.3541
29392SOL     OW93022   0.952   5.860   1.284 -0.3287  0.0197  0.5715
29392SOL    HW193023   0.870   5.831   1.245 -0.2114 -0.6137  0.7807
29392SOL    HW293024   0.926   5.916   1.357 -0.6099 -0.9818  1.2674
29393SOL     OW93025   9.392   8.121   1.912  0.6261 -0.3790 -0.1820
29393SOL    HW193026   9.306   8.093   1.882  0.9035 -0.7938 -0.6073
29393SOL    HW293027   9.375   8.175   1.989 -0.1804  1.5566 -1.6346
29394SOL     OW93028   0.509   5.937   8.930  0.4777  0.1375  0.5742
29394SOL    HW193029   0.468   6.024   8.930 -1.5415 -0.7528  0.7040
29394SOL    HW293030   0.602   5.955   8.941  0.1306  2.2839  0.5708
29395SOL     OW93031   7.827   7.781   0.249 -0.3747  0.2673 -0.3872
29395SOL    HW193032   7.888   7.742   0.186  1.4232 -0.2838  1.5859
29395SOL    HW293033   7.769   7.708   0.273  1.4038 -0.6490  1.4184
29396SOL     OW93034   8.511   6.121   0.945 -0.1171  0.1562  0.2006
29396SOL    HW193035   8.475   6.200   0.985  2.3838  1.7306 -0.4447
29396SOL    HW293036   8.587   6.099   0.999  0.3856 -0.6049 -0.7843
29397SOL     OW93037   9.782   4.175   1.219 -0.5544  0.1474  0.1143
29397SOL    HW193038   9.770   4.091   1.176  0.5320  0.7643 -1.4821
29397SOL    HW293039   9.697   4.219   1.210 -0.4651  0.1048 -1.0777
29398SOL     OW93040   9.158   5.472   2.024 -0.0967 -0.3457  0.4107
29398SOL    HW193041   9.139   5.483   1.931 -0.9834  0.7815  0.7070
29398SOL    HW293042   9.242   5.516   2.036  0.0169 -0.4892  0.1451
29399SOL     OW93043   7.817   7.949   0.525  0.0820  0.3729  0.1384
29399SOL    HW193044   7.789   8.039   0.512 -0.0678  0.0137 -2.5491
29399SOL    HW293045   7.807   7.908   0.439  1.0598 -1.9582  1.0555
29400SOL     OW93046   9.479   6.929   3.031 -0.1060  0.2365 -0.1899
29400SOL    HW193047   9.413   6.987   3.069  0.8068 -1.3178  4.4589
29400SOL    HW293048   9.513   6.977   2.956 -0.8348  4.8220  2.0701
29401SOL     OW93049   7.804   6.518   2.930  0.1882 -0.3863  0.1727
29401SOL    HW193050   7.787   6.473   3.012  0.4466 -0.9873 -0.0954
29401SOL    HW293051   7.723   6.567   2.911  0.7498  1.2254  1.6804
29402SOL     OW93052   0.163   7.389   3.634 -0.1453 -0.3250  0.1262
29402SOL    HW193053   0.230   7.456   3.622 -0.9513  0.3518 -0.7809
29402SOL    HW293054   0.081   7.438   3.643 -0.6842 -1.1667 -0.0411
29403SOL     OW93055   0.414   7.641   2.620 -0.0390 -0.5658  0.2242
29403SOL    HW193056   0.495   7.647   2.669  0.5435 -0.4757 -0.7197
29403SOL    HW293057   0.374   7.728   2.628  0.1121 -0.5159  0.4341
29404SOL     OW93058   9.659   7.074   2.575  0.6581  0.2968  0.3469
29404SOL    HW193059   9.744   7.104   2.607  1.6081 -2.7928  1.1052
29404SOL    HW293060   9.675   6.984   2.547 -2.1058  0.0642 -0.7765
29405SOL     OW93061   9.448   7.585   3.209  0.2528  0.3926  0.3071
29405SOL    HW193062   9.448   7.649   3.280 -1.3253  0.0331  0.6645
29405SOL    HW293063   9.536   7.548   3.210  0.5030  0.9681  1.5602
29406SOL     OW93064   7.957   6.165   2.198  0.0329 -0.1655  0.0404
29406SOL    HW193065   7.999   6.189   2.281  1.0754 -3.3701  0.5816
29406SOL    HW293066   7.964   6.069   2.194 -0.9061 -0.2298 -3.2890
29407SOL     OW93067   7.589   8.052   2.570  0.0048  0.2030 -0.5582
29407SOL    HW193068   7.649   7.991   2.528  1.8972  2.1645 -0.8803
29407SOL    HW293069   7.567   8.115   2.502 -1.1723  0.4231  0.0027
29408SOL     OW93070   0.566   5.056   3.521 -0.2018  0.2920  0.2030
29408SOL    HW193071   0.522   5.141   3.519 -1.3913 -0.2510  1.6927
29408SOL    HW293072   0.532   5.010   3.444  0.7938  1.2954 -0.8719
29409SOL     OW93073   0.423   5.478   4.335  0.2847  0.1022 -0.2527
29409SOL    HW193074   0.417   5.573   4.330 -1.1539  0.1219  1.1535
29409SOL    HW293075   0.433   5.450   4.243 -1.5059  1.4842 -0.9212
29410SOL     OW93076   9.638   8.574   2.793  0.4054  0.1738  0.1150
29410SOL    HW193077   9.581   8.514   2.841 -0.4382 -0.6043 -1.7272
29410SOL    HW293078   9.577   8.634   2.749  1.0289 -0.0253 -1.0693
29411SOL     OW93079   0.942   6.240   2.928  0.3341  0.1526  0.7922
29411SOL    HW193080   0.897   6.322   2.950  0.5797  0.1593  1.2862
29411SOL    HW293081   0.957   6.198   3.012  2.2842  0.6905  0.7599
29412SOL     OW93082   1.235   3.270   2.777  0.2725  0.0002 -0.0741
29412SOL    HW193083   1.246   3.197   2.716 -2.3539 -0.5929  0.0772
29412SOL    HW293084   1.298   3.336   2.746 -0.0814 -0.7539 -2.6750
29413SOL     OW93085   9.504   6.065   2.546  0.5135 -0.5681  0.1705
29413SOL    HW193086   9.577   6.125   2.557 -0.8332  1.0738  0.5582
29413SOL    HW293087   9.545   5.981   2.524  2.5905 -0.2251  2.3117
29414SOL     OW93088   8.801   6.647   1.787  0.8916  0.3196  0.5498
29414SOL    HW193089   8.891   6.679   1.779  1.1286  0.3476  2.6523
29414SOL    HW293090   8.754   6.718   1.830  0.0666 -0.0409  0.2632
29415SOL     OW93091   9.794   6.575   2.857 -0.1260  0.1102  0.6936
29415SOL    HW193092   9.860   6.596   2.791 -2.4174  4.9976 -0.5232
29415SOL    HW293093   9.727   6.526   2.809  0.2583 -0.3316  0.6012
29416SOL     OW93094   9.610   5.928   4.475 -0.5955  0.3909  0.3613
29416SOL    HW193095   9.615   6.008   4.422 -1.1393 -0.7423 -1.4990
29416SOL    HW293096   9.687   5.878   4.449 -0.7401 -0.0800  0.8327
29417SOL     OW93097   8.987   9.009   1.701 -0.0210 -0.7192  0.1137
29417SOL    HW193098   8.895   8.985   1.690 -0.3166 -0.0329  0.9724
29417SOL    HW293099   8.984   9.097   1.740  1.0011  0.3880 -2.1144
29418SOL     OW93100   9.817   6.042   3.117  0.7577 -0.1381  0.2441
29418SOL    HW193101   9.870   5.963   3.125  0.6457 -0.2172  0.2003
29418SOL    HW293102   9.731   6.011   3.087  0.8934  0.0626 -0.3603
29419SOL     OW93103   1.358   6.915   6.445  0.0578  0.5729 -0.3514
29419SOL    HW193104   1.425   6.942   6.508  2.0778 -0.6477 -1.8560
29419SOL    HW293105   1.406   6.903   6.363 -1.5080 -2.6227 -0.9736
29420SOL     OW93106   9.542   5.067   3.348 -0.0921  0.2974  0.4514
29420SOL    HW193107   9.489   5.144   3.329 -0.4191  0.1113  0.6010
29420SOL    HW293108   9.596   5.056   3.270 -1.5928 -0.5969 -0.5180
29421SOL     OW93109   9.708   7.094   2.109  0.3062  0.1418 -0.3916
29421SOL    HW193110   9.695   7.046   2.028  0.4956 -0.6789  0.0545
29421SOL    HW293111   9.737   7.181   2.081 -0.3129  0.0966 -1.2159
29422SOL     OW93112   9.687   8.089   5.132  0.2127  0.1809  0.2409
29422SOL    HW193113   9.659   8.154   5.197  1.2930 -0.4326  1.3809
29422SOL    HW293114   9.653   8.121   5.049 -0.5235  1.4284  0.9943
29423SOL     OW93115   0.745   6.206   2.112 -0.0624  0.0713  0.4251
29423SOL    HW193116   0.836   6.191   2.136 -0.1627  0.6956  1.2671
29423SOL    HW293117   0.700   6.217   2.196 -0.6254  1.3395 -0.0065
29424SOL     OW93118   8.779   6.563   2.265  0.0585 -0.1323 -0.0286
29424SOL    HW193119   8.871   6.582   2.284 -0.2006  0.5050  0.6316
29424SOL    HW293120   8.738   6.555   2.351 -0.3595 -1.2079 -0.3135
29425SOL     OW93121   1.445   5.397   2.403  0.0608  0.0144 -0.0725
29425SOL    HW193122   1.426   5.337   2.475  1.9618 -0.7890 -0.1916
29425SOL    HW293123   1.472   5.341   2.331  1.1261  0.9603 -0.4368
29426SOL     OW93124   2.394   7.837   3.841 -0.5994  0.5421  0.0340
29426SOL    HW193125   2.380   7.819   3.934  2.6022  1.5325  0.8508
29426SOL    HW293126   2.334   7.909   3.821  1.0325  2.7782  2.4304
29427SOL     OW93127   0.293   5.351   3.826  0.6424 -0.2962 -0.5149
29427SOL    HW193128   0.229   5.330   3.894  2.1810 -1.4012  0.6654
29427SOL    HW293129   0.245   5.341   3.744 -1.4650  1.7684  0.3467
29428SOL     OW93130   8.744   5.418   3.220  0.0480  0.0863 -0.4430
29428SOL    HW193131   8.839   5.417   3.236 -0.3241 -0.7868  2.3857
29428SOL    HW293132   8.718   5.326   3.226 -1.0485  0.3717 -0.5936
29429SOL     OW93133   9.547   6.441   2.352 -0.1819 -0.3013 -0.1177
29429SOL    HW193134   9.571   6.504   2.420  1.5115 -0.6056 -0.3722
29429SOL    HW293135   9.452   6.442   2.350 -0.2241  0.9516  1.0910
29430SOL     OW93136   9.442   6.609   4.240  0.0352 -0.2498  0.1459
29430SOL    HW193137   9.434   6.685   4.182  0.4072 -0.0167  0.3948
29430SOL    HW293138   9.365   6.556   4.220  1.0488 -1.0815 -1.8995
29431SOL     OW93139   9.381   5.718   4.184  0.4629 -0.0273 -0.5347
29431SOL    HW193140   9.303   5.680   4.144 -0.1498  0.5835  0.0588
29431SOL    HW293141   9.400   5.661   4.259  0.4069  0.0024 -0.4981
29432SOL     OW93142   9.586   6.493   2.686  0.6515  0.0777 -0.3151
29432SOL    HW193143   9.511   6.533   2.730 -0.4109 -2.6840  0.5986
29432SOL    HW293144   9.610   6.556   2.618 -2.1727  1.3130 -0.3155
29433SOL     OW93145   9.620   9.361   2.143 -0.5481 -0.1922 -0.9984
29433SOL    HW193146   9.616   9.303   2.067 -1.3695 -0.6237 -0.6300
29433SOL    HW293147   9.532   9.360   2.179  0.5332 -2.5352  1.8940
29434SOL     OW93148   9.592   6.519   3.472 -0.2403  0.3816  0.2557
29434SOL    HW193149   9.546   6.502   3.390 -1.5089  1.3616  0.7357
29434SOL    HW293150   9.590   6.614   3.481  1.5429  0.4318  0.5158
29435SOL     OW93151   6.755   7.223   3.304 -0.3311  0.1251 -0.5275
29435SOL    HW193152   6.850   7.211   3.295 -0.3143  0.4272 -0.8036
29435SOL    HW293153   6.726   7.148   3.356  0.5368  1.6732  2.4436
29436SOL     OW93154   3.002   6.006   3.699  0.2675  0.4014 -0.0760
29436SOL    HW193155   2.962   6.023   3.784 -2.5356 -0.5634 -1.1161
29436SOL    HW293156   3.010   5.911   3.694 -0.5627  0.3694 -1.2563
29437SOL     OW93157   8.459   7.440   2.435  0.2512  0.0106 -0.4520
29437SOL    HW193158   8.486   7.517   2.384 -0.7805  0.9165  0.3199
29437SOL    HW293159   8.531   7.426   2.497  1.2837 -0.7965 -1.7767
29438SOL     OW93160   1.639   6.011   3.265 -0.1573 -0.3203  0.2245
29438SOL    HW193161   1.682   5.940   3.218  0.3223  0.4274 -0.5015
29438SOL    HW293162   1.576   5.968   3.323 -0.1548 -1.3048 -0.4926
29439SOL     OW93163   9.399   6.741   3.576 -0.0587  0.0484 -0.1673
29439SOL    HW193164   9.365   6.657   3.605 -0.8011  1.5255  3.7889
29439SOL    HW293165   9.330   6.778   3.520 -1.7891 -0.1518  1.7216
29440SOL     OW93166   9.260   7.257   2.244 -0.5479  0.2625  0.0043
29440SOL    HW193167   9.300   7.248   2.330 -1.6096 -1.4561  0.3564
29440SOL    HW293168   9.310   7.199   2.187 -1.8754 -1.2086  0.2524
29441SOL     OW93169   1.867   7.825   3.556 -0.4135 -0.4836  0.2548
29441SOL    HW193170   1.779   7.862   3.564 -0.6966 -0.9168 -0.7271
29441SOL    HW293171   1.920   7.897   3.521 -1.0635 -1.0580 -2.1131
29442SOL     OW93172   8.435   5.873   4.312 -0.3260  0.1833  0.3578
29442SOL    HW193173   8.488   5.829   4.379  0.8556  0.9460 -0.0352
29442SOL    HW293174   8.459   5.830   4.230 -1.2191 -0.2569  0.3197
29443SOL     OW93175   3.600   5.507   3.431 -0.0764 -0.2472 -0.1505
29443SOL    HW193176   3.594   5.567   3.357 -1.0064 -0.1950 -0.0453
29443SOL    HW293177   3.645   5.430   3.397  1.2877  0.5674 -0.2431
29444SOL     OW93178   8.640   6.647   3.824 -0.3854  0.1261  0.6523
29444SOL    HW193179   8.624   6.553   3.828 -1.1932  0.1639 -0.6905
29444SOL    HW293180   8.555   6.686   3.844 -0.7420  0.4808 -1.3458
29445SOL     OW93181   8.733   6.941   2.103  0.0265 -0.3462  0.4333
29445SOL    HW193182   8.758   7.018   2.052 -0.6514 -1.0713 -1.0485
29445SOL    HW293183   8.695   6.881   2.039  0.6891 -1.9934  1.5157
29446SOL     OW93184   9.567   6.995   3.969 -0.1149  0.3748  0.6576
29446SOL    HW193185   9.514   7.034   3.899 -0.6791  0.0975  0.9264
29446SOL    HW293186   9.543   7.045   4.047 -0.5511 -0.2575  0.9281
29447SOL     OW93187   9.736   6.879   4.799  0.1635  0.4203 -0.3751
29447SOL    HW193188   9.783   6.918   4.725  1.8816 -0.5153  0.1672
29447SOL    HW293189   9.791   6.805   4.826  0.3428  1.5537  2.7321
29448SOL     OW93190   0.340   8.118   3.311 -0.6124 -0.0215  0.4737
29448SOL    HW193191   0.411   8.116   3.247 -1.7057  0.3157 -0.7866
29448SOL    HW293192   0.360   8.194   3.366  0.3516 -0.3300  0.5738
29449SOL     OW93193   0.739   8.674   2.678 -0.6600 -0.9265 -0.0637
29449SOL    HW193194   0.816   8.658   2.622 -0.2086  0.0553  0.2667
29449SOL    HW293195   0.671   8.703   2.617 -0.5587 -1.0952 -0.2610
29450SOL     OW93196   3.148   3.150   1.859  0.2779 -0.8877  0.3240
29450SOL    HW193197   3.057   3.131   1.835 -0.5904 -0.3736  2.8914
29450SOL    HW293198   3.200   3.090   1.806 -1.0040  2.1289 -5.1466
29451SOL     OW93199   0.411   5.246   2.744  0.8112  0.1315 -0.0254
29451SOL    HW193200   0.375   5.304   2.811  1.5223 -0.0472  0.5273
29451SOL    HW293201   0.408   5.298   2.664 -1.0387 -0.0318 -0.0899
29452SOL     OW93202   0.989   5.542   3.551 -0.4210  0.1047 -0.3485
29452SOL    HW193203   0.968   5.496   3.470 -1.8690  0.7301 -0.3770
29452SOL    HW293204   1.047   5.613   3.524 -1.0050  0.3928 -0.8743
29453SOL     OW93205   9.322   5.687   9.300 -0.2411 -0.6504  0.2206
29453SOL    HW193206   9.415   5.669   9.314  0.3312 -0.1292 -2.4019
29453SOL    HW293207   9.287   5.606   9.265  0.1081  0.1852 -2.2328
29454SOL     OW93208   9.784   5.673   2.023 -0.4909  0.2836  0.3086
29454SOL    HW193209   9.799   5.754   2.073  0.9891  0.8089 -0.9154
29454SOL    HW293210   9.851   5.613   2.055  0.8790  0.8246 -1.3793
29455SOL     OW93211   9.469   5.759   5.694 -0.1617  0.3987 -0.2244
29455SOL    HW193212   9.478   5.852   5.674  1.2870  0.3382  0.0154
29455SOL    HW293213   9.557   5.723   5.681 -0.5700 -0.8303  0.2360
29456SOL     OW93214   9.339   7.496   4.700  0.0991  0.0528  0.0480
29456SOL    HW193215   9.248   7.526   4.700  0.2347  0.4924  0.8911
29456SOL    HW293216   9.375   7.529   4.617 -0.2957  0.5375  0.0647
29457SOL     OW93217   0.684   5.758   3.051  0.2268  0.2478 -0.5892
29457SOL    HW193218   0.696   5.789   2.961 -1.7876  1.6600 -0.4549
29457SOL    HW293219   0.610   5.697   3.046 -0.0105  0.4620  0.1016
29458SOL     OW93220   9.044   8.187   2.924  0.1945 -0.1804 -0.1355
29458SOL    HW193221   9.049   8.265   2.869  2.0922  1.8163  2.6037
29458SOL    HW293222   9.126   8.141   2.908 -0.0261 -0.5413 -0.2465
29459SOL     OW93223   6.634   5.353   2.158 -0.0403 -0.3184 -0.2387
29459SOL    HW193224   6.608   5.440   2.187  0.5737  0.4627 -1.9266
29459SOL    HW293225   6.601   5.346   2.069  2.2329 -0.7354 -1.1092
29460SOL     OW93226   0.216   5.535   2.294 -0.1115  0.4118 -0.5511
29460SOL    HW193227   0.193   5.627   2.308 -0.3400  0.1269  1.2481
29460SOL    HW293228   0.174   5.512   2.211 -2.8165  1.0963  0.5170
29461SOL     OW93229   9.840   6.106   4.024 -0.3000  0.1616  0.0275
29461SOL    HW193230   9.849   6.201   4.015 -0.4885  0.0883 -1.1975
29461SOL    HW293231   9.757   6.086   3.980  0.6155 -0.7538 -1.3980
29462SOL     OW93232   7.945   5.984   1.240  0.3833  0.1270 -0.1118
29462SOL    HW193233   7.947   5.949   1.329  0.8231  1.0115  0.2311
29462SOL    HW293234   7.854   6.005   1.224  0.2788 -0.1855  0.0636
29463SOL     OW93235   7.791   8.160   0.768  0.2274  0.9907  0.5599
29463SOL    HW193236   7.871   8.162   0.821  0.9458  1.4915 -0.4910
29463SOL    HW293237   7.803   8.232   0.706  0.7419 -1.2541 -2.1349
29464SOL     OW93238   0.873   6.676   4.060 -0.1619 -0.1496  0.4070
29464SOL    HW193239   0.794   6.654   4.010  0.6421 -2.0978 -0.1010
29464SOL    HW293240   0.940   6.692   3.993  0.0271  0.9435  0.8412
29465SOL     OW93241   3.493   7.953   3.483  1.1966 -0.1259 -0.4349
29465SOL    HW193242   3.562   7.971   3.419  2.1361 -2.2294 -0.1087
29465SOL    HW293243   3.412   7.950   3.431  1.8742 -1.3419 -1.4867
29466SOL     OW93244   0.792   8.089   3.011 -0.2960  0.0264  0.3587
29466SOL    HW193245   0.833   8.019   2.962 -0.0613 -0.3074  1.0177
29466SOL    HW293246   0.702   8.059   3.026 -0.3919  0.1660  0.0572
29467SOL     OW93247   9.196   4.319   8.524  0.2545 -0.5782 -0.7951
29467SOL    HW193248   9.262   4.364   8.578 -0.0358 -1.3856  0.2514
29467SOL    HW293249   9.245   4.252   8.478 -0.0592 -2.3947  1.3578
29468SOL     OW93250   8.764   9.390   6.654 -0.1276 -0.3355 -0.1167
29468SOL    HW193251   8.848   9.434   6.644  0.1917 -1.0435 -0.5809
29468SOL    HW293252   8.700   9.461   6.654  0.3488  0.1097 -1.1941
29469SOL     OW93253   0.246   6.564   3.230  0.1536  0.7789 -0.2099
29469SOL    HW193254   0.263   6.526   3.144  0.9220  0.5288  0.0368
29469SOL    HW293255   0.299   6.643   3.232 -1.8917  2.2278 -0.9375
29470SOL     OW93256   9.843   8.815   6.093 -0.1321 -0.7235 -0.6710
29470SOL    HW193257   9.753   8.845   6.106 -0.0439 -1.2900  1.5980
29470SOL    HW293258   9.875   8.794   6.181  1.7452 -1.9382 -1.5741
29471SOL     OW93259   7.834   5.561   3.227 -0.1667  0.1636 -0.3460
29471SOL    HW193260   7.788   5.495   3.278  1.0209 -0.2345  0.2527
29471SOL    HW293261   7.839   5.524   3.139 -0.4244 -0.0652 -0.2662
29472SOL     OW93262   0.327   7.418   3.320 -0.1970  0.2921  0.3269
29472SOL    HW193263   0.260   7.351   3.311  1.1409 -0.9463 -0.9662
29472SOL    HW293264   0.301   7.487   3.259 -0.2523 -0.2154 -0.2277
29473SOL     OW93265   2.375   6.133   5.074  0.2490 -0.4201 -0.1615
29473SOL    HW193266   2.327   6.064   5.120  0.2471 -0.3629 -0.0785
29473SOL    HW293267   2.322   6.152   4.996 -0.3026  0.2547  0.3738
29474SOL     OW93268   7.119   5.740   2.985 -0.2553 -0.3036 -0.5779
29474SOL    HW193269   7.186   5.809   2.987 -0.8232  0.2543  1.1667
29474SOL    HW293270   7.107   5.720   2.892  2.5051 -0.6162 -0.9548
29475SOL     OW93271   8.795   5.548   5.599  0.0543 -0.5668 -0.4343
29475SOL    HW193272   8.758   5.488   5.533  0.8186  0.8981 -2.3072
29475SOL    HW293273   8.722   5.602   5.627 -0.1230 -0.6212 -0.7791
29476SOL     OW93274   9.257   5.119   5.406 -0.3836  0.4484  0.6644
29476SOL    HW193275   9.177   5.088   5.364  0.7654 -2.2812  0.2932
29476SOL    HW293276   9.328   5.078   5.357  1.3144  2.7197  1.0169
29477SOL     OW93277   0.381   6.190   4.419 -0.2378  0.0533 -0.6028
29477SOL    HW193278   0.469   6.196   4.458  0.1490 -1.4922 -1.1531
29477SOL    HW293279   0.326   6.242   4.478  0.3580 -1.9918  1.9534
29478SOL     OW93280   7.971   4.998   5.828  0.0565 -0.2831 -0.2858
29478SOL    HW193281   7.889   5.013   5.875  1.2351  0.3216  1.6799
29478SOL    HW293282   7.999   5.085   5.801  0.5032 -0.3895 -0.1655
29479SOL     OW93283   0.951   5.377   3.332 -0.1846  0.0881 -0.2946
29479SOL    HW193284   0.914   5.438   3.268 -2.3117 -2.3521 -1.5246
29479SOL    HW293285   0.886   5.308   3.341  0.8983 -0.6718  3.1244
29480SOL     OW93286   9.149   7.397   5.552 -0.3417  0.0153  0.5706
29480SOL    HW193287   9.070   7.429   5.509 -0.0675  0.5578  0.4779
29480SOL    HW293288   9.173   7.318   5.503  0.3517  0.9904 -0.6980
29481SOL     OW93289   0.738   6.511   4.978  0.3216 -0.0949 -0.0918
29481SOL    HW193290   0.668   6.568   5.009  0.3999 -0.2912  0.4611
29481SOL    HW293291   0.698   6.424   4.974  0.6977 -0.3245  0.8509
29482SOL     OW93292   0.540   7.618   3.712  0.5963  0.0935  0.3419
29482SOL    HW193293   0.616   7.630   3.770  0.6660  2.0360 -0.0929
29482SOL    HW293294   0.575   7.569   3.637  0.6525 -1.8668  1.5810
29483SOL     OW93295   8.528   7.994   4.807  0.1741 -0.2278  0.5159
29483SOL    HW193296   8.597   7.931   4.831  0.0039 -0.3939  0.5710
29483SOL    HW293297   8.461   7.982   4.874 -0.0487 -0.2868  0.2801
29484SOL     OW93298   9.407   6.287   5.465  0.4499 -0.0316  0.1852
29484SOL    HW193299   9.470   6.330   5.407  1.2044 -1.7443 -0.3227
29484SOL    HW293300   9.449   6.288   5.551  0.7806 -0.3523  0.0326
29485SOL     OW93301   8.795   5.072   4.368  0.8331  0.2334 -0.2005
29485SOL    HW193302   8.747   5.029   4.298  0.7900 -1.0898  0.6119
29485SOL    HW293303   8.887   5.070   4.340  0.6650  1.0111 -0.8529
29486SOL     OW93304   7.201   8.512   3.588 -0.6514  0.1182 -0.5072
29486SOL    HW193305   7.116   8.505   3.632 -1.2954  2.1851 -1.2786
29486SOL    HW293306   7.202   8.439   3.526 -1.8209 -0.0021 -0.4108
29487SOL     OW93307   7.610   6.673   1.721 -0.2732  0.6498 -0.4505
29487SOL    HW193308   7.542   6.707   1.662  0.2619 -0.4150 -1.7375
29487SOL    HW293309   7.565   6.609   1.775 -0.0896 -1.1416 -2.2872
29488SOL     OW93310   7.637   4.244   5.133 -0.3931 -0.2651 -0.4463
29488SOL    HW193311   7.728   4.227   5.158 -0.0684 -1.3845 -2.2208
29488SOL    HW293312   7.600   4.157   5.117 -1.0270  0.2690 -2.0974
29489SOL     OW93313   8.303   7.589   4.952 -0.1371  0.5674  0.1959
29489SOL    HW193314   8.384   7.638   4.961  1.2115 -0.9500 -2.3928
29489SOL    HW293315   8.254   7.637   4.884 -0.9301  0.8698  0.9673
29490SOL     OW93316   9.608   4.433   3.307 -0.1222 -0.1516  0.1145
29490SOL    HW193317   9.671   4.362   3.289  0.5717 -0.0026  1.8033
29490SOL    HW293318   9.607   4.485   3.227  0.0526 -1.5441 -0.8248
29491SOL     OW93319   5.851   7.004   4.412  0.6345 -0.6497 -0.2426
29491SOL    HW193320   5.918   7.068   4.387 -1.1088  0.8628 -1.4045
29491SOL    HW293321   5.807   7.044   4.487  0.1361 -0.9416 -0.3745
29492SOL     OW93322   9.776   5.641   3.397  0.2403 -0.6788  0.8040
29492SOL    HW193323   9.861   5.598   3.404 -0.3163 -1.9764  0.0638
29492SOL    HW293324   9.760   5.648   3.303  0.3406  1.2569  0.9103
29493SOL     OW93325   0.092   4.677   6.583 -0.1112 -0.0867  0.4020
29493SOL    HW193326   0.054   4.592   6.605  1.4030 -0.8622  0.1351
29493SOL    HW293327   0.089   4.681   6.488 -2.1817  1.1559  0.4552
29494SOL     OW93328   9.597   5.512   5.505 -0.4367  0.3712  0.0782
29494SOL    HW193329   9.517   5.460   5.510 -0.7793  0.8452 -0.3822
29494SOL    HW293330   9.637   5.504   5.592 -0.2594 -1.0076 -0.1085
29495SOL     OW93331   0.131   4.736   3.685  0.0130  0.1534 -1.2625
29495SOL    HW193332   0.168   4.660   3.641  1.0447 -0.1346  0.0176
29495SOL    HW293333   0.109   4.704   3.773  1.7750  1.6022 -0.2129
29496SOL     OW93334   0.556   4.742   4.883 -0.2291  0.1531  0.0140
29496SOL    HW193335   0.562   4.830   4.920  1.5778 -0.1267  0.4619
29496SOL    HW293336   0.469   4.711   4.911 -1.4918  2.2258 -1.2902
29497SOL     OW93337   9.319   8.004   6.796  0.3879  0.0475  0.0962
29497SOL    HW193338   9.409   8.035   6.807  1.1957 -1.2663 -2.1054
29497SOL    HW293339   9.274   8.079   6.757  0.8144  0.3566  0.1775
29498SOL     OW93340   9.470   4.228   4.576  0.4279 -0.1968  0.3313
29498SOL    HW193341   9.511   4.251   4.493 -0.1335 -1.6667 -0.3762
29498SOL    HW293342   9.408   4.299   4.593 -1.1446 -1.0191 -1.7010
29499SOL     OW93343   8.329   7.607   4.619  0.2930  0.0076  0.4259
29499SOL    HW193344   8.266   7.670   4.655 -1.0040  0.6483 -2.6059
29499SOL    HW293345   8.375   7.657   4.550  0.4674 -1.8457 -0.8697
29500SOL     OW93346   0.775   8.541   5.255 -0.1835 -0.2862 -0.0612
29500SOL    HW193347   0.771   8.615   5.316  1.4741  0.0987 -0.3588
29500SOL    HW293348   0.684   8.520   5.236 -0.7114  0.6631  1.2484
29501SOL     OW93349   9.792   6.379   5.237  0.1049  0.3356  0.1056
29501SOL    HW193350   9.809   6.336   5.321 -0.2629 -1.5427 -0.7386
29501SOL    HW293351   9.824   6.318   5.171 -1.9893  0.5454 -1.2129
29502SOL     OW93352   0.517   4.326   5.503  0.2071  0.1068  0.1254
29502SOL    HW193353   0.474   4.405   5.536  2.4259  0.6919  1.9071
29502SOL    HW293354   0.513   4.264   5.575 -0.0094 -0.8211 -0.6590
29503SOL     OW93355   0.016   6.317   6.025 -0.0167  0.3299  0.4557
29503SOL    HW193356   0.054   6.333   5.939 -1.1584  0.6768 -0.0107
29503SOL    HW293357  -0.018   6.228   6.021  1.8866 -0.4874  1.3359
29504SOL     OW93358   9.115   4.541   4.974 -0.2531 -0.2550 -0.1085
29504SOL    HW193359   9.205   4.517   4.998 -0.7482  0.3223  2.6865
29504SOL    HW293360   9.124   4.617   4.917  1.0451  0.0367  0.4600
29505SOL     OW93361   7.739   6.638   5.211 -0.1930  0.1312 -0.2992
29505SOL    HW193362   7.695   6.716   5.176 -0.3701  0.8084  1.3510
29505SOL    HW293363   7.822   6.671   5.246 -0.8758 -0.1407  1.6709
29506SOL     OW93364   9.022   5.704   4.964  0.2794 -0.8615 -0.3282
29506SOL    HW193365   9.038   5.741   5.051 -0.4143 -1.3440  0.0099
29506SOL    HW293366   8.982   5.619   4.981  2.2819 -2.0333 -1.0787
29507SOL     OW93367   8.539   7.800   2.978  0.8126 -0.5157 -0.2040
29507SOL    HW193368   8.576   7.883   2.946  0.7675 -0.1559  0.6561
29507SOL    HW293369   8.463   7.827   3.030  2.1228 -0.9012  2.0464
29508SOL     OW93370   0.641   6.159   3.558 -0.0664  0.3558 -0.2104
29508SOL    HW193371   0.604   6.236   3.601 -1.3745 -0.6160  0.4605
29508SOL    HW293372   0.652   6.095   3.628  0.0495 -0.4224 -0.9250
29509SOL     OW93373   0.845   5.265   5.763 -0.3669 -0.3035  0.5860
29509SOL    HW193374   0.759   5.292   5.730 -0.1868  0.8336  0.9806
29509SOL    HW293375   0.828   5.236   5.852 -0.6305 -2.0241  0.0223
29510SOL     OW93376   8.335   5.032   5.037 -0.4583 -0.0029 -0.1557
29510SOL    HW193377   8.282   5.000   4.964 -0.1178  0.9254 -0.8299
29510SOL    HW293378   8.423   5.002   5.018 -0.1826  1.0698 -0.6623
29511SOL     OW93379   1.376   4.859   4.035  0.4194 -0.0503  0.3131
29511SOL    HW193380   1.345   4.944   4.066  0.2955  0.2833 -0.6910
29511SOL    HW293381   1.316   4.796   4.074  0.0689  0.3827  0.4829
29512SOL     OW93382   7.452   5.949   6.172 -0.1120 -0.5156 -0.3859
29512SOL    HW193383   7.502   5.985   6.099 -0.3960 -0.0568 -0.3609
29512SOL    HW293384   7.516   5.899   6.223  0.9665  2.1382  1.0874
29513SOL     OW93385   9.328   6.018   3.451 -0.1035 -0.7985  0.4814
29513SOL    HW193386   9.320   6.100   3.403 -0.8637 -0.7488  0.6735
29513SOL    HW293387   9.404   5.975   3.413  0.9731  0.4719  1.0955
29514SOL     OW93388   8.285   7.321   4.897 -0.7949  0.3756 -0.7818
29514SOL    HW193389   8.263   7.407   4.932 -2.2904  0.6072 -2.1855
29514SOL    HW293390   8.348   7.338   4.827 -1.2968  0.3548 -1.2392
29515SOL     OW93391   8.609   4.649   5.026  0.0785 -0.1745 -0.6404
29515SOL    HW193392   8.679   4.607   5.076 -1.6372 -1.2082  1.0141
29515SOL    HW293393   8.600   4.596   4.947  1.4968  0.3167 -1.1743
29516SOL     OW93394   1.195   7.802   4.707 -0.1596 -0.1280  0.0396
29516SOL    HW193395   1.213   7.873   4.646 -1.3255  0.1106 -0.0366
29516SOL    HW293396   1.134   7.840   4.771  0.1461 -0.7086  0.6876
29517SOL     OW93397   7.365   4.877   4.354  0.4067  0.0598 -0.6971
29517SOL    HW193398   7.449   4.871   4.399 -0.0145 -1.7962 -0.1011
29517SOL    HW293399   7.377   4.824   4.275 -0.3981 -0.7952 -0.2621
29518SOL     OW93400   9.639   5.351   4.399  0.2687 -0.3807 -0.0380
29518SOL    HW193401   9.640   5.338   4.494  1.2688  0.0226  0.0228
29518SOL    HW293402   9.606   5.440   4.387  0.1135 -0.4424 -0.0697
29519SOL     OW93403   2.989   4.428   2.542 -0.1767  0.0739 -0.1022
29519SOL    HW193404   3.074   4.423   2.584 -0.8459  1.9427  1.6463
29519SOL    HW293405   2.934   4.366   2.590  0.3754 -1.9999 -1.9602
29520SOL     OW93406   0.630   7.677   4.146  0.2529  0.0094 -0.0226
29520SOL    HW193407   0.622   7.702   4.054  0.2518  0.9154  0.2145
29520SOL    HW293408   0.713   7.629   4.150 -0.0256 -0.5308 -0.5980
29521SOL     OW93409   7.708   4.533   4.916 -0.2167 -0.1384  0.0052
29521SOL    HW193410   7.734   4.525   4.824 -0.2607  1.2955 -0.1496
29521SOL    HW293411   7.767   4.474   4.962  1.5857  1.0520 -0.6555
29522SOL     OW93412   0.476   4.417   4.278 -0.2500  0.5848  0.3400
29522SOL    HW193413   0.444   4.500   4.244  0.6480  1.1281  0.7922
29522SOL    HW293414   0.558   4.438   4.322  0.6880 -0.7356 -0.6610
29523SOL     OW93415   6.550   7.065   3.882  0.2629 -0.4131  0.3846
29523SOL    HW193416   6.570   6.979   3.917  2.0422 -0.6648 -1.1411
29523SOL    HW293417   6.592   7.126   3.943  2.2851 -0.8024 -0.5528
29524SOL     OW93418   1.372   5.809   2.889 -0.7275  0.3182  0.4535
29524SOL    HW193419   1.281   5.809   2.859 -0.7706  0.1356  0.5829
29524SOL    HW293420   1.376   5.740   2.956 -0.4559  0.2009  0.3230
29525SOL     OW93421   9.482   4.939   3.608  0.0508 -0.3493 -0.0952
29525SOL    HW193422   9.409   4.884   3.581 -0.8519  1.2563 -1.1005
29525SOL    HW293423   9.480   5.012   3.547  1.1123  0.8662  1.2584
29526SOL     OW93424   7.839   5.867   7.004  0.7408  0.0909  0.7762
29526SOL    HW193425   7.883   5.829   6.928  0.9910 -1.1431  1.5084
29526SOL    HW293426   7.859   5.961   7.000  0.3783  0.1227 -0.9035
29527SOL     OW93427   9.646   5.399   3.035  0.1086 -0.7602 -0.1726
29527SOL    HW193428   9.703   5.346   2.978  0.8819  0.6742 -0.7699
29527SOL    HW293429   9.578   5.433   2.976  0.7091  0.4371 -0.2067
29528SOL     OW93430   8.797   5.499   6.047  0.0830 -0.5679 -0.0389
29528SOL    HW193431   8.718   5.466   6.091 -0.7051  3.1836  1.7533
29528SOL    HW293432   8.768   5.578   6.001  2.0496 -1.3855 -2.9823
29529SOL     OW93433   9.464   6.902   4.885 -0.4577  0.6579  0.0194
29529SOL    HW193434   9.428   6.813   4.879  0.1792  0.3796  0.2017
29529SOL    HW293435   9.558   6.890   4.879 -0.4248  1.4767 -1.5647
29530SOL     OW93436   1.421   5.251   3.256 -0.1966 -0.1578  0.3985
29530SOL    HW193437   1.440   5.161   3.283  1.0842 -1.1057 -3.1011
29530SOL    HW293438   1.506   5.295   3.257 -0.4877  0.4223  0.1827
29531SOL     OW93439   0.006   7.549   3.384 -0.0429 -0.1917  0.6232
29531SOL    HW193440   0.073   7.592   3.438  0.1175 -0.5095  0.6746
29531SOL    HW293441  -0.072   7.547   3.440 -0.4254  1.1509  0.1917
29532SOL     OW93442   8.805   6.790   3.116 -0.6674 -0.3735 -0.0983
29532SOL    HW193443   8.863   6.767   3.188 -0.4686  1.2219  0.2700
29532SOL    HW293444   8.735   6.724   3.120  0.3708 -1.4768  0.3032
29533SOL     OW93445   3.061   6.873   5.805 -0.2902  0.6010 -0.2919
29533SOL    HW193446   3.123   6.813   5.846  0.5516  1.0288 -0.8893
29533SOL    HW293447   3.099   6.891   5.719 -0.0731  2.6157  0.1629
29534SOL     OW93448   9.262   5.544   7.742  0.1984  0.8566 -0.0649
29534SOL    HW193449   9.303   5.466   7.705 -1.5379 -0.8953  1.4692
29534SOL    HW293450   9.334   5.605   7.757  1.7498 -0.8158 -0.4521
29535SOL     OW93451   1.362   5.992   7.227 -0.1586 -0.1699 -0.4674
29535SOL    HW193452   1.380   5.908   7.270  0.4425 -0.2285 -0.8101
29535SOL    HW293453   1.434   6.049   7.254  0.0096 -0.0881 -1.0644
29536SOL     OW93454   1.138   7.580   4.889 -0.2556 -0.0388  0.9365
29536SOL    HW193455   1.157   7.507   4.830 -1.1525  0.4293  0.0442
29536SOL    HW293456   1.166   7.658   4.841  0.8910  0.2208  1.9683
29537SOL     OW93457   9.732   7.466   7.837  0.0873  0.0317  0.1929
29537SOL    HW193458   9.649   7.419   7.842  1.2335 -2.2004 -0.5023
29537SOL    HW293459   9.762   7.453   7.747  2.6147 -1.9138  1.1986
29538SOL     OW93460   9.719   5.414   6.285 -0.6543  0.5047  0.2833
29538SOL    HW193461   9.787   5.363   6.242 -1.4898  2.2428 -3.5060
29538SOL    HW293462   9.639   5.362   6.275 -0.8698  0.9561 -0.3873
29539SOL     OW93463   8.285   8.774   7.542 -0.0355  0.2393 -0.7889
29539SOL    HW193464   8.355   8.716   7.511 -0.8748 -2.7355  2.3190
29539SOL    HW293465   8.218   8.769   7.474  0.7470 -0.8023 -1.5231
29540SOL     OW93466   9.755   5.569   5.918  0.4896 -0.6969  0.4634
29540SOL    HW193467   9.827   5.521   5.959 -0.2421 -3.4804 -1.1710
29540SOL    HW293468   9.783   5.580   5.827 -0.7675 -1.0531  0.0185
29541SOL     OW93469   9.326   4.048   5.948  0.7239 -0.9131  1.1314
29541SOL    HW193470   9.380   4.127   5.949 -1.0043  0.3844 -0.4161
29541SOL    HW293471   9.371   3.988   5.889  0.7590 -0.0385  0.2383
29542SOL     OW93472   8.061   7.288   5.778  0.3337  0.2359 -0.1040
29542SOL    HW193473   8.049   7.338   5.859  0.1505  1.9531 -1.1452
29542SOL    HW293474   7.999   7.216   5.785 -0.5699  1.0623  0.7484
29543SOL     OW93475   9.795   5.631   6.611 -0.2113 -0.3143  0.0348
29543SOL    HW193476   9.777   5.713   6.657  0.1697  1.1280 -2.2036
29543SOL    HW293477   9.747   5.640   6.528 -0.4148 -2.5258 -0.1321
29544SOL     OW93478   0.793   7.278   6.988  0.4340  0.0084  0.3713
29544SOL    HW193479   0.733   7.275   7.062  1.1178 -0.1916  0.9286
29544SOL    HW293480   0.860   7.213   7.009  0.5944 -0.1044 -0.4585
29545SOL     OW93481   1.155   4.255   7.463  0.1316  0.1865  0.1091
29545SOL    HW193482   1.127   4.166   7.445  0.6966  0.4192 -2.2962
29545SOL    HW293483   1.177   4.291   7.377 -0.4490  2.7816  0.9487
29546SOL     OW93484   9.351   5.420   5.404  0.4917 -0.0691 -0.0740
29546SOL    HW193485   9.330   5.332   5.434  0.6725 -0.8698 -2.1329
29546SOL    HW293486   9.266   5.463   5.395  0.3361 -0.3309  0.1243
29547SOL     OW93487   9.408   3.923   6.181 -0.6117 -0.6749  0.6629
29547SOL    HW193488   9.370   3.958   6.100 -0.5054 -2.4878 -0.2120
29547SOL    HW293489   9.496   3.961   6.184 -0.9621  0.1667  0.4452
29548SOL     OW93490   9.768   6.489   6.609  0.3023  0.1553  0.2607
29548SOL    HW193491   9.717   6.563   6.642 -1.2211 -0.6840 -0.1339
29548SOL    HW293492   9.768   6.501   6.514 -0.5121 -0.6853  0.1436
29549SOL     OW93493   1.798   1.304   5.075  0.5597 -0.5022 -0.7310
29549SOL    HW193494   1.749   1.230   5.039 -0.6194 -0.2454  0.2905
29549SOL    HW293495   1.853   1.265   5.144 -0.0589 -0.4484 -0.1952
29550SOL     OW93496   0.018   4.478   5.483  0.3808 -0.3174  0.7358
29550SOL    HW193497   0.086   4.463   5.418  1.1078 -0.6389  1.5592
29550SOL    HW293498  -0.027   4.558   5.453 -0.6415 -1.5631 -1.2611
29551SOL     OW93499   7.806   8.525   8.120 -0.1505 -0.3305 -0.0648
29551SOL    HW193500   7.868   8.564   8.059 -0.9147  1.3153  0.1391
29551SOL    HW293501   7.826   8.567   8.204  0.1627 -1.7384  0.5864
29552SOL     OW93502   0.148   7.568   4.408  0.3685  0.2218 -0.3101
29552SOL    HW193503   0.237   7.558   4.375  0.3902  0.6607 -0.3920
29552SOL    HW293504   0.150   7.524   4.493  0.7012  0.3389 -0.2530
29553SOL     OW93505   1.492   5.200   7.175  0.4169  0.4485  0.1112
29553SOL    HW193506   1.478   5.189   7.269 -2.2027 -0.0903 -0.2491
29553SOL    HW293507   1.479   5.293   7.159 -0.1404  0.3881  0.1785
29554SOL     OW93508   7.490   4.755   5.887  0.0113 -0.0380 -0.2674
29554SOL    HW193509   7.469   4.718   5.801  0.0504  0.3118 -0.4318
29554SOL    HW293510   7.454   4.844   5.883  2.1901  0.8908 -0.8462
29555SOL     OW93511   9.475   8.602   8.090  0.5573  0.0300 -0.5611
29555SOL    HW193512   9.467   8.591   8.185  0.5355  0.8578 -0.4593
29555SOL    HW293513   9.554   8.653   8.078  1.1003 -0.8950 -1.0640
29556SOL     OW93514   0.388   6.734   5.863  0.2106  0.3845  0.1570
29556SOL    HW193515   0.346   6.814   5.894 -0.3154  0.3827 -0.5254
29556SOL    HW293516   0.384   6.741   5.768 -2.9424 -1.9989 -0.0258
29557SOL     OW93517   1.587   7.423   5.011  0.3574  0.1629 -0.5326
29557SOL    HW193518   1.494   7.406   5.020 -0.4735  2.1005 -3.8999
29557SOL    HW293519   1.594   7.519   5.006  2.6237  0.1167  0.2405
29558SOL     OW93520   9.825   3.852   6.277  0.2562  0.0679 -0.0898
29558SOL    HW193521   9.762   3.792   6.315  0.2239 -0.3480 -0.7786
29558SOL    HW293522   9.784   3.939   6.286 -0.1832 -0.1396 -0.0615
29559SOL     OW93523   6.875   6.599   6.033 -0.3583  0.1825 -0.3485
29559SOL    HW193524   6.853   6.680   6.080 -0.5025 -0.4920  0.7705
29559SOL    HW293525   6.936   6.554   6.092 -0.7388 -0.7969 -0.7013
29560SOL     OW93526   1.668   6.257   5.401  0.1850 -0.0405  0.1803
29560SOL    HW193527   1.732   6.192   5.371 -0.9337 -0.9198 -0.4050
29560SOL    HW293528   1.717   6.313   5.461  1.8586  0.1845 -1.2988
29561SOL     OW93529   1.814   4.034   4.778  0.1733 -0.1294  0.3187
29561SOL    HW193530   1.781   3.977   4.847 -1.2067  0.6431  0.3271
29561SOL    HW293531   1.909   4.033   4.789  0.2691 -2.9303 -0.1043
29562SOL     OW93532   3.088   6.771   5.244  0.7286 -0.1300  0.1146
29562SOL    HW193533   3.127   6.851   5.278 -0.6861  1.0143 -0.8167
29562SOL    HW293534   2.994   6.786   5.249  0.4347 -0.8398 -2.0606
29563SOL     OW93535   6.907   7.362   9.076 -0.9536 -0.0121  0.5062
29563SOL    HW193536   6.926   7.275   9.041 -3.8098 -0.5340 -0.0009
29563SOL    HW293537   6.975   7.377   9.143 -0.6749 -2.8359  0.9699
29564SOL     OW93538   0.518   6.277   4.879 -0.1988  0.1206 -0.4235
29564SOL    HW193539   0.531   6.341   4.809 -2.0425 -1.3321 -2.2374
29564SOL    HW293540   0.482   6.200   4.834  0.6412 -1.6969  1.8440
29565SOL     OW93541   1.453   4.807   6.064 -0.0646  0.2396 -0.2467
29565SOL    HW193542   1.380   4.854   6.103 -0.7986 -0.8394 -0.2766
29565SOL    HW293543   1.530   4.836   6.114 -0.2540  2.4423 -1.1129
29566SOL     OW93544   1.546   6.859   5.328 -0.6703  0.4197 -0.1758
29566SOL    HW193545   1.451   6.875   5.332 -0.9803 -1.0266 -0.8057
29566SOL    HW293546   1.554   6.763   5.335  0.6432  0.4008 -1.4060
29567SOL     OW93547   0.173   6.434   4.378 -0.3140  0.2093 -0.0539
29567SOL    HW193548   0.083   6.459   4.397 -0.8057 -0.8816 -0.8621
29567SOL    HW293549   0.219   6.518   4.371 -1.1349  0.7673  0.8878
29568SOL     OW93550   1.320   4.307   6.421 -0.1940 -0.6783  0.4891
29568SOL    HW193551   1.367   4.248   6.479  0.1368 -2.2293 -1.2396
29568SOL    HW293552   1.229   4.302   6.450 -0.2513 -2.4374  0.1248
29569SOL     OW93553   0.627   5.354   5.616 -0.0157 -0.0229 -0.7649
29569SOL    HW193554   0.589   5.440   5.601  0.1261  0.0438 -0.7429
29569SOL    HW293555   0.564   5.293   5.577  0.1773  0.1267 -1.3089
29570SOL     OW93556   0.445   6.376   8.195  0.2819  0.3216 -0.2352
29570SOL    HW193557   0.461   6.291   8.153 -1.7244 -0.1587 -0.1044
29570SOL    HW293558   0.408   6.431   8.126 -0.3885  0.4172  0.1930
29571SOL     OW93559   1.546   5.780   7.121  0.1146 -0.8075 -0.2180
29571SOL    HW193560   1.544   5.697   7.168  0.9232 -0.5479  0.2994
29571SOL    HW293561   1.595   5.839   7.179 -0.5910  0.0797 -0.4953
29572SOL     OW93562   0.587   9.190   7.397 -0.6674 -0.1582 -0.3347
29572SOL    HW193563   0.642   9.264   7.372  0.0044 -0.6081 -0.2251
29572SOL    HW293564   0.581   9.196   7.493 -0.3828 -0.3981 -0.3004
29573SOL     OW93565   1.278   6.579   6.433 -0.3675 -0.4796  0.0303
29573SOL    HW193566   1.234   6.494   6.433  0.9121 -1.1754 -0.4448
29573SOL    HW293567   1.232   6.629   6.366 -0.3192 -1.2584 -0.6024
29574SOL     OW93568   0.600   5.675   7.515 -0.0394  0.6841  0.1049
29574SOL    HW193569   0.629   5.656   7.426 -2.4308  0.5962 -0.7538
29574SOL    HW293570   0.597   5.589   7.558 -0.9155  0.4105 -0.4582
29575SOL     OW93571   6.622   6.204   5.992  0.3090 -0.4943  0.2738
29575SOL    HW193572   6.618   6.122   5.943 -1.7584 -0.5765  0.4987
29575SOL    HW293573   6.536   6.212   6.033  1.3096  0.5471  2.3358
29576SOL     OW93574   8.662   7.661   6.290  0.1537  0.0254 -0.3439
29576SOL    HW193575   8.691   7.699   6.207  2.1932 -1.9452 -0.6401
29576SOL    HW293576   8.623   7.577   6.265 -0.1643 -0.1297  0.6285
29577SOL     OW93577   7.168   9.198   5.037 -0.3236 -0.6002  0.1524
29577SOL    HW193578   7.124   9.174   4.955 -0.0958  0.1295 -0.1897
29577SOL    HW293579   7.141   9.288   5.053 -1.2353 -1.0788  1.4698
29578SOL     OW93580   9.347   6.038   6.761 -0.4215 -0.1438  0.1952
29578SOL    HW193581   9.428   6.059   6.807 -0.8833 -1.3496  1.6376
29578SOL    HW293582   9.318   6.121   6.723  1.5881  0.2531 -0.5522
29579SOL     OW93583   8.642   5.313   6.835  0.7929  0.1931 -0.1370
29579SOL    HW193584   8.581   5.245   6.807  0.4862 -0.0958  1.1518
29579SOL    HW293585   8.595   5.395   6.824  0.1019 -0.0355  0.9532
29580SOL     OW93586   9.625   5.000   4.048  0.2082 -0.5327 -0.3463
29580SOL    HW193587   9.716   5.007   4.076  0.6573 -1.7653 -1.4416
29580SOL    HW293588   9.628   5.000   3.953 -0.8599 -1.3591 -0.4085
29581SOL     OW93589   7.888   6.262   9.205  0.4882 -0.1378 -0.5789
29581SOL    HW193590   7.979   6.239   9.224  1.2477  1.3506 -2.2060
29581SOL    HW293591   7.889   6.292   9.114 -1.9293 -1.5387 -1.1590
29582SOL     OW93592   0.474   3.681   7.171  0.0386 -0.4411  0.4080
29582SOL    HW193593   0.432   3.607   7.214  1.7674 -0.3410  2.4106
29582SOL    HW293594   0.457   3.667   7.077 -0.2635 -2.9803  0.7742
29583SOL     OW93595   8.123   8.142   7.317 -0.3375 -0.1089 -0.2522
29583SOL    HW193596   8.137   8.143   7.222  1.8799 -2.0966 -0.0360
29583SOL    HW293597   8.187   8.204   7.352 -0.4848 -0.1033  0.0150
29584SOL     OW93598   0.207   6.015   7.385  0.0719  0.0111  0.3951
29584SOL    HW193599   0.286   5.963   7.397  0.5031  0.5477 -0.0869
29584SOL    HW293600   0.158   6.003   7.466 -0.1806 -1.7216  0.0367
29585SOL     OW93601   1.374   5.459   6.717 -0.5245  0.3123  0.6152
29585SOL    HW193602   1.444   5.496   6.770  0.9081 -1.0213 -0.2678
29585SOL    HW293603   1.325   5.404   6.778 -1.1179  1.5849  1.3355
29586SOL     OW93604   9.593   5.108   5.454  0.3239  1.2221 -0.2379
29586SOL    HW193605   9.618   5.131   5.365  0.6330  2.1520  0.0710
29586SOL    HW293606   9.573   5.015   5.451 -0.0058  1.3208 -1.3517
29587SOL     OW93607   9.334   7.688   7.336  0.4936 -0.5057 -0.1186
29587SOL    HW193608   9.386   7.699   7.256 -1.6782  1.4689 -1.3758
29587SOL    HW293609   9.326   7.593   7.347  2.9084 -0.8488 -0.7687
29588SOL     OW93610   7.346   7.835   6.316  0.4798  0.1613 -0.2107
29588SOL    HW193611   7.430   7.879   6.309  0.0369  0.7505 -2.9154
29588SOL    HW293612   7.315   7.855   6.405  2.6642  0.8260  0.4565
29589SOL     OW93613   7.800   5.172   6.563  0.1205 -0.1200  0.5678
29589SOL    HW193614   7.885   5.158   6.522  0.0938  1.0232  0.0895
29589SOL    HW293615   7.759   5.085   6.563  1.3097 -0.7040  0.8935
29590SOL     OW93616   8.054   4.150   6.887 -0.2914 -0.1161 -0.4262
29590SOL    HW193617   7.997   4.086   6.846  1.6793  0.1072 -3.9214
29590SOL    HW293618   8.005   4.232   6.883 -0.7028 -0.3837 -1.0552
29591SOL     OW93619   9.742   5.770   6.109  0.3742 -0.4422  0.4244
29591SOL    HW193620   9.659   5.818   6.116  0.6581 -0.0099  0.9190
29591SOL    HW293621   9.731   5.714   6.033  0.6804  1.6454 -1.2322
29592SOL     OW93622   0.359   6.629   4.303  0.2409 -0.0831 -0.1603
29592SOL    HW193623   0.424   6.660   4.366 -0.5865 -3.6232  2.7894
29592SOL    HW293624   0.408   6.573   4.243  0.2777 -1.1203  0.8091
29593SOL     OW93625   8.001   8.159   6.009 -0.0443 -0.4205  0.4004
29593SOL    HW193626   8.055   8.117   5.943 -0.8551 -0.3072 -0.3465
29593SOL    HW293627   8.060   8.170   6.084  1.1007  0.1369 -0.5422
29594SOL     OW93628   0.215   4.760   7.688  0.1274  0.4237 -0.0093
29594SOL    HW193629   0.302   4.771   7.649 -0.6798  0.3743 -1.9555
29594SOL    HW293630   0.187   4.849   7.708  0.2882  0.5045 -0.1373
29595SOL     OW93631   0.610   4.676   7.557 -0.2554  0.4924  0.0625
29595SOL    HW193632   0.562   4.751   7.591 -1.2770  0.4086 -1.1072
29595SOL    HW293633   0.553   4.640   7.488  1.1617 -0.0529 -0.8860
29596SOL     OW93634   0.129   8.872   7.749  0.7661 -0.0842  1.0087
29596SOL    HW193635   0.174   8.818   7.684  1.2775  0.3716  0.9732
29596SOL    HW293636   0.038   8.874   7.720  1.0923  0.5781 -0.0299
29597SOL     OW93637   8.300   4.161   6.739 -0.5439 -0.3476  0.1251
29597SOL    HW193638   8.361   4.113   6.796 -1.2031  1.1583  2.2128
29597SOL    HW293639   8.213   4.139   6.773 -1.0722 -0.6438 -1.3397
29598SOL     OW93640   9.563   4.682   6.141  0.4437  0.4588  0.2150
29598SOL    HW193641   9.524   4.724   6.064 -0.9813  1.3994  1.4033
29598SOL    HW293642   9.535   4.591   6.135  3.2466 -0.4289 -2.1793
29599SOL     OW93643   0.183   7.779   7.237 -0.0942  0.3672 -0.1669
29599SOL    HW193644   0.220   7.807   7.321 -0.5927  0.5365 -0.0004
29599SOL    HW293645   0.208   7.849   7.176  0.3973  0.1698 -0.1970
29600SOL     OW93646   2.123   6.287   7.384  0.5048  0.2902  0.5951
29600SOL    HW193647   2.219   6.295   7.376  0.4039  1.2946  0.1084
29600SOL    HW293648   2.097   6.237   7.306  0.4923  1.4547 -0.1790
29601SOL     OW93649   8.373   7.884   9.817 -0.2101 -0.0516 -0.0729
29601SOL    HW193650   8.408   7.890   9.906 -1.2002 -1.7301  0.4815
29601SOL    HW293651   8.444   7.913   9.761  1.4335 -1.5476  1.1061
29602SOL     OW93652   7.076   7.258   7.932  0.1235 -0.0985 -0.2497
29602SOL    HW193653   7.108   7.199   8.000 -2.1388 -0.4085  0.6201
29602SOL    HW293654   7.015   7.205   7.881 -0.4587  0.9531 -0.6798
29603SOL     OW93655   9.812   5.783   7.559 -0.0004 -0.3954  0.1098
29603SOL    HW193656   9.835   5.743   7.475  0.0791 -1.7783  0.7573
29603SOL    HW293657   9.892   5.776   7.612 -0.2425 -0.1451  0.5167
29604SOL     OW93658   1.919   6.578   9.785  0.3091 -0.2725 -0.5796
29604SOL    HW193659   1.976   6.518   9.833 -1.1855 -1.1943  0.0992
29604SOL    HW293660   1.850   6.601   9.847  0.6052  1.8469 -0.9678
29605SOL     OW93661   8.277   6.676   0.020  0.3133  0.0745  0.0805
29605SOL    HW193662   8.268   6.611   0.089 -4.3455  1.7584  1.4818
29605SOL    HW293663   8.306   6.755   0.065 -0.7040  0.6334 -0.1947
29606SOL     OW93664   1.312   4.765   8.563  0.9294 -0.1337 -0.5578
29606SOL    HW193665   1.270   4.689   8.602  1.2948 -0.2923 -0.4644
29606SOL    HW293666   1.268   4.840   8.602 -0.8853 -0.2641 -2.1830
29607SOL     OW93667   8.214   5.443   7.259 -0.4903  0.1674 -0.0028
29607SOL    HW193668   8.230   5.420   7.350  0.8091  1.2135  0.0576
29607SOL    HW293669   8.125   5.479   7.259 -1.1007 -1.2726  0.5451
29608SOL     OW93670   0.357   8.239   8.004  0.2721 -0.2632  0.1708
29608SOL    HW193671   0.429   8.220   8.065 -0.6702 -0.0412  1.4075
29608SOL    HW293672   0.352   8.162   7.948  1.8866  0.0043 -0.3680
29609SOL     OW93673   8.378   5.884   8.931  0.8105  0.0867 -0.6874
29609SOL    HW193674   8.322   5.935   8.990 -0.3217 -1.9505  0.1110
29609SOL    HW293675   8.425   5.950   8.879 -0.3546  1.9073  0.4517
29610SOL     OW93676   1.067   7.218   6.703 -0.0311 -0.3891 -0.4974
29610SOL    HW193677   0.984   7.197   6.660  0.0679 -2.0694  0.0681
29610SOL    HW293678   1.117   7.265   6.637 -0.4684 -1.5735 -1.7266
29611SOL     OW93679   8.450   6.682   0.711  0.3921  0.4250 -0.2509
29611SOL    HW193680   8.535   6.675   0.753  1.6539  0.1156 -2.6584
29611SOL    HW293681   8.410   6.595   0.723  0.8266  0.2640  0.0470
29612SOL     OW93682   8.393   5.956   7.656  0.3872 -0.2633 -0.9000
29612SOL    HW193683   8.328   6.023   7.677  1.0969  0.5950 -1.4285
29612SOL    HW293684   8.399   5.904   7.736 -0.4406  0.0651 -0.6102
29613SOL     OW93685   3.899   4.609   7.703 -0.1010  0.6264  0.2476
29613SOL    HW193686   3.898   4.596   7.609 -2.3281 -0.5187  0.3648
29613SOL    HW293687   3.807   4.621   7.727  0.6002  4.9601  1.8155
29614SOL     OW93688   9.474   4.077   8.727  0.0466 -0.9426 -0.6698
29614SOL    HW193689   9.538   4.024   8.775 -0.9646 -0.2015  1.6055
29614SOL    HW293690   9.404   4.017   8.705 -2.0233 -0.4154  3.5822
29615SOL     OW93691   7.612   8.061   3.922  0.3179 -0.2759 -0.1183
29615SOL    HW193692   7.664   8.021   3.992 -2.0409 -3.2500  0.1183
29615SOL    HW293693   7.571   8.138   3.964  0.8485 -0.6029  1.0470
29616SOL     OW93694   0.097   5.684   8.955  0.3638 -0.2236  0.4089
29616SOL    HW193695   0.103   5.723   8.868 -0.3682 -0.4983  0.2277
29616SOL    HW293696   0.092   5.590   8.939  1.4312 -0.3635  0.8141
29617SOL     OW93697   0.524   6.293   7.257 -0.6267 -0.9408 -0.6056
29617SOL    HW193698   0.594   6.336   7.306 -1.4190 -0.0739 -0.2129
29617SOL    HW293699   0.471   6.249   7.324 -0.9286 -0.9068 -0.8189
29618SOL     OW93700   0.876   6.037   8.568 -0.0880 -0.2621 -0.4215
29618SOL    HW193701   0.819   6.063   8.640  0.1663 -1.5307  0.2549
29618SOL    HW293702   0.865   6.107   8.503  0.3545  1.3851  1.1935
29619SOL     OW93703   7.910   5.547   7.717 -0.5496 -0.3021 -0.1947
29619SOL    HW193704   7.884   5.638   7.729 -0.2950 -0.1809 -0.5574
29619SOL    HW293705   8.001   5.544   7.746 -0.5279 -0.4202 -0.2759
29620SOL     OW93706   8.599   7.187   0.911 -0.4681 -0.3422  0.1749
29620SOL    HW193707   8.679   7.143   0.940  1.2753  2.4045 -0.0480
29620SOL    HW293708   8.548   7.199   0.991  1.1349  1.1084  1.0704
29621SOL     OW93709   0.066   4.366   8.761 -0.5665 -0.3186  0.5871
29621SOL    HW193710   0.146   4.317   8.780 -0.6023 -0.1711  1.1632
29621SOL    HW293711  -0.003   4.300   8.758 -0.2786 -0.5766 -0.9706
29622SOL     OW93712   2.034   7.284   4.703 -0.5005  0.1841  0.3735
29622SOL    HW193713   2.012   7.242   4.786 -0.7031 -1.4105 -0.4409
29622SOL    HW293714   2.129   7.300   4.708 -0.7613  1.5432  1.4987
29623SOL     OW93715   8.767   7.278   6.988  0.0892  0.2818  0.4605
29623SOL    HW193716   8.690   7.293   6.933 -0.9986 -0.4952  1.7164
29623SOL    HW293717   8.745   7.199   7.038  2.6485 -1.3593 -0.7867
29624SOL     OW93718   8.116   5.787   7.782  0.6702  0.2123  0.0861
29624SOL    HW193719   8.070   5.767   7.864  3.3375 -0.9357  1.4486
29624SOL    HW293720   8.205   5.810   7.810  1.0316  2.2814 -2.3678
29625SOL     OW93721   0.087   5.364   7.433 -0.2129  0.0068  0.3377
29625SOL    HW193722   0.130   5.278   7.434  2.1215  1.0949  0.1584
29625SOL    HW293723   0.152   5.423   7.393 -1.7932  1.8425  0.3355
29626SOL     OW93724   0.205   7.036   9.423  0.1557  0.5932  0.1183
29626SOL    HW193725   0.132   7.080   9.379 -0.2118  1.4919  1.5314
29626SOL    HW293726   0.163   6.981   9.489  0.7178  0.6480  0.5337
29627SOL     OW93727   0.938   5.422   7.289  0.4199 -0.2281 -0.2286
29627SOL    HW193728   0.866   5.360   7.276  1.4520 -1.7557  0.9785
29627SOL    HW293729   1.017   5.373   7.263  1.0470  1.5952 -2.1276
29628SOL     OW93730   7.250   6.940   8.303 -0.0453 -0.1896 -0.0569
29628SOL    HW193731   7.253   6.926   8.208  0.3069  0.0461 -0.0861
29628SOL    HW293732   7.338   6.915   8.333 -0.7474 -2.1685  0.4920
29629SOL     OW93733   9.552   6.708   8.263  0.0619 -0.5839 -0.4310
29629SOL    HW193734   9.491   6.636   8.272  0.2856 -0.9229 -1.4385
29629SOL    HW293735   9.622   6.690   8.326 -1.1878  0.1828  1.2506
29630SOL     OW93736   9.765   6.690   9.062 -0.1142  0.8009 -0.6551
29630SOL    HW193737   9.754   6.771   9.011 -0.0419  1.9778  1.1259
29630SOL    HW293738   9.853   6.696   9.098 -0.3496  0.2372  0.0295
29631SOL     OW93739   0.145   6.271   9.022 -0.1399 -0.0793  0.0718
29631SOL    HW193740   0.121   6.358   9.053  0.1802  0.0694 -0.0990
29631SOL    HW293741   0.084   6.254   8.950 -2.2210 -1.2351  1.9941
29632SOL     OW93742   0.123   7.938   8.966  0.9040 -0.2664 -0.5983
29632SOL    HW193743   0.204   7.975   8.931 -0.5041  0.6981 -3.1708
29632SOL    HW293744   0.060   8.010   8.961 -0.3573 -1.2461  0.4118
29633SOL     OW93745   0.539   6.347   7.629  0.3767 -1.0954 -0.1872
29633SOL    HW193746   0.456   6.339   7.583 -0.8930  0.1325  1.7379
29633SOL    HW293747   0.599   6.387   7.566 -1.6145  1.6235 -0.5032
29634SOL     OW93748   1.378   6.059   0.834  0.1848  0.3577 -0.1976
29634SOL    HW193749   1.301   6.033   0.884  0.6788 -0.6248  0.0746
29634SOL    HW293750   1.387   6.153   0.850  0.5399  0.0194  1.8785
29635SOL     OW93751   7.946   7.295   0.615 -0.4825 -0.2017 -0.0479
29635SOL    HW193752   8.010   7.284   0.685 -0.6096  1.3168  0.3217
29635SOL    HW293753   7.866   7.254   0.649 -0.9294  1.6555  1.2806
29636SOL     OW93754   1.443   6.544   8.327  0.0908 -0.0618 -0.2291
29636SOL    HW193755   1.453   6.517   8.418 -1.6088  0.4844  0.1620
29636SOL    HW293756   1.372   6.609   8.329  1.5517  1.6710 -1.6227
29637SOL     OW93757   9.173   6.980   8.353 -0.1715  0.2889  0.0360
29637SOL    HW193758   9.211   6.893   8.336 -1.9702 -1.1597  2.6547
29637SOL    HW293759   9.238   7.023   8.409 -0.0708 -0.0605  0.1911
29638SOL     OW93760   6.298   4.836   9.360  0.1318 -0.2180 -0.1861
29638SOL    HW193761   6.343   4.898   9.417 -0.1278 -0.9378  0.8170
29638SOL    HW293762   6.323   4.749   9.393  1.2855 -0.7166 -2.1594
29639SOL     OW93763   7.195   7.558   6.993  0.1517 -0.1114 -0.7410
29639SOL    HW193764   7.209   7.578   6.901 -0.6645 -1.3990 -1.1684
29639SOL    HW293765   7.122   7.615   7.019  0.7627  0.6749 -0.7178
29640SOL     OW93766   7.662   4.052   8.753 -0.1266  0.0189  0.7193
29640SOL    HW193767   7.738   4.107   8.734  0.0124 -0.2865  0.3869
29640SOL    HW293768   7.663   4.042   8.849  0.4581 -0.2837  0.6810
29641SOL     OW93769   0.173   6.519   9.205 -0.7540 -0.0804 -0.4620
29641SOL    HW193770   0.164   6.612   9.184 -0.4886  0.2352  0.7219
29641SOL    HW293771   0.092   6.497   9.251 -0.2400 -0.0574  0.4867
29642SOL     OW93772   1.730   7.738   9.035  0.7546  0.3336 -0.1972
29642SOL    HW193773   1.636   7.736   9.054  0.8794 -1.6880  0.3587
29642SOL    HW293774   1.735   7.737   8.940  0.2071 -0.7826 -0.2240
29643SOL     OW93775   9.104   8.600   7.426 -0.4038  0.3259 -0.1921
29643SOL    HW193776   9.129   8.674   7.371  0.4807 -0.3985 -0.7899
29643SOL    HW293777   9.187   8.555   7.444 -0.9062 -0.4099  0.3256
29644SOL     OW93778   8.702   7.777   5.357 -0.0764 -0.5835 -0.0006
29644SOL    HW193779   8.746   7.731   5.429 -0.3132 -0.0872  0.4643
29644SOL    HW293780   8.640   7.835   5.400 -0.8253 -0.8953 -0.6395
29645SOL     OW93781   7.882   9.301   7.409 -0.5621  0.5920 -0.2374
29645SOL    HW193782   7.850   9.388   7.384 -0.5844  0.6040 -0.1667
29645SOL    HW293783   7.883   9.302   7.505 -2.3526 -0.1263 -0.1658
29646SOL     OW93784   8.954   6.846   6.797  0.2109  0.0981 -0.3467
29646SOL    HW193785   8.982   6.938   6.794  1.2944 -0.2068  0.0230
29646SOL    HW293786   9.027   6.800   6.839  0.4840 -1.2243 -2.1585
29647SOL     OW93787   0.977   6.767   7.822  0.0463  0.2775  0.6421
29647SOL    HW193788   0.964   6.748   7.729 -0.1686 -0.6538  0.8450
29647SOL    HW293789   1.054   6.823   7.825  0.5663 -0.3776 -0.0454
29648SOL     OW93790   7.881   7.718   9.572  0.2276  1.1933 -0.7730
29648SOL    HW193791   7.856   7.675   9.491  0.6442  0.7719 -0.6808
29648SOL    HW293792   7.811   7.781   9.588 -0.2519  0.7379 -1.0519
29649SOL     OW93793   9.683   2.760   9.485  0.2124  0.2202  0.0999
29649SOL    HW193794   9.679   2.823   9.413  0.3634 -1.1910 -1.1884
29649SOL    HW293795   9.776   2.736   9.491  0.2044  0.3543  0.7906
29650SOL     OW93796   9.193   7.327   0.646  0.2589 -0.3836 -0.1400
29650SOL    HW193797   9.175   7.317   0.553 -0.7765  0.1628 -0.0186
29650SOL    HW293798   9.222   7.240   0.674 -0.1810 -0.7608 -0.8128
29651SOL     OW93799   0.901   4.484   7.252  0.3689 -0.8751 -0.3815
29651SOL    HW193800   0.980   4.440   7.224  2.7279  1.8837  1.3042
29651SOL    HW293801   0.874   4.537   7.177  1.0425 -0.7183 -0.5182
29652SOL     OW93802   8.566   6.442   9.368 -0.2232 -0.1819  0.2321
29652SOL    HW193803   8.600   6.505   9.432  0.6503 -0.6585  0.2477
29652SOL    HW293804   8.494   6.489   9.325 -0.3929  0.3789  1.1011
29653SOL     OW93805   6.436   7.618   8.888 -0.0821  0.5439  0.0025
29653SOL    HW193806   6.421   7.555   8.958 -2.6326 -0.8228 -1.6381
29653SOL    HW293807   6.506   7.580   8.836 -0.6816 -0.2905 -0.2148
29654SOL     OW93808   0.178   5.237   0.244 -0.0903  0.7492  0.1762
29654SOL    HW193809   0.151   5.167   0.304  0.3412  0.3406 -0.1031
29654SOL    HW293810   0.178   5.316   0.299  0.8709  0.2892  0.8822
29655SOL     OW93811   9.115   3.760   9.789 -0.3256 -0.1615  0.0798
29655SOL    HW193812   9.181   3.827   9.803 -0.6050  0.0990  0.1487
29655SOL    HW293813   9.152   3.682   9.830  0.8581 -0.5669 -1.6207
29656SOL     OW93814   8.878   6.218   8.158 -0.2041  0.0257 -0.5501
29656SOL    HW193815   8.917   6.278   8.221 -1.3105 -0.3701  0.5453
29656SOL    HW293816   8.878   6.266   8.075  0.4056  0.9115 -0.0404
29657SOL     OW93817   1.409   5.497   6.324 -0.0274  0.4978 -0.1045
29657SOL    HW193818   1.417   5.402   6.315 -0.9912  0.3808  0.1958
29657SOL    HW293819   1.469   5.520   6.395  0.3174  0.1388 -0.2761
29658SOL     OW93820   9.592   7.532   0.822 -0.2495 -0.7181  0.5364
29658SOL    HW193821   9.535   7.502   0.751  0.1798 -0.2990  0.0082
29658SOL    HW293822   9.676   7.550   0.779 -0.7640  2.2805  0.5921
29659SOL     OW93823   0.446   6.600   1.958  0.1229 -0.0856  0.1103
29659SOL    HW193824   0.448   6.657   2.034 -2.2050 -0.5230  0.5777
29659SOL    HW293825   0.365   6.623   1.912  0.3989 -1.2870 -1.0619
29660SOL     OW93826   1.168   7.044   6.279 -0.0207  0.2540 -0.3829
29660SOL    HW193827   1.180   7.139   6.289 -2.6980  0.4241  4.5243
29660SOL    HW293828   1.234   7.005   6.336 -0.9713 -0.6129  0.1527
29661SOL     OW93829   8.870   7.057   8.632  0.6722  0.4613  0.0698
29661SOL    HW193830   8.844   7.102   8.712  0.8550  1.3692 -0.3746
29661SOL    HW293831   8.793   7.006   8.606  0.4100  0.6466  0.4845
29662SOL     OW93832   0.929   5.453   6.338  0.4013  0.0252  0.1387
29662SOL    HW193833   0.968   5.541   6.332  1.1529 -0.3340 -0.5918
29662SOL    HW293834   0.964   5.407   6.261  0.7162 -1.1823  0.9787
29663SOL     OW93835   0.174   7.239   8.614  0.6095 -0.1983  0.1097
29663SOL    HW193836   0.170   7.310   8.549  1.4301 -0.2167  0.0227
29663SOL    HW293837   0.267   7.220   8.622  0.5010 -0.3394  1.1492
29664SOL     OW93838   8.863   7.646   9.316  0.8364 -0.1846  0.3942
29664SOL    HW193839   8.796   7.712   9.334  0.0981 -0.8585  0.1733
29664SOL    HW293840   8.897   7.670   9.229  2.0628  1.1146  1.1878
29665SOL     OW93841   7.361   0.234   6.784 -0.7055 -0.0138 -0.2346
29665SOL    HW193842   7.284   0.290   6.792 -0.4190  0.3229  0.2554
29665SOL    HW293843   7.435   0.295   6.784 -0.4985 -0.1673 -2.7184
29666SOL     OW93844   8.896   8.475   7.337  0.1414 -0.0624 -0.2311
29666SOL    HW193845   8.947   8.408   7.291  1.4232  1.0068 -0.4170
29666SOL    HW293846   8.961   8.541   7.363 -1.1646  1.4205 -0.6057
29667SOL     OW93847   9.472   7.220   8.226  0.1210 -0.3580 -0.7720
29667SOL    HW193848   9.391   7.269   8.217  0.0155 -0.5138 -0.6716
29667SOL    HW293849   9.473   7.160   8.151 -0.3440 -1.0570 -0.2313
29668SOL     OW93850   0.498   6.938   6.611  0.1979 -0.2215  0.1538
29668SOL    HW193851   0.436   6.928   6.684  1.2982 -1.1885  0.9909
29668SOL    HW293852   0.547   7.018   6.632 -0.1115  0.0172 -0.0193
29669SOL     OW93853   8.873   5.071   8.821 -0.3218  0.2297  0.2273
29669SOL    HW193854   8.828   5.139   8.871 -0.5304 -0.1195  0.5177
29669SOL    HW293855   8.889   5.111   8.735 -2.2127 -0.0322 -0.2820
29670SOL     OW93856   6.454   6.344   0.726 -0.4769 -0.1988  0.1604
29670SOL    HW193857   6.422   6.269   0.775 -2.5946 -0.0773 -0.9485
29670SOL    HW293858   6.406   6.342   0.644  2.1327  0.2625 -1.4959
29671SOL     OW93859   8.905   4.809   8.907 -0.0605  0.3189 -0.0758
29671SOL    HW193860   8.901   4.905   8.910 -0.4674  0.3116 -0.2706
29671SOL    HW293861   8.870   4.787   8.820 -1.2470 -0.0641  0.4741
29672SOL     OW93862   9.770   6.054   8.882 -0.4037  0.4222  0.3408
29672SOL    HW193863   9.782   6.148   8.867  0.0598  0.2637 -0.2720
29672SOL    HW293864   9.675   6.044   8.889 -0.4650  0.9120  0.2690
29673SOL     OW93865   9.532   6.974   8.414  1.1521 -0.5597 -0.2089
29673SOL    HW193866   9.525   6.919   8.336  0.8863 -3.0194  1.4363
29673SOL    HW293867   9.549   6.912   8.486 -0.8742  1.3232  2.0720
29674SOL     OW93868   7.806   4.283   0.783 -0.6124 -0.1759  0.3944
29674SOL    HW193869   7.778   4.374   0.776  0.2339  0.1459  0.9611
29674SOL    HW293870   7.889   4.288   0.831  0.7820 -1.0004 -1.8054
29675SOL     OW93871   0.475   5.273   9.298 -0.1177 -0.1955  0.1350
29675SOL    HW193872   0.490   5.360   9.261  0.5820 -0.7289 -0.8719
29675SOL    HW293873   0.472   5.215   9.222 -0.3128 -1.0944  0.8190
29676SOL     OW93874   9.100   6.567   8.570  0.3946 -0.4473 -0.4753
29676SOL    HW193875   9.102   6.569   8.666  1.4065  2.2753 -0.4593
29676SOL    HW293876   9.056   6.648   8.545 -2.0603 -2.1900 -2.4058
29677SOL     OW93877   0.124   3.910   8.837  0.0852  0.8143  0.1884
29677SOL    HW193878   0.161   3.829   8.804  1.2937  2.3544 -2.5586
29677SOL    HW293879   0.190   3.944   8.898 -0.4886 -0.2401  1.4628
29678SOL     OW93880   0.249   6.652   9.594 -0.0151 -0.2659 -0.3831
29678SOL    HW193881   0.155   6.646   9.612 -0.1070 -1.4516 -1.1226
29678SOL    HW293882   0.256   6.722   9.530  0.0383  2.2466  2.2016
29679SOL     OW93883   2.597   5.148   7.696  0.4199  0.7123 -0.1059
29679SOL    HW193884   2.515   5.185   7.663 -0.1022  0.1241  0.4993
29679SOL    HW293885   2.577   5.055   7.711  1.0822  0.6461  0.4107
29680SOL     OW93886   9.341   8.904   9.635  0.4567 -0.6673 -0.4143
29680SOL    HW193887   9.404   8.881   9.704  0.8186 -1.1962 -0.9099
29680SOL    HW293888   9.287   8.826   9.625  1.3497 -1.1571 -1.7416
29681SOL     OW93889   9.237   5.409   9.133 -0.0519  0.1590  0.6042
29681SOL    HW193890   9.188   5.491   9.131 -0.9589 -0.3678  0.4285
29681SOL    HW293891   9.182   5.347   9.085  0.6481 -0.5315  0.6732
29682SOL     OW93892   0.514   5.292   8.223 -0.2972 -0.5922 -0.0614
29682SOL    HW193893   0.465   5.363   8.182 -1.3854 -0.8520  0.7520
29682SOL    HW293894   0.541   5.326   8.308  0.4157 -0.6692 -0.2473
29683SOL     OW93895   7.715   5.618   2.349  0.2255 -0.1897  0.0542
29683SOL    HW193896   7.708   5.660   2.435  0.4911 -0.5381  0.2508
29683SOL    HW293897   7.650   5.548   2.352 -1.3027  1.1150 -0.8331
29684SOL     OW93898   7.906   4.765   8.817 -0.0197  0.2252  0.2032
29684SOL    HW193899   8.001   4.772   8.807 -0.1818  1.4504 -0.7570
29684SOL    HW293900   7.880   4.850   8.854 -0.7328 -0.1074  0.4711
29685SOL     OW93901   1.591   5.630   0.135 -0.3521 -0.2933 -0.6033
29685SOL    HW193902   1.604   5.671   0.049 -1.5040  1.0814 -0.1542
29685SOL    HW293903   1.509   5.667   0.167  0.7170  0.2529  1.6816
29686SOL     OW93904   2.642   7.708   9.058  0.2251 -0.5381  0.0110
29686SOL    HW193905   2.631   7.633   9.000  1.7734 -2.1806  1.6733
29686SOL    HW293906   2.623   7.673   9.145  2.1299  0.6435  0.9611
29687SOL     OW93907   7.137   6.693   8.455  0.3995 -0.5088  0.6368
29687SOL    HW193908   7.151   6.781   8.490  0.2903 -0.0398 -0.4697
29687SOL    HW293909   7.205   6.682   8.389  0.9417 -1.5956  1.3631
29688SOL     OW93910   9.722   4.867   9.822  0.1248  0.1954  0.0444
29688SOL    HW193911   9.715   4.837   9.732  0.6984  0.5544 -0.1285
29688SOL    HW293912   9.675   4.950   9.824 -2.3612 -1.1339  0.7642
29689SOL     OW93913   1.002   7.034   8.027 -0.3542 -0.3373 -0.7430
29689SOL    HW193914   1.069   6.975   7.992  1.5698  0.2061  1.7366
29689SOL    HW293915   1.048   7.116   8.043 -2.3915  1.1074 -1.7783
29690SOL     OW93916   0.609   5.391   6.767  0.1841 -0.0099 -0.3203
29690SOL    HW193917   0.551   5.421   6.698  1.6244  1.0817 -1.0923
29690SOL    HW293918   0.658   5.319   6.728  0.6578  0.2908 -0.2882
29691SOL     OW93919   0.750   5.443   0.946 -0.0294 -0.0869  0.1652
29691SOL    HW193920   0.843   5.451   0.922 -0.1236  1.9088  0.2969
29691SOL    HW293921   0.712   5.527   0.922 -1.5691 -0.4605  1.1625
29692SOL     OW93922   8.118   4.941   8.651 -0.4172  0.1366  0.0676
29692SOL    HW193923   8.092   4.956   8.560 -1.4981 -0.8556  0.1847
29692SOL    HW293924   8.189   4.877   8.646 -2.0218 -1.7288 -0.0190
29693SOL     OW93925   2.133   6.432   9.554  0.7195 -0.1842 -0.0448
29693SOL    HW193926   2.081   6.510   9.574 -1.1748 -1.1171 -1.0110
29693SOL    HW293927   2.139   6.431   9.459  1.5694 -0.7058  0.0055
29694SOL     OW93928   9.375   3.721   0.573 -0.0687 -0.2026 -0.7400
29694SOL    HW193929   9.322   3.688   0.501 -0.2602 -0.2935 -0.5573
29694SOL    HW293930   9.313   3.766   0.630 -0.3292 -2.0972  0.5600
29695SOL     OW93931   2.319   4.842   7.891  0.2616 -0.1551  0.4878
29695SOL    HW193932   2.361   4.926   7.911  0.0112  0.3883 -1.1158
29695SOL    HW293933   2.250   4.834   7.956  0.7436  0.5310  1.1038
29696SOL     OW93934   1.520   4.611   7.046 -0.5169  0.4726 -0.4193
29696SOL    HW193935   1.563   4.654   7.120 -1.7454  0.0440  0.5894
29696SOL    HW293936   1.477   4.683   6.998  1.8239  1.0013 -1.8677
29697SOL     OW93937   0.971   5.746   8.340 -0.3981 -0.0426 -0.0485
29697SOL    HW193938   0.999   5.682   8.405  0.5737  0.7834  0.3726
29697SOL    HW293939   0.964   5.696   8.259  0.9542 -0.5737  0.1311
29698SOL     OW93940   0.825   7.508   1.183 -0.7579  0.0047 -0.1054
29698SOL    HW193941   0.768   7.455   1.127 -0.9857  0.3183 -0.1745
29698SOL    HW293942   0.864   7.573   1.124 -0.3361 -0.1998 -0.0559
29699SOL     OW93943   1.435   6.780   0.156  0.7275 -0.2146  0.2409
29699SOL    HW193944   1.347   6.814   0.143  0.4647 -0.7030  0.7114
29699SOL    HW293945   1.491   6.834   0.101  0.1741  0.3048  0.1936
29700SOL     OW93946   1.842   6.005   2.130  0.7366  0.1014 -0.6126
29700SOL    HW193947   1.892   6.011   2.048 -0.3882 -1.2029 -1.4338
29700SOL    HW293948   1.825   5.912   2.141 -0.3200  0.3892  0.3775
29701SOL     OW93949   0.437   6.522   0.817 -0.1886  0.1448  0.1580
29701SOL    HW193950   0.489   6.470   0.757 -0.4708 -0.0138  0.0506
29701SOL    HW293951   0.420   6.604   0.769  0.8464  0.6299  0.5923
29702SOL     OW93952   9.258   7.527   8.702  0.1830 -0.2139  0.2580
29702SOL    HW193953   9.206   7.476   8.641  0.9958 -0.5419 -0.1765
29702SOL    HW293954   9.271   7.468   8.777 -0.5455  0.0745  0.6190
29703SOL     OW93955   9.826   8.864   0.631 -0.7335 -0.2475  0.2766
29703SOL    HW193956   9.759   8.844   0.566 -0.7423 -2.6489  0.9621
29703SOL    HW293957   9.806   8.808   0.705  2.9300 -2.3339 -0.0896
29704SOL     OW93958   1.365   7.893   0.886  0.3698  0.4132 -0.5045
29704SOL    HW193959   1.270   7.905   0.896  0.8476  2.5877  2.9735
29704SOL    HW293960   1.390   7.956   0.818 -0.6781 -0.8613 -2.1758
29705SOL     OW93961   0.380   6.933   0.877 -0.3122  0.1672 -0.7045
29705SOL    HW193962   0.442   6.871   0.839  0.2931  0.9493 -0.9954
29705SOL    HW293963   0.295   6.906   0.841 -0.5619 -2.2968  1.3817
29706SOL     OW93964   0.307   9.425   9.731 -0.1998 -0.4523 -0.4690
29706SOL    HW193965   0.394   9.464   9.722 -0.2391  0.4368  2.1431
29706SOL    HW293966   0.324   9.332   9.747  0.3726 -0.1429  0.8884
29707SOL     OW93967   0.700   9.636   9.791  0.8600 -0.3084  0.0920
29707SOL    HW193968   0.749   9.696   9.734  0.8452  1.6079  1.9412
29707SOL    HW293969   0.657   9.694   9.854 -2.5331 -2.0190 -0.4479
29708SOL     OW93970   8.795   8.010   0.209  0.3435  0.3478  0.1656
29708SOL    HW193971   8.706   8.018   0.174  0.5383 -1.2327 -0.7521
29708SOL    HW293972   8.823   8.101   0.222 -1.0830  0.8956 -0.3394
29709SOL     OW93973   8.759   5.686   9.123  0.3392  0.3426 -0.2662
29709SOL    HW193974   8.844   5.643   9.114  0.0870 -0.0245 -0.9694
29709SOL    HW293975   8.759   5.720   9.213  1.2507  0.4079 -0.2740
29710SOL     OW93976   8.392   0.942   8.210  0.2117 -0.1959 -0.1704
29710SOL    HW193977   8.390   1.016   8.150  1.0708 -0.4230 -0.5007
29710SOL    HW293978   8.395   0.865   8.153 -0.8244 -0.5057  0.1659
29711SOL     OW93979   7.442   7.679   1.481  1.2192  0.2673 -0.3094
29711SOL    HW193980   7.439   7.713   1.570  2.7123  0.3048 -0.2416
29711SOL    HW293981   7.465   7.586   1.491 -0.9437 -0.3484 -0.5773
29712SOL     OW93982   0.104   6.232   1.219  0.1185 -0.1063  0.3080
29712SOL    HW193983   0.058   6.230   1.303 -2.9454  1.4473 -1.2051
29712SOL    HW293984   0.083   6.148   1.178  0.6650 -0.3865  0.5882
29713SOL     OW93985   9.315   7.310   0.104 -0.5274 -0.1078  0.6592
29713SOL    HW193986   9.355   7.232   0.142 -1.6172 -0.9407  0.1645
29713SOL    HW293987   9.222   7.301   0.124 -0.9518  0.0740 -1.0508
29714SOL     OW93988   9.600   7.256   0.406 -0.0774  0.1397  0.1163
29714SOL    HW193989   9.554   7.173   0.422 -3.4476  2.0306  1.1817
29714SOL    HW293990   9.616   7.256   0.311 -2.1420 -0.7712 -0.2945
29715SOL     OW93991   9.718   7.710   8.240  0.3670  0.3085 -0.0798
29715SOL    HW193992   9.721   7.697   8.335 -1.0488  1.1377  0.1039
29715SOL    HW293993   9.671   7.793   8.228  2.7031  1.5713 -1.4352
29716SOL     OW93994   0.271   7.513   2.320 -0.2022  0.3035  0.3888
29716SOL    HW193995   0.249   7.448   2.387  0.5154 -0.4403 -0.0691
29716SOL    HW293996   0.207   7.500   2.251 -1.0405  1.1774  0.9748
29717SOL     OW93997   0.252   0.663   1.284 -0.8136 -0.2764 -0.5135
29717SOL    HW193998   0.224   0.581   1.324 -2.4569  0.2065 -0.6086
29717SOL    HW293999   0.337   0.681   1.324 -1.0018 -1.3799  0.4424
29718SOL     OW94000   9.420   6.683   0.955  0.0885 -0.0706  0.4205
29718SOL    HW194001   9.433   6.640   1.039  1.9699  0.1882  0.3049
29718SOL    HW294002   9.452   6.620   0.890  0.8256  0.6275  0.0922
29719SOL     OW94003   7.140   7.217   8.609  0.0248 -0.3959  0.5202
29719SOL    HW194004   7.221   7.215   8.557  0.1547 -3.0484  0.6786
29719SOL    HW294005   7.157   7.282   8.676  1.0644  0.8543 -0.8792
29720SOL     OW94006   9.496   1.608   8.017  0.5114 -0.3406 -0.4799
29720SOL    HW194007   9.526   1.698   8.014 -0.3947  0.0169  0.5989
29720SOL    HW294008   9.573   1.557   8.041  0.4176  0.5085  1.8293
29721SOL     OW94009   0.979   1.019   9.347  0.0935 -0.9777 -0.5758
29721SOL    HW194010   1.016   1.001   9.433  2.3248  0.9177 -1.0458
29721SOL    HW294011   1.042   0.983   9.285 -0.0924  0.0558 -1.4070
29722SOL     OW94012   0.124   9.386   1.697 -0.3254 -0.7359  0.3414
29722SOL    HW194013   0.077   9.310   1.733 -1.4245 -0.5087 -0.5630
29722SOL    HW294014   0.096   9.390   1.606  1.8579 -0.8787 -0.4009
29723SOL     OW94015   7.244   6.488   1.116  0.0645 -0.1991 -0.3284
29723SOL    HW194016   7.266   6.563   1.061 -0.5268 -0.1512 -0.5110
29723SOL    HW294017   7.307   6.491   1.188  0.0033  0.5200 -0.2968
29724SOL     OW94018   1.264   9.268   9.260 -0.2008 -0.7540  0.6414
29724SOL    HW194019   1.234   9.177   9.248  0.9893 -1.1682  0.6490
29724SOL    HW294020   1.324   9.283   9.186  0.4449 -0.3535  1.2308
29725SOL     OW94021   9.329   9.716   0.355  0.5949  0.5284  0.7489
29725SOL    HW194022   9.335   9.629   0.315 -1.3362 -0.4637  2.4054
29725SOL    HW294023   9.400   9.718   0.420 -0.5468 -0.6746  2.1060
29726SOL     OW94024   0.001   7.208   1.081 -0.1543 -0.0450  0.0536
29726SOL    HW194025   0.067   7.275   1.064  0.0328 -0.5594 -1.3785
29726SOL    HW294026  -0.004   7.158   1.000 -1.4964 -0.7310  0.5267
29727SOL     OW94027   0.599   7.433   9.544  0.8802  0.2799 -0.0764
29727SOL    HW194028   0.625   7.431   9.452  0.6330  1.0142 -0.1708
29727SOL    HW294029   0.653   7.367   9.586 -0.6407 -1.7644 -1.1702
29728SOL     OW94030   8.767   7.062   9.381 -0.1433  0.1646 -0.1279
29728SOL    HW194031   8.775   6.979   9.429 -3.0334 -0.3633 -0.3518
29728SOL    HW294032   8.673   7.081   9.384  0.3987  3.3368 -0.2994
29729SOL     OW94033   0.898   7.506   9.701  0.6564  0.3948 -0.4474
29729SOL    HW194034   0.897   7.418   9.661 -1.1910  0.1299  0.0666
29729SOL    HW294035   0.934   7.562   9.633 -0.6034 -0.3687 -1.8228
29730SOL     OW94036   9.441   6.593   0.267 -0.4424 -0.4162 -0.8207
29730SOL    HW194037   9.406   6.639   0.342 -1.7614 -1.7212 -0.5942
29730SOL    HW294038   9.531   6.572   0.292  0.1519  1.7855 -0.8675
29731SOL     OW94039   7.374   6.749   0.087  0.4254 -0.1846 -0.3298
29731SOL    HW194040   7.407   6.835   0.112  0.6891 -0.5261  0.5098
29731SOL    HW294041   7.437   6.717   0.022  0.1500  0.3860 -0.8852
29732SOL     OW94042   8.853   6.924   1.305 -0.5114 -0.4928  0.1840
29732SOL    HW194043   8.830   7.016   1.304 -0.2109 -0.4244 -0.7570
29732SOL    HW294044   8.883   6.908   1.395  0.6252  0.6302  0.0356
29733SOL     OW94045   9.255   5.651   1.368 -0.0869  0.2571  0.4142
29733SOL    HW194046   9.327   5.630   1.428  0.0244 -3.2798 -0.6956
29733SOL    HW294047   9.297   5.696   1.295  1.1974 -2.1312 -0.4161
29734SOL     OW94048   0.617   7.719   0.342 -0.1492  0.3106  0.1220
29734SOL    HW194049   0.650   7.664   0.412 -0.8363  0.3561  0.4848
29734SOL    HW294050   0.538   7.676   0.311 -1.7449  1.9942  1.6451
29735SOL     OW94051   0.612   8.460   3.339  0.1160 -0.3708  0.2078
29735SOL    HW194052   0.656   8.456   3.424  1.2008  0.1150 -0.3087
29735SOL    HW294053   0.636   8.379   3.295 -0.7740 -0.8058  0.5126
29736SOL     OW94054   8.586   9.668   1.321  0.0184  0.0340  0.3746
29736SOL    HW194055   8.664   9.640   1.369  0.4798  0.1432 -0.3010
29736SOL    HW294056   8.620   9.722   1.250 -0.7972  1.7016  1.1981
29737SOL     OW94057   8.829   7.169   1.968 -0.0561 -0.3171 -0.0912
29737SOL    HW194058   8.800   7.118   1.892 -0.8176  0.3706 -0.2839
29737SOL    HW294059   8.773   7.247   1.966 -1.0161 -0.8864  1.9134
29738SOL     OW94060   9.803   8.704   3.677 -0.1802  0.5506 -0.4567
29738SOL    HW194061   9.850   8.627   3.710  0.3870  1.8169  1.9369
29738SOL    HW294062   9.870   8.755   3.631  0.4706  1.4594  1.3767
29739SOL     OW94063   1.808   6.243   1.848  0.4331  0.2531 -0.1294
29739SOL    HW194064   1.830   6.150   1.845  1.3686  0.3843  1.2151
29739SOL    HW294065   1.887   6.284   1.883 -0.2086  1.4599 -0.0501
29740SOL     OW94066   9.566   8.415   2.324  0.5139 -0.1583  0.0757
29740SOL    HW194067   9.647   8.448   2.287  0.2332 -1.1549 -1.5258
29740SOL    HW294068   9.592   8.366   2.402  1.1821  1.4705  0.9218
29741SOL     OW94069   8.218   0.823   9.811  0.2950 -0.3110 -0.2221
29741SOL    HW194070   8.176   0.771   9.743  0.1419 -0.2448 -0.1790
29741SOL    HW294071   8.147   0.844   9.872  0.3558 -0.0528 -0.2396
29742SOL     OW94072   1.127   7.644   9.295  0.4560  0.4212 -0.2538
29742SOL    HW194073   1.145   7.554   9.323 -3.3121  0.0104  1.4894
29742SOL    HW294074   1.058   7.636   9.230 -1.0535  2.0050  1.0366
29743SOL     OW94075   7.559   6.868   9.389  0.0795 -0.0239  0.2411
29743SOL    HW194076   7.517   6.907   9.313  1.0455 -2.5565 -1.7471
29743SOL    HW294077   7.494   6.806   9.423 -0.1583  0.7345  1.2355
29744SOL     OW94078   8.954   7.442   1.338 -0.2879  0.2293  0.2397
29744SOL    HW194079   9.024   7.397   1.385  0.4115  2.0428  1.0094
29744SOL    HW294080   8.908   7.493   1.405 -2.0921 -0.5701 -0.3331
29745SOL     OW94081   9.350   7.473   1.775  0.1528 -0.7893 -0.6247
29745SOL    HW194082   9.420   7.443   1.832 -1.3639 -2.4067  0.4885
29745SOL    HW294083   9.309   7.393   1.742 -1.5297  0.0606 -0.7421
29746SOL     OW94084   8.043   6.916   2.699  0.1485 -0.1416  0.3092
29746SOL    HW194085   8.129   6.957   2.686 -0.0217 -0.1924 -1.1445
29746SOL    HW294086   8.062   6.832   2.739  1.0665 -1.3719 -2.4555
29747SOL     OW94087   9.049   7.258   1.154  0.0951  0.1027 -0.0245
29747SOL    HW194088   9.140   7.261   1.125  0.5036 -2.9616  0.6169
29747SOL    HW294089   9.033   7.345   1.190  2.2342  1.2422 -1.5546
29748SOL     OW94090   9.821   0.385   0.154 -0.6730 -0.2940  0.1489
29748SOL    HW194091   9.911   0.405   0.181 -1.3744  1.7523  1.2452
29748SOL    HW294092   9.831   0.337   0.072  1.4179  2.0060 -1.0857
29749SOL     OW94093   9.442   9.398   0.714 -0.3938  0.1272 -0.4993
29749SOL    HW194094   9.394   9.315   0.706 -1.6302  0.4772  2.0962
29749SOL    HW294095   9.517   9.376   0.770  1.0298  0.1800 -2.2962
29750SOL     OW94096   8.606   9.500   2.434  0.0465  0.0456  0.3435
29750SOL    HW194097   8.535   9.438   2.451 -0.5823  0.5390 -0.3736
29750SOL    HW294098   8.569   9.585   2.460  0.6324  0.2165  0.6249
29751SOL     OW94099   1.867   7.314   1.993 -0.5681 -0.6480 -0.3979
29751SOL    HW194100   1.875   7.330   1.899 -0.1282 -0.0748 -0.2638
29751SOL    HW294101   1.796   7.372   2.021 -1.2257 -1.3767 -0.5032
29752SOL     OW94102   0.255   7.225   8.322  0.1140 -0.0190 -0.1526
29752SOL    HW194103   0.304   7.199   8.399  1.3801 -1.2185 -1.3071
29752SOL    HW294104   0.309   7.291   8.279  0.0928 -0.3649 -0.7281
29753SOL     OW94105   9.491   7.595   2.508 -0.2645  0.2704 -0.0486
29753SOL    HW194106   9.454   7.508   2.522  0.4004  0.0387  0.3612
29753SOL    HW294107   9.440   7.633   2.437  1.0648 -1.4393 -2.0101
29754SOL     OW94108   7.424   7.850   9.662  0.9232  0.7889 -0.6115
29754SOL    HW194109   7.417   7.877   9.754  0.8680 -0.6638 -0.1659
29754SOL    HW294110   7.335   7.824   9.638  1.4953 -2.0268 -0.0106
29755SOL     OW94111   8.382   7.276   1.193  0.2353 -0.2219  0.2514
29755SOL    HW194112   8.292   7.247   1.204  0.3394 -1.4661 -1.7314
29755SOL    HW294113   8.375   7.367   1.163 -0.2191  0.4977  2.3418
29756SOL     OW94114   8.973   6.475   2.505 -0.2775 -0.2266  0.1586
29756SOL    HW194115   8.901   6.538   2.514 -0.0239 -0.0502  1.0442
29756SOL    HW294116   9.022   6.507   2.429 -1.0754 -0.3088 -0.4108
29757SOL     OW94117   0.022   9.403   1.444  0.4192  0.3076 -0.1446
29757SOL    HW194118   0.087   9.469   1.420  1.0654 -0.9009 -1.9526
29757SOL    HW294119   0.042   9.328   1.387 -1.5251 -0.7226  0.4413
29758SOL     OW94120   9.109   9.094   2.962 -0.1794 -0.3155 -0.3383
29758SOL    HW194121   9.043   9.161   2.950  1.0236  0.8674 -0.6492
29758SOL    HW294122   9.184   9.125   2.910  1.6469 -0.1390  2.2005
29759SOL     OW94123   6.529   6.786   1.217 -0.3615 -0.1588  0.7332
29759SOL    HW194124   6.436   6.789   1.241 -0.6438  2.3884 -0.3251
29759SOL    HW294125   6.529   6.777   1.121  0.3770  1.7325  0.5076
29760SOL     OW94126   9.333   7.714   9.435  0.0981 -0.2113 -0.1816
29760SOL    HW194127   9.406   7.653   9.434  0.3112  0.0436 -0.2797
29760SOL    HW294128   9.255   7.658   9.431  0.3076 -0.4525 -3.0287
29761SOL     OW94129   6.173   9.764   8.268  0.3553  0.1323  0.6782
29761SOL    HW194130   6.186   9.807   8.183  0.9105 -0.9798  0.1768
29761SOL    HW294131   6.259   9.766   8.309  0.7680 -1.7828  0.0016
29762SOL     OW94132   0.327   8.536   0.902  0.2299  0.4577 -0.5425
29762SOL    HW194133   0.323   8.442   0.920  2.1608  0.6878  1.6960
29762SOL    HW294134   0.415   8.548   0.865 -0.0006  1.3879 -0.7906
29763SOL     OW94135   7.518   7.965   0.671 -0.0501 -0.3743 -0.4416
29763SOL    HW194136   7.450   8.007   0.618  0.7288 -1.9100 -2.8176
29763SOL    HW294137   7.478   7.884   0.703 -1.0195  1.2173  2.7838
29764SOL     OW94138   8.999   8.441   1.518  0.5652 -0.3551 -0.0623
29764SOL    HW194139   9.083   8.473   1.486 -1.1021  1.0858 -3.4736
29764SOL    HW294140   8.959   8.517   1.561 -0.5402  0.1980 -1.9746
29765SOL     OW94141   8.186   5.925   9.154 -0.9704 -0.3710  0.1224
29765SOL    HW194142   8.112   5.907   9.211 -0.7693  1.7246  1.1559
29765SOL    HW294143   8.206   6.018   9.169  1.7227 -0.7963 -0.2660
29766SOL     OW94144   9.171   7.077   8.989 -0.0089  0.0845  0.3035
29766SOL    HW194145   9.203   7.043   9.073 -1.4321 -0.2017  0.7482
29766SOL    HW294146   9.076   7.084   9.000 -0.6170 -2.5854 -2.1750
29767SOL     OW94147   8.529   8.447   1.945  0.0074 -0.0798 -0.1783
29767SOL    HW194148   8.585   8.376   1.980 -0.1354 -0.7525 -1.2874
29767SOL    HW294149   8.441   8.411   1.948  0.0892 -0.5062 -2.0563
29768SOL     OW94150   1.660   0.369   2.040  0.2599  0.4359 -0.0546
29768SOL    HW194151   1.581   0.314   2.042  0.0074  0.7376 -0.9057
29768SOL    HW294152   1.627   0.456   2.013  0.8475  0.6200 -0.1846
29769SOL     OW94153   9.833   8.686   8.734  0.2158  0.7693 -0.3744
29769SOL    HW194154   9.815   8.775   8.765 -0.3009  0.7196 -0.5175
29769SOL    HW294155   9.928   8.677   8.739  0.1445  0.6819  1.4591
29770SOL     OW94156   8.471   7.008   2.146  0.4356  0.8369  0.4594
29770SOL    HW194157   8.560   6.973   2.137  0.5294  1.2960 -0.4747
29770SOL    HW294158   8.462   7.070   2.074 -0.6239  0.8501  0.5895
29771SOL     OW94159   1.392   7.522   8.277  0.5134 -0.0977  0.4893
29771SOL    HW194160   1.403   7.607   8.320  2.2158 -0.0991  0.1257
29771SOL    HW294161   1.459   7.466   8.318  2.9835  0.1813 -2.7776
29772SOL     OW94162   1.456   8.309   2.045  0.4156  0.1294  0.1483
29772SOL    HW194163   1.367   8.273   2.049 -0.1557  1.2021 -1.5812
29772SOL    HW294164   1.443   8.400   2.017  2.1201 -0.3010 -2.3509
29773SOL     OW94165   7.858   7.315   9.193  0.6567 -0.3871 -0.1322
29773SOL    HW194166   7.916   7.292   9.265  3.3797  0.1663 -1.9797
29773SOL    HW294167   7.833   7.406   9.210 -0.2523 -0.8380  1.0229
29774SOL     OW94168   8.418   6.797   2.777 -0.2446  0.4592  0.0409
29774SOL    HW194169   8.500   6.761   2.811 -1.2375 -1.1454  0.8630
29774SOL    HW294170   8.392   6.736   2.708 -1.2565  0.3621  0.4994
29775SOL     OW94171   7.529   6.847   8.253 -0.5195  0.3071  0.2526
29775SOL    HW194172   7.501   6.880   8.168  1.1911 -1.4456 -1.1094
29775SOL    HW294173   7.487   6.761   8.261  2.1175 -1.1972 -0.6434
29776SOL     OW94174   8.030   9.410   2.553  0.2613 -0.5543 -0.4834
29776SOL    HW194175   8.019   9.449   2.639 -0.4724  1.5777 -1.4591
29776SOL    HW294176   8.055   9.319   2.570 -2.1721 -0.8868  1.9647
29777SOL     OW94177   3.021   7.507   3.060 -0.3557 -0.3493  0.2236
29777SOL    HW194178   3.035   7.414   3.079  0.2671 -0.3092 -0.0097
29777SOL    HW294179   3.020   7.512   2.964  1.8614  0.1764  0.1746
29778SOL     OW94180   1.007   5.952   4.568 -0.1694 -0.5562  0.0536
29778SOL    HW194181   1.063   5.880   4.600  0.3965 -0.0007  0.3413
29778SOL    HW294182   0.926   5.909   4.540  0.2311 -1.3285  0.0501
29779SOL     OW94183   9.434   7.993   3.374 -0.2906  0.4766  0.6802
29779SOL    HW194184   9.405   8.014   3.285  1.7603 -0.2044 -0.2235
29779SOL    HW294185   9.384   8.052   3.430 -1.4191  1.1468 -0.9366
29780SOL     OW94186   9.364   7.916   4.966 -0.3166 -0.1170 -0.0027
29780SOL    HW194187   9.400   7.919   5.055 -2.2481  2.0595  0.7719
29780SOL    HW294188   9.283   7.866   4.974 -0.9263  0.8004 -0.3768
29781SOL     OW94189   0.113   0.350   1.332 -0.1238 -0.1938 -0.5598
29781SOL    HW194190   0.181   0.284   1.324 -0.9679 -0.9942 -1.3597
29781SOL    HW294191   0.145   0.410   1.399  1.4914 -0.3854 -1.1278
29782SOL     OW94192   8.680   7.565   5.211 -0.0709 -1.1788  0.0226
29782SOL    HW194193   8.677   7.634   5.277 -0.3593 -0.2860 -0.8994
29782SOL    HW294194   8.769   7.529   5.218  0.3351 -0.2115  0.0227
29783SOL     OW94195   9.350   0.420   2.523 -0.0347 -0.3978  0.0377
29783SOL    HW194196   9.417   0.432   2.456  1.0982 -1.6245  0.8918
29783SOL    HW294197   9.392   0.364   2.589 -1.3949  0.0639  1.3472
29784SOL     OW94198   7.919   6.079   0.620 -0.0216  0.7018  0.1761
29784SOL    HW194199   7.900   6.013   0.554 -0.4807  0.5982  0.4094
29784SOL    HW294200   7.866   6.154   0.595 -0.3761  0.5809  0.5577
29785SOL     OW94201   2.181   8.761   3.535 -0.2376 -0.4814 -0.2647
29785SOL    HW194202   2.163   8.838   3.481 -0.9218 -0.3256  0.1698
29785SOL    HW294203   2.100   8.746   3.583  0.7084  0.0886  1.5966
29786SOL     OW94204   8.530   7.263   3.167 -0.9147 -0.0571 -0.5087
29786SOL    HW194205   8.609   7.302   3.128 -0.5458  0.6242  0.8623
29786SOL    HW294206   8.527   7.174   3.132 -0.1355  0.2587 -1.4164
29787SOL     OW94207   9.317   9.554   3.161 -0.0690  0.5802 -0.3640
29787SOL    HW194208   9.312   9.460   3.174  1.0519  0.1934 -2.3282
29787SOL    HW294209   9.319   9.591   3.250 -1.6372 -1.1269  0.4381
29788SOL     OW94210   0.049   7.895   2.716 -0.1248  0.1632 -0.5111
29788SOL    HW194211   0.047   7.813   2.665 -0.2446  0.4577 -0.9870
29788SOL    HW294212   0.035   7.867   2.806  0.0886 -0.3709 -0.6370
29789SOL     OW94213   9.236   7.053   4.891 -0.6186  0.5411 -0.4823
29789SOL    HW194214   9.286   6.972   4.879 -1.5320 -0.0566 -0.3576
29789SOL    HW294215   9.245   7.100   4.807 -0.0882  0.3105 -0.5552
29790SOL     OW94216   1.009   7.389   4.316 -0.0894 -0.1154 -0.6192
29790SOL    HW194217   1.017   7.421   4.406  1.1902  0.5068 -0.9322
29790SOL    HW294218   0.918   7.403   4.294 -0.0952  1.0893  0.0912
29791SOL     OW94219   8.548   6.426   1.381 -0.3068  0.3957  0.0048
29791SOL    HW194220   8.458   6.418   1.351 -0.3736 -0.1392  0.3322
29791SOL    HW294221   8.550   6.380   1.465  0.4776 -0.4279 -0.4374
29792SOL     OW94222   9.069   6.275   0.623 -0.5701 -0.1328 -0.1332
29792SOL    HW194223   9.130   6.335   0.580 -0.5991 -0.8808 -1.2451
29792SOL    HW294224   9.109   6.257   0.708  1.6453 -1.8961 -1.4389
29793SOL     OW94225   8.746   8.355   3.284 -0.0834  0.2469  0.5849
29793SOL    HW194226   8.716   8.372   3.195  0.3617 -3.0844 -0.3457
29793SOL    HW294227   8.821   8.414   3.295 -0.0056  0.5812 -1.3195
29794SOL     OW94228   9.026   8.917   2.745 -0.1849 -0.3300 -0.1427
29794SOL    HW194229   9.010   8.975   2.820 -0.0026  1.0117 -1.1120
29794SOL    HW294230   8.979   8.958   2.673  0.0547 -1.3432 -0.8910
29795SOL     OW94231   9.808   8.629   3.996 -0.2454 -0.9768 -0.6712
29795SOL    HW194232   9.735   8.682   4.028  0.7083  0.3741 -0.6194
29795SOL    HW294233   9.783   8.539   4.014 -0.7944 -0.4089  1.7070
29796SOL     OW94234   9.810   7.055   4.591  0.1488  0.6076 -0.2363
29796SOL    HW194235   9.780   7.013   4.510 -1.6614 -0.8096  1.0851
29796SOL    HW294236   9.899   7.084   4.572  0.4756 -1.4087 -2.1188
29797SOL     OW94237   1.228   1.965   2.954 -0.3852 -0.6371 -0.2650
29797SOL    HW194238   1.242   2.060   2.952 -0.8272 -0.4798  1.9219
29797SOL    HW294239   1.272   1.933   2.875  2.1987  1.0861  0.3439
29798SOL     OW94240   0.533   7.413   2.451  0.3898 -0.6882 -0.0645
29798SOL    HW194241   0.470   7.480   2.478  1.4520 -0.3568  1.7787
29798SOL    HW294242   0.480   7.346   2.409 -1.0871  0.0109  0.6097
29799SOL     OW94243   9.485   7.875   2.382 -0.5671  0.2336  0.3067
29799SOL    HW194244   9.500   7.819   2.458 -1.5192 -3.5522 -1.9870
29799SOL    HW294245   9.396   7.909   2.394 -0.1154  0.9643  1.6011
29800SOL     OW94246   0.977   7.029   2.395  0.0542  0.2768  0.0217
29800SOL    HW194247   0.988   6.977   2.316  1.1106  2.4948 -1.3826
29800SOL    HW294248   0.897   7.079   2.380  0.4190  0.9303  0.1963
29801SOL     OW94249   9.711   7.301   1.768  0.1556  0.0390 -0.0133
29801SOL    HW194250   9.767   7.298   1.846  0.1568 -2.6330 -0.0128
29801SOL    HW294251   9.710   7.393   1.742  1.5803  0.7241  2.1078
29802SOL     OW94252   7.324   5.747   9.134  0.6106 -0.0277  0.1317
29802SOL    HW194253   7.356   5.671   9.182  0.2737 -1.2460 -1.4915
29802SOL    HW294254   7.401   5.802   9.122  0.6921  0.3379  2.0474
29803SOL     OW94255   1.139   7.890   1.960 -0.5932  0.3075  0.2271
29803SOL    HW194256   1.137   7.937   1.877  1.1365  1.3504  0.7240
29803SOL    HW294257   1.149   7.798   1.936  3.3103  0.8092 -0.8396
29804SOL     OW94258   8.988   6.498   3.342  0.9071  0.2133 -0.0985
29804SOL    HW194259   9.061   6.474   3.285  3.2103  0.3949  2.5145
29804SOL    HW294260   8.996   6.593   3.351 -0.8571  0.5043 -1.1975
29805SOL     OW94261   0.694   8.008   2.443  0.0576  0.6133  0.7428
29805SOL    HW194262   0.661   7.920   2.423  0.7218  0.2139  1.3229
29805SOL    HW294263   0.673   8.060   2.366  0.9422 -0.4264 -0.2350
29806SOL     OW94264   9.386   8.075   2.542  0.2352  0.6029 -0.9021
29806SOL    HW194265   9.469   8.035   2.567 -0.7875 -1.0469  0.0697
29806SOL    HW294266   9.336   8.082   2.624 -0.0463  3.0025 -1.2041
29807SOL     OW94267   1.923   7.569   2.721  0.2703  0.4361  0.0346
29807SOL    HW194268   1.882   7.646   2.683 -1.1583 -1.0969 -1.7449
29807SOL    HW294269   2.017   7.586   2.714  0.1072  0.6019 -3.6976
29808SOL     OW94270   9.840   8.448   3.144  0.5005 -0.7824  0.6246
29808SOL    HW194271   9.826   8.428   3.051 -0.1044 -0.7132  0.6944
29808SOL    HW294272   9.844   8.362   3.187  2.3222 -0.8747  0.3414
29809SOL     OW94273   0.021   7.279   2.859 -0.2889 -0.5158  0.0455
29809SOL    HW194274   0.063   7.357   2.823 -2.2422  0.3368 -0.5199
29809SOL    HW294275   0.014   7.219   2.785  1.1622 -1.2441  0.4672
29810SOL     OW94276   9.597   6.214   3.523 -0.6230 -0.3735  0.1272
29810SOL    HW194277   9.596   6.213   3.427 -0.4043  2.3905  0.0033
29810SOL    HW294278   9.520   6.266   3.547 -0.1613 -0.2439  1.3948
29811SOL     OW94279   3.533   5.920   4.060 -0.2028 -0.1213  0.4751
29811SOL    HW194280   3.598   5.853   4.038 -1.2655 -0.8107 -0.7116
29811SOL    HW294281   3.585   5.993   4.094  1.2211 -0.5513 -0.6511
29812SOL     OW94282   8.372   6.529   2.278  0.4777  0.6725 -0.5599
29812SOL    HW194283   8.375   6.624   2.287  0.7845  0.7246 -1.1847
29812SOL    HW294284   8.358   6.497   2.367  0.1202  1.3123 -0.3856
29813SOL     OW94285   9.346   9.600   1.701 -0.2099  0.2414 -0.0269
29813SOL    HW194286   9.303   9.596   1.616  1.0369  1.4130 -0.7664
29813SOL    HW294287   9.317   9.683   1.739  1.2612  1.0080 -0.5039
29814SOL     OW94288   8.570   7.786   1.143 -0.3113 -0.5339  0.0615
29814SOL    HW194289   8.570   7.845   1.068 -0.2700 -0.9955 -0.3094
29814SOL    HW294290   8.571   7.698   1.104  1.2869 -0.7866  0.6024
29815SOL     OW94291   8.739   7.684   1.794 -0.1165  0.1221 -0.1710
29815SOL    HW194292   8.730   7.625   1.720  0.1247 -0.7876  0.5142
29815SOL    HW294293   8.803   7.643   1.851 -0.8542  0.4203  0.9159
29816SOL     OW94294   9.730   9.269   1.627  0.3660 -0.3832 -0.3110
29816SOL    HW194295   9.776   9.316   1.557 -0.6401  0.6851 -0.2831
29816SOL    HW294296   9.653   9.232   1.584 -1.1025  1.6000  0.4920
29817SOL     OW94297   9.678   0.352   3.532  0.5072  0.2105  0.0798
29817SOL    HW194298   9.766   0.315   3.533  0.5796  0.3354  2.0889
29817SOL    HW294299   9.621   0.276   3.520  0.8037 -0.2143  1.1929
29818SOL     OW94300   9.716   9.636   2.076  0.2423 -0.3872  0.4892
29818SOL    HW194301   9.649   9.588   2.124 -1.2250 -0.2870 -1.3607
29818SOL    HW294302   9.778   9.568   2.047 -0.0191 -0.7062  0.6686
29819SOL     OW94303   1.271   8.588   2.273 -0.5047  0.2018 -0.6045
29819SOL    HW194304   1.203   8.525   2.298 -0.8034  0.7562  0.0215
29819SOL    HW294305   1.222   8.665   2.242 -0.1735  0.6634 -0.0024
29820SOL     OW94306   8.885   7.861   3.165  0.6136  0.5129 -0.0423
29820SOL    HW194307   8.856   7.893   3.079 -0.9579  0.8047  0.5691
29820SOL    HW294308   8.980   7.868   3.162  0.5698  0.7898 -1.6593
29821SOL     OW94309   9.571   7.361   3.506  0.1809 -0.1448  0.3055
29821SOL    HW194310   9.654   7.341   3.550 -0.2536  1.7243  2.1440
29821SOL    HW294311   9.509   7.298   3.544  0.5244 -0.8825 -0.3277
29822SOL     OW94312   8.474   8.940   2.925  0.0857  0.5817 -0.1084
29822SOL    HW194313   8.442   9.026   2.952 -0.5178 -0.1173  1.5556
29822SOL    HW294314   8.555   8.929   2.975 -0.4083 -0.2479  0.5231
29823SOL     OW94315   8.983   9.806   3.536 -0.0441 -0.2589 -0.0835
29823SOL    HW194316   8.900   9.847   3.512  0.1493 -0.2463 -0.7383
29823SOL    HW294317   9.009   9.757   3.458  0.3788 -0.5709  0.2478
29824SOL     OW94318   8.354   8.145   1.194  0.3344  0.0459  0.6545
29824SOL    HW194319   8.262   8.132   1.218 -0.1392  3.0855  0.9008
29824SOL    HW294320   8.359   8.120   1.102 -0.4118 -1.3386  0.9602
29825SOL     OW94321   8.783   7.281   2.339  0.1088  0.0537 -0.1022
29825SOL    HW194322   8.699   7.289   2.294 -0.1507  0.4083  0.4274
29825SOL    HW294323   8.820   7.369   2.337  0.0743  0.0865  0.3959
29826SOL     OW94324   2.123   7.124   1.893  0.6313 -0.3625  0.3406
29826SOL    HW194325   2.106   7.093   1.804 -0.6571  2.7132 -0.5867
29826SOL    HW294326   2.038   7.153   1.926  1.5643  1.3329  1.4116
29827SOL     OW94327   8.767   9.497   1.483  0.0250 -0.1084 -0.2593
29827SOL    HW194328   8.803   9.530   1.566 -1.7386 -0.3675  0.6705
29827SOL    HW294329   8.715   9.421   1.509 -2.2949  1.0344 -1.2773
29828SOL     OW94330   0.300   6.399   2.494  0.0620  0.6440 -0.6020
29828SOL    HW194331   0.282   6.483   2.453 -0.8652  0.9066  0.3085
29828SOL    HW294332   0.309   6.338   2.421  2.6238  1.8349 -1.3907
29829SOL     OW94333   7.946   8.241   1.379  0.6714 -0.4250  0.2906
29829SOL    HW194334   7.941   8.305   1.307 -2.3847 -1.5464 -0.6601
29829SOL    HW294335   7.925   8.292   1.457  0.4286  0.1577 -0.1425
29830SOL     OW94336   0.788   8.221   2.740 -0.0243 -0.6093 -0.7497
29830SOL    HW194337   0.825   8.146   2.695  2.1388 -0.0805  0.0214
29830SOL    HW294338   0.775   8.191   2.830 -0.0349 -0.3374 -0.6597
29831SOL     OW94339   9.354   9.187   2.174  0.1462  0.1412 -0.1350
29831SOL    HW194340   9.303   9.265   2.153  0.8072  0.6894  0.2861
29831SOL    HW294341   9.290   9.115   2.170 -0.5829  0.7696  0.0677
29832SOL     OW94342   8.969   7.673   2.978  0.4373  0.2864 -0.3336
29832SOL    HW194343   8.935   7.696   2.892 -1.0805  0.7161  0.3384
29832SOL    HW294344   8.896   7.630   3.022  1.2347 -0.0742  0.6864
29833SOL     OW94345   1.735   8.574   9.009  0.5199 -0.0582  0.2594
29833SOL    HW194346   1.641   8.592   8.999  0.0292 -2.7600 -1.0326
29833SOL    HW294347   1.771   8.590   8.922  0.7709 -1.2644  0.1252
29834SOL     OW94348   2.025   0.211   2.384  0.3289  0.3442  0.1617
29834SOL    HW194349   2.034   0.133   2.328  0.4251 -0.6116  1.4556
29834SOL    HW294350   1.957   0.263   2.342  1.8492  0.7110 -1.9951
29835SOL     OW94351   1.048   7.694   2.125 -0.3165  0.2363 -0.1278
29835SOL    HW194352   1.063   7.789   2.130 -1.7813  0.4222  1.9513
29835SOL    HW294353   0.977   7.678   2.187 -0.1809 -2.2250 -0.5282
29836SOL     OW94354   6.165   8.683   3.062 -0.2990 -0.4389 -0.8171
29836SOL    HW194355   6.149   8.734   2.983 -3.3265  0.2646  0.0905
29836SOL    HW294356   6.167   8.747   3.132 -2.1121 -1.3193  0.1185
29837SOL     OW94357   8.343   6.094   4.152 -0.4186  0.8088 -0.0874
29837SOL    HW194358   8.364   6.008   4.188  1.3938  0.4142 -1.9306
29837SOL    HW294359   8.340   6.080   4.057 -2.4269  2.3331 -0.3239
29838SOL     OW94360   8.628   8.115   4.582  0.1239  0.0937 -0.5409
29838SOL    HW194361   8.657   8.041   4.529  0.5087  0.2235 -0.5121
29838SOL    HW294362   8.602   8.076   4.666  0.4375  0.0057 -0.4848
29839SOL     OW94363   9.691   5.943   3.657  0.3565 -0.5280 -0.2558
29839SOL    HW194364   9.635   5.912   3.728  0.1865 -0.5281 -0.3896
29839SOL    HW294365   9.664   6.034   3.643  2.0671  0.3017  1.3454
29840SOL     OW94366   3.309   6.599   5.929  0.8836 -0.3679  0.0012
29840SOL    HW194367   3.359   6.669   5.971 -0.1090  0.7251 -0.5703
29840SOL    HW294368   3.365   6.569   5.857  0.6900  0.9384 -0.7234
29841SOL     OW94369   0.908   6.612   5.965  0.4986 -0.3829 -0.7057
29841SOL    HW194370   0.947   6.674   6.026  1.6156 -1.3548 -0.4061
29841SOL    HW294371   0.813   6.623   5.978  0.6987 -0.7503  1.3939
29842SOL     OW94372   9.133   0.273   4.592  0.3809  0.6998 -0.4033
29842SOL    HW194373   9.126   0.338   4.662  0.8575  1.6958 -1.2506
29842SOL    HW294374   9.083   0.312   4.519  0.9676  0.2853 -1.0388
29843SOL     OW94375   9.844   7.612   5.317 -0.0114 -0.3084  0.4211
29843SOL    HW194376   9.869   7.560   5.394  2.3505  1.5341  1.0299
29843SOL    HW294377   9.788   7.680   5.352  0.8082  0.3430  0.5046
29844SOL     OW94378   8.897   8.342   3.973  0.3119  0.6910 -0.0648
29844SOL    HW194379   8.945   8.367   4.052 -0.9724  0.2402  0.8792
29844SOL    HW294380   8.953   8.275   3.933  0.3701 -0.0504  1.1836
29845SOL     OW94381   8.869   9.177   3.601 -0.2832  0.1508  0.2272
29845SOL    HW194382   8.944   9.207   3.652  0.9219 -2.9773  0.5501
29845SOL    HW294383   8.899   9.175   3.511 -0.5901  0.5942  0.1138
29846SOL     OW94384   0.794   9.586   3.490  0.0966  0.2257 -0.6337
29846SOL    HW194385   0.755   9.556   3.572 -2.9107  0.6883 -1.7984
29846SOL    HW294386   0.886   9.602   3.512 -0.0721 -1.8517  2.0390
29847SOL     OW94387   8.737   8.422   3.604  0.2809 -0.0254 -0.4351
29847SOL    HW194388   8.821   8.383   3.629  0.0483 -1.6238 -1.9031
29847SOL    HW294389   8.758   8.477   3.528 -0.1920 -1.9186 -2.0306
29848SOL     OW94390   9.676   7.741   3.623 -0.2815 -0.1959  0.4632
29848SOL    HW194391   9.694   7.825   3.664  0.2858  0.2962 -0.7468
29848SOL    HW294392   9.662   7.761   3.531 -1.7195 -1.2498  0.4162
29849SOL     OW94393   9.080   6.974   5.540 -0.1273  0.2886 -0.0273
29849SOL    HW194394   9.115   6.970   5.451 -0.4175  1.2994 -0.2000
29849SOL    HW294395   9.079   6.883   5.570  0.9428  0.0478 -0.6727
29850SOL     OW94396   3.760   6.442   7.102  0.1687 -0.0776 -0.4565
29850SOL    HW194397   3.708   6.370   7.066  0.1288  0.1937 -0.9401
29850SOL    HW294398   3.819   6.399   7.165  0.2744 -0.5600 -0.8801
29851SOL     OW94399   0.343   9.431   4.770 -0.1050 -0.3664 -0.0219
29851SOL    HW194400   0.346   9.499   4.703 -0.0798  0.3905  0.7270
29851SOL    HW294401   0.292   9.360   4.730 -0.6791  0.3462 -0.5934
29852SOL     OW94402   0.101   8.713   4.507  0.0164 -0.0866  0.4780
29852SOL    HW194403   0.014   8.702   4.467  0.6152 -1.6384 -0.4550
29852SOL    HW294404   0.097   8.801   4.546 -1.4213  0.5431 -0.9384
29853SOL     OW94405   0.156   6.408   3.594 -0.6169 -0.1542 -0.1172
29853SOL    HW194406   0.177   6.399   3.687 -0.9387  1.1400  0.0911
29853SOL    HW294407   0.241   6.423   3.553 -0.4396 -1.0097 -0.0781
29854SOL     OW94408   1.297   9.802   5.597  0.4148  0.4439  0.1875
29854SOL    HW194409   1.281   9.854   5.676 -0.4491  2.3251 -1.1597
29854SOL    HW294410   1.393   9.800   5.589  0.5090  0.3417  1.1713
29855SOL     OW94411   0.028   7.878   5.138 -0.2015  0.0383  0.1510
29855SOL    HW194412  -0.038   7.831   5.190  1.0539  0.7469  2.4974
29855SOL    HW294413  -0.015   7.960   5.114 -1.0584 -0.6173 -0.6193
29856SOL     OW94414   3.265   8.101   5.817  0.0583  0.2329  0.2025
29856SOL    HW194415   3.274   8.186   5.860  0.1077  0.0128  0.6278
29856SOL    HW294416   3.341   8.051   5.847 -0.5478 -0.3355  0.8071
29857SOL     OW94417   7.647   8.553   3.824 -0.0519  0.0274 -0.0740
29857SOL    HW194418   7.655   8.598   3.908  0.6163  0.3048 -0.2866
29857SOL    HW294419   7.704   8.601   3.764 -1.5381  0.6737 -1.0494
29858SOL     OW94420   8.952   9.220   6.226 -0.5464  0.2605 -0.1846
29858SOL    HW194421   9.005   9.286   6.181 -0.5362  0.8227  0.6285
29858SOL    HW294422   9.001   9.138   6.216  0.8501  0.8917  1.1443
29859SOL     OW94423   1.896   6.732   7.006  0.3906  0.0093 -0.5392
29859SOL    HW194424   1.899   6.688   7.091  0.3581  0.5337 -0.2667
29859SOL    HW294425   1.854   6.668   6.948 -2.2323  0.6804  0.4622
29860SOL     OW94426   7.929   8.083   5.596 -0.3803 -0.4111 -0.2252
29860SOL    HW194427   7.963   8.108   5.510  0.3773  1.6289  0.6012
29860SOL    HW294428   7.885   8.162   5.628  0.9360 -0.5127  1.9975
29861SOL     OW94429   0.224   6.071   3.806  0.2657  1.3485 -0.1873
29861SOL    HW194430   0.181   6.060   3.891  1.0254  1.0772  0.1762
29861SOL    HW294431   0.293   6.004   3.806 -0.2773  0.7557 -1.3879
29862SOL     OW94432   1.094   6.712   4.212  0.1396 -0.3186  0.4173
29862SOL    HW194433   1.127   6.638   4.264 -1.3645 -0.5477  1.0904
29862SOL    HW294434   1.018   6.677   4.166  1.4084 -0.1114 -1.9875
29863SOL     OW94435   8.454   8.778   4.722 -0.0028  0.4684 -0.1542
29863SOL    HW194436   8.514   8.853   4.730  1.2583 -0.6950  2.4263
29863SOL    HW294437   8.492   8.711   4.778 -1.6613 -1.7802 -1.5671
29864SOL     OW94438   0.754   7.481   7.575  0.0381 -0.0337 -0.6141
29864SOL    HW194439   0.738   7.389   7.596  1.1275 -0.5476 -1.9394
29864SOL    HW294440   0.733   7.489   7.482 -1.6942  1.4878 -0.1534
29865SOL     OW94441   0.303   9.057   5.367 -0.3087 -0.0043  0.3591
29865SOL    HW194442   0.382   9.009   5.392 -0.5703  0.1922  1.6658
29865SOL    HW294443   0.306   9.060   5.271  0.4628 -1.3439  0.3056
29866SOL     OW94444   0.292   7.632   3.564 -0.2749  0.6467 -0.1739
29866SOL    HW194445   0.359   7.629   3.632  0.3636 -1.2364 -0.8160
29866SOL    HW294446   0.323   7.699   3.503  0.6033  0.3784 -0.0366
29867SOL     OW94447   9.147   6.674   5.058 -0.2785  0.4568 -0.1457
29867SOL    HW194448   9.118   6.634   5.140  0.3705 -0.3379 -0.2955
29867SOL    HW294449   9.080   6.741   5.040  0.3644  1.7110  1.8034
29868SOL     OW94450   0.487   6.777   7.813  0.6500  0.8750  0.2305
29868SOL    HW194451   0.472   6.870   7.829  0.7947  1.2466 -1.5590
29868SOL    HW294452   0.422   6.754   7.747 -0.2089 -0.6373  1.5324
29869SOL     OW94453   0.183   6.243   6.458 -0.2106  0.0004  0.7184
29869SOL    HW194454   0.126   6.177   6.497 -0.3862  1.6146  3.4705
29869SOL    HW294455   0.128   6.285   6.392 -0.7718 -1.2239  0.3792
29870SOL     OW94456   8.824   6.731   4.060 -0.1835  0.6183  0.0253
29870SOL    HW194457   8.919   6.719   4.059 -0.0190  1.7507  0.4808
29870SOL    HW294458   8.801   6.750   3.969 -0.0468 -0.0886 -0.1640
29871SOL     OW94459   1.034   7.706   5.595 -0.2128  0.6228  0.3897
29871SOL    HW194460   0.939   7.697   5.607 -0.1178 -0.2431  0.6196
29871SOL    HW294461   1.049   7.799   5.583 -1.2988  0.6011 -1.4406
29872SOL     OW94462   9.700   1.902   7.271 -0.4445  0.2281 -0.3035
29872SOL    HW194463   9.778   1.911   7.327  1.3422 -2.8340 -2.0138
29872SOL    HW294464   9.701   1.980   7.217 -0.5168  1.8283  1.8849
29873SOL     OW94465   8.439   9.080   4.822  0.2727 -0.8230 -0.0227
29873SOL    HW194466   8.444   9.152   4.885  0.4000  0.3446 -1.3290
29873SOL    HW294467   8.530   9.051   4.812  0.4394 -0.1017 -0.6713
29874SOL     OW94468   8.752   8.594   4.257  0.3972  0.2542 -0.3184
29874SOL    HW194469   8.705   8.604   4.340 -0.8503 -0.3820 -0.9269
29874SOL    HW294470   8.697   8.536   4.205  0.4788  1.6728 -2.1022
29875SOL     OW94471   9.287   0.697   3.554  0.0607  0.4644  0.1859
29875SOL    HW194472   9.305   0.718   3.645 -0.9229 -0.8865  0.7193
29875SOL    HW294473   9.257   0.606   3.555  0.5396  0.2315 -1.5488
29876SOL     OW94474   0.980   6.133   4.861  0.3524 -0.4443  0.0870
29876SOL    HW194475   0.934   6.098   4.784  0.5825 -0.6821  0.0549
29876SOL    HW294476   0.910   6.154   4.923 -0.0446  2.0722 -1.0892
29877SOL     OW94477   0.429   7.159   5.330  0.1114  0.6258  0.2547
29877SOL    HW194478   0.363   7.174   5.398 -0.9265  2.1415 -1.0074
29877SOL    HW294479   0.497   7.224   5.348  1.1238 -0.6788  1.3236
29878SOL     OW94480   9.199   8.304   3.453 -0.0567  0.0476 -0.3166
29878SOL    HW194481   9.189   8.276   3.362  1.1576  2.0215 -1.0938
29878SOL    HW294482   9.175   8.396   3.453  0.5065  0.2222  1.2709
29879SOL     OW94483   0.162   7.558   6.208 -0.4564 -0.2719  0.9205
29879SOL    HW194484   0.146   7.547   6.115 -0.6101  1.3345  0.7234
29879SOL    HW294485   0.080   7.533   6.250 -1.2405  1.2953  0.4141
29880SOL     OW94486   8.117   7.734   4.761 -0.0925  0.0784 -0.0553
29880SOL    HW194487   8.077   7.810   4.718 -0.5809 -0.7085 -1.0077
29880SOL    HW294488   8.063   7.719   4.838  1.2242  1.9640  1.3452
29881SOL     OW94489   7.699   5.716   5.747 -0.2194 -0.0783  0.1548
29881SOL    HW194490   7.734   5.632   5.775 -1.6841 -0.3596  1.1878
29881SOL    HW294491   7.700   5.711   5.651 -1.0417 -1.5845  0.2035
29882SOL     OW94492   7.857   9.663   5.810 -0.1665  0.1209  0.0917
29882SOL    HW194493   7.872   9.631   5.899  1.1712 -0.9791 -0.4905
29882SOL    HW294494   7.930   9.724   5.793  0.2960 -0.6179 -0.6619
29883SOL     OW94495   1.009   8.093   4.551  0.5351 -0.4893 -0.1491
29883SOL    HW194496   0.967   8.008   4.538 -0.6310  0.3009 -1.9237
29883SOL    HW294497   1.080   8.095   4.488 -1.7313  1.2176 -2.8704
29884SOL     OW94498   8.676   7.749   1.459 -0.5110 -0.2212  0.5762
29884SOL    HW194499   8.629   7.673   1.425 -0.4478 -0.0032 -0.0253
29884SOL    HW294500   8.620   7.823   1.436  0.7462  0.2023 -1.4558
29885SOL     OW94501   1.163   7.984   4.109 -0.2393 -0.0993 -0.0193
29885SOL    HW194502   1.154   7.937   4.026 -1.9582 -0.7288  0.4771
29885SOL    HW294503   1.074   7.988   4.144  0.5502 -0.6075  2.2073
29886SOL     OW94504   9.326   7.241   5.705 -0.4232  0.0176 -0.1509
29886SOL    HW194505   9.377   7.210   5.630  1.1007  1.4880  0.2037
29886SOL    HW294506   9.283   7.320   5.674  0.5784  0.8870  0.6200
29887SOL     OW94507   8.634   6.317   3.880  0.4245  0.2589  0.6690
29887SOL    HW194508   8.556   6.281   3.922  0.5307 -0.7795  0.0165
29887SOL    HW294509   8.656   6.254   3.812  0.4960  1.6909 -0.6976
29888SOL     OW94510   8.290   8.520   5.916  0.2139  0.2763 -0.0838
29888SOL    HW194511   8.356   8.494   5.980 -0.0285  0.6277  0.3157
29888SOL    HW294512   8.210   8.528   5.967  0.1340  1.0936 -0.3326
29889SOL     OW94513   8.919   8.912   8.242 -0.6355  0.2394 -0.2757
29889SOL    HW194514   8.953   8.968   8.311 -1.2589  1.3517 -0.8420
29889SOL    HW294515   8.923   8.965   8.163  0.0237 -0.9933 -1.1073
29890SOL     OW94516   9.570   6.843   5.322 -0.5050 -0.3251  0.2493
29890SOL    HW194517   9.522   6.925   5.321  1.1623  0.7082 -0.2742
29890SOL    HW294518   9.546   6.800   5.240 -0.3426  0.2964 -0.1309
29891SOL     OW94519   1.787   0.167   4.199  0.1774  0.3291  0.0829
29891SOL    HW194520   1.828   0.088   4.235 -3.2348 -1.1210  1.1985
29891SOL    HW294521   1.811   0.237   4.261 -0.2237 -0.7581  1.5163
29892SOL     OW94522   0.468   5.708   7.221 -0.1933  0.2760  0.5414
29892SOL    HW194523   0.487   5.801   7.212 -0.2787  0.2620  0.2052
29892SOL    HW294524   0.551   5.664   7.202 -0.7079  0.1785 -1.7124
29893SOL     OW94525   0.468   1.055   5.018 -0.3315 -0.2711 -0.1768
29893SOL    HW194526   0.506   1.105   4.946  1.2163 -0.2069  0.6620
29893SOL    HW294527   0.408   1.116   5.061 -1.1001 -0.2431 -1.2534
29894SOL     OW94528   0.749   5.850   2.800  0.6625 -0.3274 -0.3802
29894SOL    HW194529   0.819   5.898   2.756  1.0648 -1.5419 -1.1398
29894SOL    HW294530   0.673   5.860   2.743  1.0591 -1.5124 -1.1617
29895SOL     OW94531   8.603   9.257   3.697 -0.0830  0.2258 -0.0302
29895SOL    HW194532   8.693   9.234   3.673 -0.6068 -1.4224 -0.5753
29895SOL    HW294533   8.596   9.232   3.789  0.8617  3.2079  0.9653
29896SOL     OW94534   0.221   8.800   5.149 -0.0175 -0.0110 -0.9330
29896SOL    HW194535   0.260   8.887   5.155 -0.6492  0.2718 -0.7783
29896SOL    HW294536   0.237   8.760   5.234 -0.6122  0.3531 -0.6362
29897SOL     OW94537   9.646   9.674   4.658  0.1305 -0.2395  0.0070
29897SOL    HW194538   9.719   9.615   4.677  0.9915  1.2694  1.6621
29897SOL    HW294539   9.687   9.754   4.626 -0.9361 -0.0314 -0.9247
29898SOL     OW94540   8.806   8.482   5.011 -0.2127  0.3284 -0.3380
29898SOL    HW194541   8.880   8.529   5.048 -1.3916  0.5981  1.8275
29898SOL    HW294542   8.830   8.390   5.018 -0.2218  0.3936  0.7944
29899SOL     OW94543   9.785   5.810   5.288  0.5428 -0.1131  0.4726
29899SOL    HW194544   9.858   5.870   5.303 -0.7019  0.8733  3.3625
29899SOL    HW294545   9.712   5.867   5.266 -0.1249 -0.7407  1.0081
29900SOL     OW94546   8.442   7.761   4.424 -0.5588  0.5567 -0.1616
29900SOL    HW194547   8.391   7.826   4.472  0.9919  1.0862  0.8433
29900SOL    HW294548   8.525   7.805   4.406 -0.0191 -0.6645 -0.7185
29901SOL     OW94549   2.522   6.215   3.389  0.6293 -0.1271  0.1363
29901SOL    HW194550   2.572   6.180   3.462  1.8635  1.6010  0.1784
29901SOL    HW294551   2.544   6.158   3.315  3.0835  0.8308  0.0464
29902SOL     OW94552   9.035   8.737   4.203  0.0124  0.0825  0.1154
29902SOL    HW194553   9.069   8.683   4.132  0.6924  1.8742 -0.9929
29902SOL    HW294554   8.969   8.682   4.245  0.5560 -1.5295 -1.0378
29903SOL     OW94555   9.477   7.695   1.634 -0.2555  0.0742 -0.1052
29903SOL    HW194556   9.435   7.615   1.664  0.4399 -0.0173  0.6774
29903SOL    HW294557   9.566   7.690   1.670 -0.5505  1.7409  0.9748
29904SOL     OW94558   2.176   6.633   6.988  0.3596  0.6610  0.1266
29904SOL    HW194559   2.208   6.554   6.945  1.3050  0.5676  0.9573
29904SOL    HW294560   2.106   6.665   6.931 -0.9039 -1.4433  0.4182
29905SOL     OW94561   9.535   0.243   4.802  0.4077 -0.3627  0.2469
29905SOL    HW194562   9.585   0.270   4.725 -1.3200  1.4375 -0.3297
29905SOL    HW294563   9.468   0.184   4.769 -0.5654  0.6967  0.2578
29906SOL     OW94564   9.149   7.998   5.337  0.6385  0.2130  0.0661
29906SOL    HW194565   9.180   8.028   5.423 -0.8425  0.0279  0.6955
29906SOL    HW294566   9.088   7.927   5.357 -2.7339  2.6174 -0.7920
29907SOL     OW94567   8.988   8.426   4.300 -0.1754  0.0578  0.9501
29907SOL    HW194568   8.901   8.467   4.307 -0.1747 -0.1051  2.0255
29907SOL    HW294569   8.975   8.336   4.327 -0.1206 -0.6538 -1.1870
29908SOL     OW94570   1.710   8.449   4.195 -0.2737 -0.0373  0.4824
29908SOL    HW194571   1.679   8.501   4.120 -0.5103 -1.0173 -0.1219
29908SOL    HW294572   1.680   8.497   4.272 -1.3442  0.2103 -0.0714
29909SOL     OW94573   7.527   6.517   2.962 -0.3643  0.0618 -0.1632
29909SOL    HW194574   7.516   6.533   3.055 -0.0166 -2.0554  0.2988
29909SOL    HW294575   7.524   6.604   2.922 -0.5946  1.0091  1.7891
29910SOL     OW94576   9.243   5.513   3.471 -0.2388 -0.1328 -0.4995
29910SOL    HW194577   9.207   5.463   3.397  1.2891 -1.0751 -0.6697
29910SOL    HW294578   9.330   5.540   3.441  0.4179 -0.5495  0.9427
29911SOL     OW94579   8.751   7.801   4.738 -0.6739  0.4769 -0.6081
29911SOL    HW194580   8.739   7.814   4.644  0.1388  0.6537 -0.6987
29911SOL    HW294581   8.838   7.837   4.756  0.7630 -2.7253 -0.4611
29912SOL     OW94582   9.581   8.449   6.686 -0.1547  0.0800  0.0192
29912SOL    HW194583   9.645   8.488   6.744  1.1394 -0.3558 -1.0579
29912SOL    HW294584   9.588   8.499   6.605 -0.3359 -0.7266 -0.5078
29913SOL     OW94585   9.394   7.558   5.561  0.2650  0.2329  0.1047
29913SOL    HW194586   9.323   7.495   5.571  1.6227 -1.3567  0.2631
29913SOL    HW294587   9.414   7.558   5.468  0.5081  0.1553  0.1562
29914SOL     OW94588   1.295   8.449   5.661 -0.3533  0.1994 -0.2780
29914SOL    HW194589   1.375   8.426   5.613 -0.5595  0.9326 -0.9859
29914SOL    HW294590   1.327   8.492   5.740  0.0721 -2.8534  1.3533
29915SOL     OW94591   1.994   8.433   6.214 -0.2587  0.1066 -0.3424
29915SOL    HW194592   2.043   8.506   6.177 -0.0566 -0.1137 -0.5165
29915SOL    HW294593   1.908   8.469   6.234  0.2086  0.6928  0.6731
29916SOL     OW94594   9.590   7.466   7.599  0.4417  0.0934  0.0732
29916SOL    HW194595   9.591   7.419   7.516  0.1357 -0.3245  0.3010
29916SOL    HW294596   9.571   7.398   7.665  0.7495  0.4064  0.4881
29917SOL     OW94597   7.799   8.738   4.686  0.1496 -0.0062 -0.0219
29917SOL    HW194598   7.869   8.690   4.642  0.1470 -0.3537  0.3450
29917SOL    HW294599   7.783   8.814   4.631  1.8673  0.8937  0.6459
29918SOL     OW94600   8.699   0.427   8.833 -0.0588  0.0166  0.2275
29918SOL    HW194601   8.789   0.440   8.803  0.3866  0.5053  1.6927
29918SOL    HW294602   8.661   0.515   8.834 -0.2643 -0.0734  0.4673
29919SOL     OW94603   2.268   7.112   5.308  0.0393 -0.2227  0.5107
29919SOL    HW194604   2.255   7.199   5.344 -2.4086  0.2251 -1.2137
29919SOL    HW294605   2.310   7.127   5.223 -0.6888 -0.6678  0.0603
29920SOL     OW94606   8.996   8.354   6.856 -0.0971  0.3785  0.3745
29920SOL    HW194607   8.909   8.336   6.892  0.3794  0.9256  1.8497
29920SOL    HW294608   9.057   8.325   6.923  0.8098  2.2803  0.4391
29921SOL     OW94609   9.229   7.605   6.357  0.0232 -0.0091  0.0636
29921SOL    HW194610   9.289   7.540   6.319 -0.8708 -0.1406 -1.2116
29921SOL    HW294611   9.278   7.644   6.429  0.9521 -1.4043  0.2268
29922SOL     OW94612   1.987   8.942   7.411 -0.1035  0.0087 -0.3585
29922SOL    HW194613   1.969   8.868   7.353 -0.2497 -1.1190  1.0570
29922SOL    HW294614   2.082   8.946   7.416 -0.0834 -1.3760  1.0748
29923SOL     OW94615   1.753   7.076   6.013 -0.5779 -0.6058  0.0425
29923SOL    HW194616   1.761   7.067   5.918  0.1188  1.7010 -0.1756
29923SOL    HW294617   1.842   7.068   6.046 -0.6813 -0.4222  0.3780
29924SOL     OW94618   8.254   7.599   6.803 -0.1623 -0.1903  0.3018
29924SOL    HW194619   8.185   7.646   6.757  1.3900  0.9963 -0.9062
29924SOL    HW294620   8.301   7.667   6.851  1.1471 -0.7348 -0.1802
29925SOL     OW94621   0.619   8.773   7.830 -0.3439  0.2687 -0.6346
29925SOL    HW194622   0.682   8.830   7.786 -0.4855  0.8264 -0.1365
29925SOL    HW294623   0.579   8.721   7.760  1.3948 -0.8413 -0.8622
29926SOL     OW94624   1.401   7.086   5.038  0.3900 -0.3803  0.2891
29926SOL    HW194625   1.375   7.003   5.079  2.2171 -1.1465  0.0111
29926SOL    HW294626   1.401   7.068   4.944  2.4775 -0.6666  0.2885
29927SOL     OW94627   1.415   7.544   6.205  0.1036 -0.1527 -0.3490
29927SOL    HW194628   1.449   7.581   6.286  2.6559 -0.0615 -1.3417
29927SOL    HW294629   1.395   7.620   6.150  0.1454 -0.2134 -0.4497
29928SOL     OW94630   8.320   7.699   5.560  0.0060 -0.0290  0.0597
29928SOL    HW194631   8.249   7.752   5.524 -0.7020 -0.7734  0.3158
29928SOL    HW294632   8.348   7.643   5.488  0.1524  0.0743  0.0354
29929SOL     OW94633   7.916   8.260   7.118 -0.0544  0.5208 -0.1105
29929SOL    HW194634   7.945   8.171   7.095 -1.3796  0.3694 -1.3680
29929SOL    HW294635   7.975   8.318   7.070 -0.2502  0.2622 -0.6854
29930SOL     OW94636   8.561   8.534   8.266 -0.0274  0.5266  0.4469
29930SOL    HW194637   8.518   8.486   8.196 -0.9281 -0.4171  1.6084
29930SOL    HW294638   8.548   8.626   8.244 -2.3381  0.2769  0.5497
29931SOL     OW94639   8.974   7.043   7.364 -0.0657 -0.1511 -0.1340
29931SOL    HW194640   9.012   6.974   7.310 -0.5842 -0.6471  0.1176
29931SOL    HW294641   9.039   7.058   7.433 -0.1622 -0.7525  0.0991
29932SOL     OW94642   9.841   7.956   6.033  0.5090 -0.0110 -0.1230
29932SOL    HW194643   9.895   7.956   5.954  0.7371 -0.0812  0.0321
29932SOL    HW294644   9.849   8.046   6.067 -2.4663  1.1628 -2.1244
29933SOL     OW94645   8.100   9.035   5.511 -0.0161  0.6516  0.3227
29933SOL    HW194646   8.083   9.017   5.604 -2.6737  1.6150  0.0903
29933SOL    HW294647   8.093   9.130   5.503 -1.1069  0.4696 -1.0885
29934SOL     OW94648   6.777   6.147   6.395 -0.4117 -0.2170 -0.3481
29934SOL    HW194649   6.846   6.086   6.423 -0.3966  0.7512  1.8735
29934SOL    HW294650   6.822   6.207   6.335  0.4543 -0.1839  0.3148
29935SOL     OW94651   1.244   9.008   4.901  0.3191  0.2228  0.4688
29935SOL    HW194652   1.230   9.082   4.961 -0.8085 -0.5220  1.1574
29935SOL    HW294653   1.164   8.956   4.908  0.2644 -0.0235 -1.5127
29936SOL     OW94654   9.034   5.661   5.640  0.1986  0.1244 -0.2694
29936SOL    HW194655   9.044   5.756   5.638  1.6354  0.0823  1.9640
29936SOL    HW294656   8.945   5.645   5.608 -0.1043  2.1985 -0.5818
29937SOL     OW94657   8.843   7.298   7.296 -0.0538  0.5954 -0.2748
29937SOL    HW194658   8.764   7.247   7.313  0.0790 -0.3965 -2.3807
29937SOL    HW294659   8.916   7.240   7.319  0.0806  0.5131 -0.8911
29938SOL     OW94660   0.303   6.500   6.980 -0.1568 -0.0173 -0.1060
29938SOL    HW194661   0.295   6.426   6.919 -1.4886  0.0719 -0.0643
29938SOL    HW294662   0.252   6.473   7.056 -1.4934  1.3198 -0.4790
29939SOL     OW94663   1.705   8.414   6.630  0.4929  0.3657 -0.2936
29939SOL    HW194664   1.742   8.492   6.588 -0.0345  0.6352 -0.2546
29939SOL    HW294665   1.752   8.408   6.713  2.3098 -0.7711 -1.3316
29940SOL     OW94666   8.499   8.183   7.016 -0.0172 -0.1804  0.1399
29940SOL    HW194667   8.412   8.210   6.988 -0.2779  0.6681  1.6866
29940SOL    HW294668   8.494   8.087   7.018 -0.8109 -0.1554 -0.1198
29941SOL     OW94669   9.588   6.522   7.668 -0.3341 -0.0154  0.1726
29941SOL    HW194670   9.623   6.477   7.591  1.1491 -1.0969  1.4127
29941SOL    HW294671   9.619   6.612   7.659 -1.6637  0.3556 -1.3285
29942SOL     OW94672   0.822   7.225   6.147  0.0126  1.1298  0.0395
29942SOL    HW194673   0.735   7.262   6.157 -0.1656  0.3748  1.5224
29942SOL    HW294674   0.829   7.205   6.054 -2.3403 -1.0306  0.2172
29943SOL     OW94675   9.694   9.409   7.726 -0.1097 -0.5258  0.4860
29943SOL    HW194676   9.664   9.485   7.775 -1.0651  0.2306 -1.1841
29943SOL    HW294677   9.615   9.359   7.709  0.4287 -1.5966  1.0385
29944SOL     OW94678   2.311   9.128   8.068 -0.3734 -0.1548  0.1900
29944SOL    HW194679   2.353   9.197   8.119 -0.9096  0.5228 -0.2668
29944SOL    HW294680   2.375   9.057   8.067  0.2402  0.3782  0.5601
29945SOL     OW94681   1.993   8.189   6.367  0.5914 -0.2880  0.0091
29945SOL    HW194682   1.943   8.168   6.446  1.0323  0.7350  0.5761
29945SOL    HW294683   1.964   8.277   6.343  1.3622 -0.1000 -0.2552
29946SOL     OW94684   9.042   6.490   5.347 -0.0211 -0.0040 -0.1214
29946SOL    HW194685   9.057   6.401   5.316 -0.2943  0.1411 -0.6793
29946SOL    HW294686   9.124   6.513   5.392 -0.1278 -0.6992  0.4398
29947SOL     OW94687   9.633   7.608   6.093  0.0048  0.6097 -0.3362
29947SOL    HW194688   9.700   7.625   6.026  0.7944  0.5460  0.4179
29947SOL    HW294689   9.630   7.687   6.146  1.2155 -0.2164  1.0708
29948SOL     OW94690   8.815   1.145   7.731  0.0812  0.7133  0.4752
29948SOL    HW194691   8.811   1.056   7.696 -0.8833  1.1789 -0.6899
29948SOL    HW294692   8.782   1.200   7.660  0.5781  1.9985  1.2062
29949SOL     OW94693   8.158   5.044   7.107 -0.2370 -0.0837 -0.1169
29949SOL    HW194694   8.238   5.001   7.079 -1.2255 -0.7804 -2.1294
29949SOL    HW294695   8.148   5.021   7.199  1.3833 -0.7451 -0.0805
29950SOL     OW94696   7.899   8.736   5.151 -0.1006 -0.4024  0.3306
29950SOL    HW194697   7.872   8.707   5.238 -0.3872  0.1062  0.4131
29950SOL    HW294698   7.893   8.831   5.154  2.2617 -0.1925  0.5530
29951SOL     OW94699   8.615   7.113   6.366  0.9314  0.0149 -0.6686
29951SOL    HW194700   8.654   7.179   6.424 -0.2176 -0.5122  0.7765
29951SOL    HW294701   8.538   7.156   6.330  0.9516 -0.0743 -0.8181
29952SOL     OW94702   9.646   7.864   7.892  0.0245 -0.3157 -0.2493
29952SOL    HW194703   9.601   7.792   7.848 -0.1562 -0.1329 -0.3651
29952SOL    HW294704   9.739   7.852   7.870  0.0902 -0.9404  0.3449
29953SOL     OW94705   3.034   7.623   5.729 -0.2360  0.4910  0.2554
29953SOL    HW194706   2.990   7.701   5.762 -1.1370  0.1293 -0.0424
29953SOL    HW294707   2.962   7.562   5.709  0.4632 -0.7389  1.2998
29954SOL     OW94708   9.035   6.412   6.737  0.0354 -0.5326  0.4330
29954SOL    HW194709   9.108   6.362   6.701  0.9531  0.1432  1.3186
29954SOL    HW294710   9.006   6.362   6.812 -0.0106 -0.4898  0.4441
29955SOL     OW94711   8.559   8.978   3.948  0.0315  0.0547 -1.1313
29955SOL    HW194712   8.608   8.899   3.973  1.0103  0.5221 -1.5192
29955SOL    HW294713   8.626   9.040   3.921 -0.6785  1.2312 -0.2936
29956SOL     OW94714   5.986   0.423   4.558 -0.1871  0.3858 -0.0303
29956SOL    HW194715   5.893   0.430   4.577 -0.1181  1.8271 -0.1524
29956SOL    HW294716   5.993   0.437   4.464  0.2441  1.5099  0.1476
29957SOL     OW94717   8.058   9.509   8.228 -0.0953  0.0392  0.0589
29957SOL    HW194718   8.114   9.450   8.279 -1.6432 -0.6669  1.0198
29957SOL    HW294719   7.995   9.452   8.185  0.0945  0.7928 -1.2612
29958SOL     OW94720   8.764   8.904   3.593 -0.1917 -0.2204 -0.2804
29958SOL    HW194721   8.733   8.879   3.506 -1.4042 -1.0958  0.3792
29958SOL    HW294722   8.800   8.992   3.581 -0.8448 -0.1064 -1.5517
29959SOL     OW94723   9.530   9.330   4.901  0.2471 -0.5808  0.0056
29959SOL    HW194724   9.614   9.374   4.912  0.3558 -0.7863 -0.0009
29959SOL    HW294725   9.465   9.399   4.917  0.4173 -0.2459 -0.7184
29960SOL     OW94726   8.648   8.706   6.861 -0.2202  0.4296 -0.1697
29960SOL    HW194727   8.614   8.616   6.866 -0.6250  0.5258 -1.1143
29960SOL    HW294728   8.657   8.732   6.953 -1.9511  0.1183  0.1284
29961SOL     OW94729   0.885   6.269   4.607  0.0601  0.3273 -0.5517
29961SOL    HW194730   0.974   6.267   4.572  0.3886  0.6986  0.2251
29961SOL    HW294731   0.865   6.362   4.617 -0.9768  0.3032 -2.0568
29962SOL     OW94732   9.045   9.545   8.234  0.6846 -0.1855 -0.2525
29962SOL    HW194733   9.030   9.636   8.210  0.1833 -0.1112  0.3103
29962SOL    HW294734   8.957   9.510   8.250  0.9256 -0.5427  0.3301
29963SOL     OW94735   8.619   7.771   6.532 -0.1445 -0.5877 -0.1826
29963SOL    HW194736   8.641   7.729   6.449 -0.3544 -3.1804  0.9772
29963SOL    HW294737   8.703   7.786   6.575 -0.0668  0.2777 -0.6108
29964SOL     OW94738   9.538   8.719   5.939  0.0033 -0.6384  0.2798
29964SOL    HW194739   9.561   8.771   6.016  1.7682 -0.4844 -0.2889
29964SOL    HW294740   9.577   8.767   5.866 -0.2326 -1.6204 -0.5110
29965SOL     OW94741   8.554   8.084   7.467  0.2474  0.4363  0.2733
29965SOL    HW194742   8.558   8.136   7.548  0.4844 -0.0445  0.5704
29965SOL    HW294743   8.579   8.146   7.398  0.2403  0.7972  0.5888
29966SOL     OW94744   8.604   7.276   6.772  0.5118 -0.3505 -0.4107
29966SOL    HW194745   8.624   7.334   6.699  0.5742 -0.4567 -0.4781
29966SOL    HW294746   8.511   7.290   6.790  0.5556 -0.1434 -0.3522
29967SOL     OW94747   2.783   8.708   5.571  0.1104 -0.2417  0.5294
29967SOL    HW194748   2.697   8.733   5.537 -0.4338 -0.7902  1.4468
29967SOL    HW294749   2.771   8.704   5.666  1.0112 -0.8311  0.6345
29968SOL     OW94750   7.795   6.324   5.367  0.0059  0.2501 -0.3460
29968SOL    HW194751   7.835   6.389   5.311 -0.8760  1.4920  0.4135
29968SOL    HW294752   7.861   6.255   5.376  0.2018  0.0375 -2.7968
29969SOL     OW94753   8.031   9.741   6.912 -0.7757  0.5355  0.5649
29969SOL    HW194754   8.125   9.724   6.906 -0.9267 -0.1738  0.0802
29969SOL    HW294755   8.013   9.741   7.006 -0.1384  1.5819  0.6998
29970SOL     OW94756   0.361   7.784   6.014  0.3809  0.0843  0.2492
29970SOL    HW194757   0.328   7.874   6.005  0.4252  0.2108  1.1744
29970SOL    HW294758   0.283   7.731   6.032  0.1305 -0.3589 -1.9005
29971SOL     OW94759   8.674   9.210   6.263 -0.4189  0.5759 -0.1429
29971SOL    HW194760   8.681   9.169   6.349 -0.4683 -1.6106 -1.1138
29971SOL    HW294761   8.760   9.249   6.248 -0.4541  1.1002  0.9273
29972SOL     OW94762   2.007   7.816   8.006 -0.0049  0.0831 -0.0660
29972SOL    HW194763   1.964   7.900   8.014 -0.7456 -0.3396  0.4626
29972SOL    HW294764   2.022   7.787   8.096 -1.6196 -1.2733 -0.1954
29973SOL     OW94765   1.551   8.713   7.003 -0.2710  0.0576  0.2687
29973SOL    HW194766   1.582   8.703   7.093  2.4114  1.0308 -0.4562
29973SOL    HW294767   1.496   8.636   6.987  1.6102 -1.7098  1.7981
29974SOL     OW94768   8.973   8.212   4.676  0.1909 -0.8143 -0.0820
29974SOL    HW194769   8.947   8.120   4.677  0.4720 -0.9859 -2.4925
29974SOL    HW294770   8.898   8.258   4.638  0.1036 -0.0576  0.9841
29975SOL     OW94771   9.407   9.678   9.355  0.0471  0.3458 -0.1807
29975SOL    HW194772   9.367   9.667   9.441 -0.6067  0.3138 -0.4830
29975SOL    HW294773   9.334   9.674   9.294  0.5389  0.0717 -0.7635
29976SOL     OW94774   1.416   8.493   6.930  0.2327 -0.0907  0.5841
29976SOL    HW194775   1.363   8.416   6.950  1.3402 -0.7589  1.0326
29976SOL    HW294776   1.411   8.502   6.835 -0.9946  0.1052  0.6512
29977SOL     OW94777   0.864   8.571   4.485  0.0134  0.4044  0.0393
29977SOL    HW194778   0.935   8.513   4.458  1.1906  1.6518  0.3344
29977SOL    HW294779   0.850   8.550   4.578  1.9023  1.9513  0.7554
29978SOL     OW94780   9.840   7.334   5.112  0.9154  0.6293  0.0787
29978SOL    HW194781   9.745   7.332   5.122  1.0358  1.7753  1.9700
29978SOL    HW294782   9.862   7.248   5.077 -0.9193  0.8423 -1.8047
29979SOL     OW94783   8.289   7.451   7.255  0.3618 -0.0568  0.2324
29979SOL    HW194784   8.208   7.400   7.261  0.1280  0.3741  0.8489
29979SOL    HW294785   8.304   7.462   7.161 -0.3561 -0.0563  0.1149
29980SOL     OW94786   1.006   8.047   7.610  0.1665  0.3135  0.2207
29980SOL    HW194787   0.978   7.956   7.607  1.4304 -0.2067  2.0593
29980SOL    HW294788   1.058   8.053   7.690  2.7997  1.8827 -1.4734
29981SOL     OW94789   8.938   0.793   8.220  0.0786 -0.5216  0.6445
29981SOL    HW194790   9.000   0.730   8.184 -0.4332 -0.4947 -0.3353
29981SOL    HW294791   8.991   0.870   8.241  0.3752 -0.4444 -0.3294
29982SOL     OW94792   6.161   8.469   7.154  0.5045 -0.3584 -0.3892
29982SOL    HW194793   6.107   8.493   7.230  2.1014  0.2224  0.6208
29982SOL    HW294794   6.114   8.503   7.079 -0.4614  0.2589  0.4678
29983SOL     OW94795   1.335   8.280   7.577  0.3884 -0.0394 -0.3983
29983SOL    HW194796   1.379   8.201   7.546  0.7389  0.2082 -0.5396
29983SOL    HW294797   1.395   8.318   7.640  0.8624  0.8618 -1.3664
29984SOL     OW94798   0.470   0.561   9.070  0.3736  0.1652 -0.4044
29984SOL    HW194799   0.547   0.552   9.126  0.9514 -0.2040 -1.2538
29984SOL    HW294800   0.482   0.497   9.001 -0.7682  0.0077 -0.4802
29985SOL     OW94801   0.115   7.262   0.334  0.2528 -0.5154 -0.2095
29985SOL    HW194802   0.077   7.334   0.284  0.2984  0.9615  1.7750
29985SOL    HW294803   0.206   7.258   0.306  0.3519  0.4841 -0.0729
29986SOL     OW94804   0.745   8.818   8.903 -0.1647  0.0184 -0.4942
29986SOL    HW194805   0.762   8.732   8.940  1.8878  1.1663  1.4915
29986SOL    HW294806   0.826   8.841   8.858  0.3127  1.8541  1.1450
29987SOL     OW94807   9.377   9.772   6.833  0.0228  0.0342  0.0027
29987SOL    HW194808   9.459   9.800   6.874 -0.3731  2.4791 -0.6961
29987SOL    HW294809   9.312   9.778   6.904 -0.4056  2.9354 -0.5189
29988SOL     OW94810   8.364   0.541   8.800  0.3978 -0.0870 -0.0202
29988SOL    HW194811   8.370   0.628   8.760 -0.8409  0.4125  0.8070
29988SOL    HW294812   8.403   0.482   8.736  1.8262  1.1491 -0.3298
29989SOL     OW94813   0.949   9.838   7.770  0.0415  0.4120  0.6994
29989SOL    HW194814   0.882   9.770   7.770  0.7451 -0.3062 -0.1116
29989SOL    HW294815   0.912   9.907   7.715  1.2486 -1.3962 -2.7182
29990SOL     OW94816   8.592   8.621   8.843 -0.0334 -0.0787 -0.1234
29990SOL    HW194817   8.663   8.677   8.812 -0.7268  1.6065  1.1909
29990SOL    HW294818   8.536   8.609   8.766  0.5927  0.2689 -0.6428
29991SOL     OW94819   1.478   0.621   7.458 -0.3470  0.8832  0.5998
29991SOL    HW194820   1.526   0.631   7.376  1.8592  1.8021  1.9069
29991SOL    HW294821   1.515   0.688   7.516 -1.8831  0.3251  2.3233
29992SOL     OW94822   9.832   9.129   0.660  0.3323 -0.6444 -0.0087
29992SOL    HW194823   9.863   9.039   0.670  1.1246 -0.5033 -1.0069
29992SOL    HW294824   9.821   9.161   0.750 -3.2549 -2.7832  0.4658
29993SOL     OW94825   0.955   9.015   5.561 -0.0104 -0.3770  0.1826
29993SOL    HW194826   0.992   9.013   5.649 -0.0604  0.5070  0.2331
29993SOL    HW294827   0.974   9.103   5.529 -0.1540 -0.6323 -0.6222
29994SOL     OW94828   7.596   9.250   9.361 -0.0114 -0.3249  0.1469
29994SOL    HW194829   7.538   9.243   9.286 -0.1494  0.4568  0.1761
29994SOL    HW294830   7.681   9.272   9.323 -0.6929  3.2284  0.3446
29995SOL     OW94831   0.018   8.385   8.768 -0.0963  0.6206 -0.2718
29995SOL    HW194832   0.011   8.434   8.850  0.6048  0.3896 -0.0712
29995SOL    HW294833   0.107   8.401   8.738 -0.3530  0.7252 -1.0089
29996SOL     OW94834   8.508   8.785   8.106  0.1041 -0.1734 -0.9974
29996SOL    HW194835   8.417   8.770   8.079  1.1423 -1.9845 -3.9330
29996SOL    HW294836   8.525   8.876   8.084 -1.0391  0.2763 -0.1262
29997SOL     OW94837   6.407   6.900   8.822 -0.2042  0.1805 -0.4299
29997SOL    HW194838   6.502   6.902   8.833 -0.0338  0.3959 -1.7042
29997SOL    HW294839   6.392   6.952   8.743 -1.4440  0.6864  0.1180
29998SOL     OW94840   9.778   9.398   0.769  1.1054  0.4229 -0.2520
29998SOL    HW194841   9.743   9.440   0.847 -0.4085  1.3537 -1.3829
29998SOL    HW294842   9.839   9.332   0.803 -1.0438 -0.6510  1.7935
29999SOL     OW94843   1.150   8.197   7.784 -0.4045  0.1878  0.3843
29999SOL    HW194844   1.217   8.236   7.729  0.8297  0.7857  2.2252
29999SOL    HW294845   1.130   8.264   7.850 -0.4751 -1.1363  1.7741
30000SOL     OW94846   1.232   9.619   9.473  0.8243  0.1831  0.2824
30000SOL    HW194847   1.310   9.663   9.439  0.5510  1.8297  1.6774
30000SOL    HW294848   1.231   9.640   9.566 -0.7459 -0.6518  0.4894
30001SOL     OW94849   8.660   0.258   9.063 -0.2042 -0.3102 -0.4230
30001SOL    HW194850   8.736   0.234   9.117 -1.5552 -0.2789  1.6100
30001SOL    HW294851   8.681   0.345   9.030  1.8864 -1.4535 -2.3980
30002SOL     OW94852   0.710   0.603   8.623 -0.5263  0.0415  0.0454
30002SOL    HW194853   0.711   0.681   8.679 -0.9875 -0.9901  1.5424
30002SOL    HW294854   0.758   0.630   8.545  1.5719  1.0556  1.5742
30003SOL     OW94855   0.533   6.153   8.440 -0.0001 -0.1573  1.0433
30003SOL    HW194856   0.499   6.101   8.513 -2.8678  1.1610  0.7988
30003SOL    HW294857   0.543   6.241   8.477 -2.5526  0.7942 -0.2597
30004SOL     OW94858   8.945   1.191   5.060 -0.3322  0.8927 -0.3933
30004SOL    HW194859   9.013   1.124   5.069 -1.1121  0.0386 -0.7207
30004SOL    HW294860   8.988   1.272   5.086  0.7315  0.3217 -0.3193
30005SOL     OW94861   2.997   5.318   6.932 -0.2015  0.0666 -0.2008
30005SOL    HW194862   3.052   5.282   6.863  1.6898 -1.6527  2.0270
30005SOL    HW294863   3.025   5.410   6.940  2.0728 -0.6098  0.4744
30006SOL     OW94864   0.421   7.046   8.916  0.2640 -0.2863  0.4491
30006SOL    HW194865   0.510   7.037   8.948  0.3733 -0.7443  0.0294
30006SOL    HW294866   0.370   6.984   8.967  0.6989 -2.1237 -1.2173
30007SOL     OW94867   1.467   0.223   6.736 -0.0337 -0.1274 -0.3747
30007SOL    HW194868   1.489   0.198   6.825 -0.2990 -0.4885 -0.4079
30007SOL    HW294869   1.509   0.157   6.681 -2.0603 -1.4713 -0.3888
30008SOL     OW94870   1.706   9.122   7.489  0.7209  0.1707 -0.1780
30008SOL    HW194871   1.626   9.143   7.441 -0.1141 -3.6896 -0.8031
30008SOL    HW294872   1.677   9.111   7.580  1.3872  2.4957  0.4047
30009SOL     OW94873   1.561   7.193   8.212 -0.1172  0.2178 -0.4638
30009SOL    HW194874   1.619   7.263   8.243 -0.9268  0.5385  0.3624
30009SOL    HW294875   1.619   7.133   8.165  0.9144  0.4581  0.4682
30010SOL     OW94876   9.634   7.249   7.439 -0.7518 -0.2310 -0.1082
30010SOL    HW194877   9.644   7.241   7.534 -2.1898 -1.1664 -0.0187
30010SOL    HW294878   9.562   7.190   7.417 -1.0994  0.7222 -1.6538
30011SOL     OW94879   0.389   6.971   8.608  0.5819 -0.0931  0.0075
30011SOL    HW194880   0.436   7.051   8.629 -0.2634  0.4825 -0.2345
30011SOL    HW294881   0.368   6.932   8.693  2.6092 -1.0640  0.1211
30012SOL     OW94882   0.970   7.590   6.904  1.0435 -0.5030 -0.4137
30012SOL    HW194883   0.883   7.577   6.940  1.2283 -1.4589 -0.2894
30012SOL    HW294884   0.956   7.623   6.816  0.5768  1.5842  0.3803
30013SOL     OW94885   9.708   8.898   7.648  0.9838 -0.1343 -0.1686
30013SOL    HW194886   9.620   8.891   7.685  0.4548  1.9519 -0.8955
30013SOL    HW294887   9.701   8.856   7.562  0.6328  0.1427 -0.2808
30014SOL     OW94888   8.371   7.000   8.682 -0.1852  0.1320 -0.5026
30014SOL    HW194889   8.309   7.067   8.712  1.1655  0.7034  1.2145
30014SOL    HW294890   8.399   7.030   8.596 -0.4317  1.1946 -0.2262
30015SOL     OW94891   8.250   5.613   0.193 -0.6826  0.3090 -0.0689
30015SOL    HW194892   8.332   5.661   0.181  0.3503 -0.9430  1.5365
30015SOL    HW294893   8.210   5.612   0.106  1.1326  0.7290 -0.9613
30016SOL     OW94894   9.459   0.587   6.260  0.2481  0.3324 -0.1439
30016SOL    HW194895   9.439   0.603   6.353 -0.8352  0.6202 -0.4069
30016SOL    HW294896   9.509   0.664   6.233 -1.1421  1.2191 -0.2805
30017SOL     OW94897   0.230   9.615   0.616 -0.1202  0.0887  0.4968
30017SOL    HW194898   0.180   9.639   0.537 -0.3688  0.7207  0.8392
30017SOL    HW294899   0.318   9.649   0.599  0.5533 -2.0237 -0.6038
30018SOL     OW94900   8.947   7.865   6.410 -0.1057 -0.0206  0.7265
30018SOL    HW194901   9.014   7.880   6.343 -0.4774 -0.9837  0.1078
30018SOL    HW294902   8.971   7.922   6.482  0.5463  0.7348 -0.0704
30019SOL     OW94903   8.492   7.814   6.120 -0.1471 -0.0319  0.1464
30019SOL    HW194904   8.564   7.786   6.064 -1.8250  1.0600 -2.7552
30019SOL    HW294905   8.533   7.871   6.185  1.7528 -0.3982 -0.6649
30020SOL     OW94906   8.672   5.981   7.115 -0.3411 -0.2596 -0.0325
30020SOL    HW194907   8.654   5.898   7.160  2.0080 -0.4694  0.6657
30020SOL    HW294908   8.754   5.966   7.068  0.4403  1.7780  0.5409
30021SOL     OW94909   9.250   0.372   9.456  0.5013 -0.1501 -0.4317
30021SOL    HW194910   9.314   0.352   9.524 -0.7402 -0.4853  0.6659
30021SOL    HW294911   9.303   0.403   9.382  1.8554  0.7213  0.8492
30022SOL     OW94912   8.549   7.196   0.004 -0.0106 -0.3219  0.5506
30022SOL    HW194913   8.517   7.130  -0.058 -0.3386  2.2737 -2.2637
30022SOL    HW294914   8.553   7.150   0.088 -3.1071 -3.0921 -0.6016
30023SOL     OW94915   3.969   0.725   7.432 -0.2055  0.0913 -0.2457
30023SOL    HW194916   3.985   0.765   7.346 -0.5342 -0.0674 -0.3854
30023SOL    HW294917   4.051   0.737   7.480  0.2646 -0.5306 -0.8630
30024SOL     OW94918   8.963   8.038   7.458 -0.4033  0.0782  0.1082
30024SOL    HW194919   9.024   8.108   7.485  2.9769 -2.5650  0.0380
30024SOL    HW294920   9.002   8.001   7.379 -1.4634 -2.5229  0.6965
30025SOL     OW94921   9.211   9.542   0.688  0.6112 -0.0278  0.4209
30025SOL    HW194922   9.261   9.510   0.613  0.0211  0.7981 -0.3342
30025SOL    HW294923   9.271   9.530   0.762  1.6477  0.2388 -0.3418
30026SOL     OW94924   0.447   9.159   8.780 -0.0067  0.5236  0.0730
30026SOL    HW194925   0.420   9.242   8.819 -2.5049 -0.8058  1.4343
30026SOL    HW294926   0.413   9.163   8.690 -1.8883  0.2434  0.7361
30027SOL     OW94927   0.780   9.418   7.892 -0.0363  0.3684 -0.7060
30027SOL    HW194928   0.728   9.343   7.923  1.6438 -1.3264 -1.7570
30027SOL    HW294929   0.790   9.474   7.969 -0.7284 -0.8616  0.3157
30028SOL     OW94930   0.336   8.771   7.270 -0.9679  0.1971 -0.0201
30028SOL    HW194931   0.409   8.809   7.221 -1.2256  2.0710  0.9622
30028SOL    HW294932   0.376   8.701   7.321 -0.4140 -0.7273 -1.6463
30029SOL     OW94933   2.513   9.106   9.390  0.1700  0.0180 -0.2005
30029SOL    HW194934   2.466   9.045   9.333  0.7415 -0.1005 -0.5602
30029SOL    HW294935   2.489   9.193   9.357 -0.0099 -0.0344 -0.2084
30030SOL     OW94936   8.989   6.737   8.210  0.2782 -0.1872  0.6691
30030SOL    HW194937   8.941   6.779   8.282 -0.5741  1.3454 -0.7126
30030SOL    HW294938   8.942   6.765   8.131  1.5907 -1.2538 -0.5395
30031SOL     OW94939   8.958   8.300   9.072 -0.4465  0.8398  0.3420
30031SOL    HW194940   9.039   8.265   9.108 -1.9237 -1.8202  1.2776
30031SOL    HW294941   8.977   8.393   9.056  2.3587  0.5735  1.6575
30032SOL     OW94942   0.414   8.953   9.505  0.5303  0.0502  0.3085
30032SOL    HW194943   0.368   8.874   9.476 -0.9375  1.2742 -0.8277
30032SOL    HW294944   0.393   9.019   9.439  3.2565  0.9281  0.2286
30033SOL     OW94945   0.105   9.124   9.270 -0.1293 -0.2943  0.3044
30033SOL    HW194946   0.114   9.034   9.239  0.6899 -0.2522  0.4045
30033SOL    HW294947   0.194   9.149   9.296 -0.2362  0.7637 -0.3298
30034SOL     OW94948   0.335   9.076   7.323  0.0263  0.6636  0.6824
30034SOL    HW194949   0.264   9.083   7.386  0.1329 -0.9377  1.0159
30034SOL    HW294950   0.411   9.114   7.369  0.4062 -1.6045  2.0632
30035SOL     OW94951   8.801   9.008   9.467 -0.0751  0.1466  0.0919
30035SOL    HW194952   8.801   9.072   9.538  2.3619 -0.1585  0.4477
30035SOL    HW294953   8.835   9.056   9.392 -0.0815 -0.2365 -0.1578
30036SOL     OW94954   0.977   9.485   9.617 -0.5591  0.1841  0.0824
30036SOL    HW194955   0.949   9.506   9.706 -1.7677  1.4972 -0.5601
30036SOL    HW294956   1.072   9.498   9.618 -0.5017 -0.2107  1.2680
30037SOL     OW94957   7.636   7.869   9.526  0.1014 -0.0604  0.6341
30037SOL    HW194958   7.635   7.958   9.492  2.4095  0.3391  1.3945
30037SOL    HW294959   7.550   7.857   9.566  0.1733  2.3163  1.6613
30038SOL     OW94960   0.013   8.554   7.385  0.6112 -0.0199  0.0408
30038SOL    HW194961   0.085   8.491   7.392  0.6903 -0.1107 -1.3113
30038SOL    HW294962  -0.056   8.519   7.442  0.9140 -0.9662 -0.1634
30039SOL     OW94963   9.586   0.257   9.403 -1.0640  0.0146  0.6075
30039SOL    HW194964   9.677   0.280   9.382 -1.1174  1.3937  1.6992
30039SOL    HW294965   9.551   0.222   9.322 -0.0494  1.1312 -0.3615
30040SOL     OW94966   9.055   9.277   9.472 -0.8550  0.3229 -0.2812
30040SOL    HW194967   9.083   9.200   9.523  1.9306  1.3406 -0.0645
30040SOL    HW294968   9.020   9.337   9.537  0.3222  0.6046  0.1296
30041SOL     OW94969   8.265   1.404   7.465 -0.3852 -0.6246 -0.0719
30041SOL    HW194970   8.301   1.437   7.382  0.2646 -1.7631 -0.2535
30041SOL    HW294971   8.328   1.339   7.494  0.0815  0.6584  2.0056
30042SOL     OW94972   0.746   6.581   8.576  0.2898 -0.6386  0.7471
30042SOL    HW194973   0.837   6.550   8.570  0.3681 -0.2781  0.0474
30042SOL    HW294974   0.754   6.676   8.580 -0.0597 -0.6119  0.8178
30043SOL     OW94975   9.016   0.453   8.188  1.0754  0.2435  0.4847
30043SOL    HW194976   9.008   0.364   8.154  1.0292  0.0113  1.0951
30043SOL    HW294977   9.043   0.442   8.279  0.7513  0.8431  0.6592
30044SOL     OW94978   9.133   9.804   7.054 -0.5036  0.3142  0.0124
30044SOL    HW194979   9.166   9.722   7.018  2.6134  0.8291  1.3410
30044SOL    HW294980   9.146   9.796   7.149 -1.8496  1.6622  0.3643
30045SOL     OW94981   1.055   8.484   8.382 -0.2969 -0.6234 -0.2600
30045SOL    HW194982   1.066   8.549   8.312  1.0783  0.6319  1.0393
30045SOL    HW294983   1.139   8.437   8.384 -0.0087 -0.0851  1.0616
30046SOL     OW94984   7.241   9.368   8.783 -0.5769 -0.1629 -0.0214
30046SOL    HW194985   7.276   9.441   8.835 -2.0365  1.3774 -1.1012
30046SOL    HW294986   7.319   9.325   8.747  0.3469  0.4982  1.1004
30047SOL     OW94987   9.264   7.127   7.198 -0.3835 -0.0566 -0.1503
30047SOL    HW194988   9.192   7.187   7.180  0.0806  0.6609  0.3373
30047SOL    HW294989   9.227   7.040   7.183 -2.0787  0.1174  2.4119
30048SOL     OW94990   7.475   9.854   9.084 -0.3873  0.3618 -0.3086
30048SOL    HW194991   7.389   9.893   9.068  0.1449  1.0281 -1.6755
30048SOL    HW294992   7.455   9.764   9.110 -1.6079  1.3222  2.4082
30049SOL     OW94993   9.396   7.844   0.796  0.0224 -0.3927 -0.5261
30049SOL    HW194994   9.358   7.757   0.784  2.3102 -1.4518 -0.5934
30049SOL    HW294995   9.439   7.840   0.881  0.7136  0.4391 -0.8214
30050SOL     OW94996   8.341   7.174   9.188 -0.2696 -0.0337  0.4909
30050SOL    HW194997   8.311   7.169   9.279 -1.1722 -1.0666  0.1493
30050SOL    HW294998   8.337   7.084   9.156 -1.3101  0.5025 -0.9965
30051SOL     OW94999   7.353   0.209   7.489  0.3747  0.2038  0.0425
30051SOL    HW195000   7.445   0.212   7.513  0.0186  1.0057  1.4271
30051SOL    HW295001   7.353   0.204   7.393  1.8515 -1.4720  0.0796
30052SOL     OW95002   8.153   8.842   5.304  0.1539 -0.0056 -0.7868
30052SOL    HW195003   8.094   8.770   5.327  0.8470 -0.6161 -0.8766
30052SOL    HW295004   8.150   8.900   5.380  0.5135 -0.7426 -0.1923
30053SOL     OW95005   9.549   9.169   6.662 -0.7888 -0.2660 -0.4161
30053SOL    HW195006   9.464   9.125   6.670 -2.3886  2.5040 -0.7720
30053SOL    HW295007   9.598   9.141   6.739 -2.4317 -1.1591  0.3505
30054SOL     OW95008   2.060   5.513   2.300 -0.1467  0.7142  0.1562
30054SOL    HW195009   1.982   5.474   2.260  0.7648  0.7230 -1.7582
30054SOL    HW295010   2.046   5.504   2.394 -1.5948 -0.9961 -0.1652
30055SOL     OW95011   7.462   0.644   2.227 -0.5547 -0.0110 -0.0684
30055SOL    HW195012   7.371   0.616   2.225 -0.9915  1.2246  1.0947
30055SOL    HW295013   7.510   0.573   2.185 -2.0954 -0.4904 -1.0976
30056SOL     OW95014   9.743   7.603   1.210 -0.0960 -0.0116  0.0087
30056SOL    HW195015   9.825   7.644   1.185  0.1888 -1.6004 -1.9098
30056SOL    HW295016   9.754   7.583   1.303  1.2701  0.7306  0.0330
30057SOL     OW95017   8.819   7.154   8.876  0.1287 -0.3430 -0.3642
30057SOL    HW195018   8.829   7.110   8.961 -2.5456 -0.4160 -0.0221
30057SOL    HW295019   8.730   7.189   8.877 -0.1434 -0.7446 -3.3465
30058SOL     OW95020   7.003   9.474   9.296 -0.2681 -0.1233 -0.1965
30058SOL    HW195021   7.064   9.410   9.334 -1.2707 -0.1143  1.4918
30058SOL    HW295022   7.001   9.452   9.203  0.2273 -1.8676  0.1662
30059SOL     OW95023   8.311   7.661   7.888  0.7144 -0.1069 -0.7182
30059SOL    HW195024   8.309   7.566   7.874 -1.0310 -0.0813 -0.9034
30059SOL    HW295025   8.249   7.676   7.960  1.0311  0.8921 -0.6351
30060SOL     OW95026   0.101   8.807   7.410  0.0448  0.0087 -0.3787
30060SOL    HW195027   0.176   8.808   7.351  1.6293 -0.8969  1.4967
30060SOL    HW295028   0.079   8.715   7.421  0.9299 -0.0177  1.7249
30061SOL     OW95029   8.607   0.179   0.927 -0.0526  0.2356 -0.6760
30061SOL    HW195030   8.557   0.230   0.863 -0.1346  2.0841  0.7734
30061SOL    HW295031   8.589   0.222   1.010  1.1551 -1.2557  0.4045
30062SOL     OW95032   2.789   8.397   9.474 -0.1644  0.2125  0.1334
30062SOL    HW195033   2.788   8.431   9.384  1.1362  0.4417  0.1800
30062SOL    HW295034   2.744   8.465   9.525 -2.0131 -0.4797 -0.4879
30063SOL     OW95035   8.414   9.652   1.051 -0.5464 -0.3394  0.0986
30063SOL    HW195036   8.354   9.658   0.976  0.5409 -1.6400 -0.9287
30063SOL    HW295037   8.366   9.693   1.123 -3.1949 -2.3686 -0.3535
30064SOL     OW95038   8.643   9.005   0.529  0.3620  0.2194  0.3493
30064SOL    HW195039   8.634   9.096   0.558  0.8114 -0.0948  1.5222
30064SOL    HW295040   8.727   8.976   0.564  1.0361 -0.1482 -1.4513
30065SOL     OW95041   1.818   8.886   0.138 -0.2056 -0.3790 -0.2142
30065SOL    HW195042   1.727   8.894   0.164  0.0621 -2.6399  1.7844
30065SOL    HW295043   1.867   8.881   0.221  1.6527 -0.0409 -1.2209
30066SOL     OW95044   0.683   6.249   9.661  0.6717 -0.6399  0.3438
30066SOL    HW195045   0.648   6.199   9.587  0.1371 -0.5903  0.5612
30066SOL    HW295046   0.671   6.340   9.636  1.5298 -0.6105  0.0028
30067SOL     OW95047   9.089   9.767   6.652  0.0455  0.1022  0.6871
30067SOL    HW195048   9.150   9.764   6.577  1.6289  1.0186  1.8636
30067SOL    HW295049   9.125   9.836   6.708 -0.7265 -1.0141  2.6203
30068SOL     OW95050   4.565   7.447   0.705 -0.1333 -0.2305 -0.0154
30068SOL    HW195051   4.615   7.494   0.772  0.3326  0.6693 -0.9717
30068SOL    HW295052   4.482   7.493   0.700  0.9864  1.7324 -2.2331
30069SOL     OW95053   1.821   7.341   7.813  0.1021 -0.6481  0.3530
30069SOL    HW195054   1.880   7.304   7.880  2.8401 -1.1944 -2.1623
30069SOL    HW295055   1.824   7.436   7.829  0.7692 -0.7628  0.9858
30070SOL     OW95056   1.119   7.437   0.300 -0.3468  0.5627 -0.0410
30070SOL    HW195057   1.136   7.506   0.363 -0.1975  0.3618  0.1426
30070SOL    HW295058   1.025   7.441   0.283 -0.2519  1.1785 -0.4628
30071SOL     OW95059   7.568   0.216   7.264 -0.5013  0.3004 -0.0014
30071SOL    HW195060   7.642   0.235   7.207  0.2208 -0.1547  0.7619
30071SOL    HW295061   7.493   0.256   7.221  0.5613  2.9233  0.4055
30072SOL     OW95062   0.125   9.809   0.169  0.0044  0.2212  0.3765
30072SOL    HW195063   0.158   9.720   0.182  1.0265  0.4347 -0.6160
30072SOL    HW295064   0.062   9.801   0.097  0.1690  0.3179  0.2218
30073SOL     OW95065   0.927   6.178   0.015 -0.3449  0.2294  0.0898
30073SOL    HW195066   0.858   6.201  -0.047  0.1440  1.3242 -0.0715
30073SOL    HW295067   1.004   6.162  -0.039  0.2363  1.7645  0.4197
30074SOL     OW95068   9.801   7.799   8.773 -0.9082 -0.2036  1.1869
30074SOL    HW195069   9.845   7.784   8.857 -0.4676  0.1186  1.0199
30074SOL    HW295070   9.802   7.894   8.763 -1.2633 -0.2240  0.9774
30075SOL     OW95071   9.856   7.113   7.283  0.0954 -0.2361 -0.2428
30075SOL    HW195072   9.777   7.129   7.333  0.5544  0.4897  0.2686
30075SOL    HW295073   9.836   7.143   7.194  0.5756  2.3446  0.4316
30076SOL     OW95074   8.354   9.190   0.802 -0.0462  0.1603  0.1251
30076SOL    HW195075   8.406   9.123   0.757  0.5273 -0.4857  1.6758
30076SOL    HW295076   8.420   9.245   0.846 -0.6122  0.3835  0.7050
30077SOL     OW95077   8.603   4.872   8.939  0.6732 -0.0490  0.0847
30077SOL    HW195078   8.609   4.965   8.917 -0.7344  0.1657  0.4580
30077SOL    HW295079   8.629   4.827   8.859  0.6587  0.6764 -0.3413
30078SOL     OW95080   9.465   6.901   8.085 -0.4363 -0.2393 -0.4149
30078SOL    HW195081   9.491   6.839   8.152 -2.7569  0.7808  1.5967
30078SOL    HW295082   9.393   6.858   8.038 -0.5405  0.0370 -0.5150
30079SOL     OW95083   8.822   8.734   8.762  0.4450 -0.2022 -0.2680
30079SOL    HW195084   8.802   8.818   8.722  1.2231  0.7494  1.2496
30079SOL    HW295085   8.892   8.698   8.707 -1.1055 -0.7624 -1.9945
30080SOL     OW95086   9.443   7.528   8.220  0.2530 -0.4716 -0.4954
30080SOL    HW195087   9.360   7.491   8.189 -1.1671  0.2710  2.1331
30080SOL    HW295088   9.447   7.615   8.180 -0.7240 -0.1557  0.0644
30081SOL     OW95089   0.393   6.619   9.827  0.5265 -0.3348  0.1161
30081SOL    HW195090   0.349   6.642   9.745 -0.3211  0.5656  0.7926
30081SOL    HW295091   0.328   6.567   9.875 -0.1714  1.6462  1.4526
30082SOL     OW95092   0.771   8.285   0.742  0.4104 -0.2349  0.5142
30082SOL    HW195093   0.849   8.292   0.687  0.1326 -3.2526 -0.4216
30082SOL    HW295094   0.804   8.264   0.829  0.6867  0.7514  0.6621
30083SOL     OW95095   0.719   9.108   8.682  0.0622  0.2919 -0.2381
30083SOL    HW195096   0.639   9.067   8.713 -0.7450  0.8046 -1.5853
30083SOL    HW295097   0.748   9.053   8.610  0.4704  0.5721 -0.2925
30084SOL     OW95098   9.194   7.615   8.021 -0.5433 -0.0925 -0.1604
30084SOL    HW195099   9.176   7.593   7.929  0.6364  1.8080 -0.8870
30084SOL    HW295100   9.265   7.679   8.018  0.8974 -1.4384  2.2061
30085SOL     OW95101   0.635   0.556   0.469  0.6460  0.0639 -0.0563
30085SOL    HW195102   0.647   0.542   0.376 -1.2545 -1.6250 -0.1079
30085SOL    HW295103   0.590   0.641   0.475 -1.8124 -1.0852 -0.9551
30086SOL     OW95104   7.371   8.424   8.864 -0.1096 -0.1420 -0.1259
30086SOL    HW195105   7.280   8.449   8.853 -0.6429 -1.2742  1.2756
30086SOL    HW295106   7.382   8.414   8.959  1.2643 -0.7139 -0.3107
30087SOL     OW95107   8.531   0.119   1.614 -0.5298 -0.9420 -0.7100
30087SOL    HW195108   8.505   0.053   1.550 -0.1793 -1.5330 -0.2443
30087SOL    HW295109   8.537   0.200   1.562 -0.3401 -1.3912 -1.4147
30088SOL     OW95110   9.776   8.530   9.552  0.2572  0.0037  0.0341
30088SOL    HW195111   9.804   8.514   9.462  0.4245  0.0467  0.0784
30088SOL    HW295112   9.767   8.625   9.558 -1.0151 -0.0822 -0.3115
30089SOL     OW95113   9.493   9.636   0.581 -0.0992 -0.6965 -0.0216
30089SOL    HW195114   9.497   9.553   0.629  1.4032 -1.0596 -0.7325
30089SOL    HW295115   9.560   9.691   0.622 -1.1645  0.2384  0.5245
30090SOL     OW95116   1.562   0.515   8.833  0.0179  0.0493 -0.2944
30090SOL    HW195117   1.652   0.542   8.847  0.3334 -0.4612 -1.2623
30090SOL    HW295118   1.534   0.564   8.755 -1.3593  2.0659  1.3363
30091SOL     OW95119   6.520   8.533   3.548 -0.3941 -0.3399 -0.5249
30091SOL    HW195120   6.452   8.466   3.538 -0.1884 -0.6798  0.2834
30091SOL    HW295121   6.487   8.591   3.616 -0.2919  0.0420 -0.7941
30092SOL     OW95122   1.810   0.004   1.651 -0.2444  0.2973  0.0631
30092SOL    HW195123   1.763  -0.043   1.582 -0.6882  0.4008  0.2893
30092SOL    HW295124   1.756   0.080   1.669  0.6185  1.0717 -0.5064
30093SOL     OW95125   0.403   9.234   1.933 -0.2122 -0.6336 -0.4379
30093SOL    HW195126   0.452   9.294   1.989  0.9436 -1.5885 -0.3854
30093SOL    HW295127   0.346   9.186   1.992  0.9848 -1.6203 -0.0414
30094SOL     OW95128   0.167   7.492   9.593  0.6885  0.1406  0.4457
30094SOL    HW195129   0.122   7.511   9.511 -0.4233  0.9578  1.2185
30094SOL    HW295130   0.132   7.555   9.656  0.0125 -1.7318  2.0601
30095SOL     OW95131   1.243   9.120   0.765 -0.5746 -0.0736  0.6459
30095SOL    HW195132   1.296   9.194   0.794 -1.7123  0.9499  0.2216
30095SOL    HW295133   1.172   9.115   0.829 -1.8209  0.7418 -0.5921
30096SOL     OW95134   0.827   8.294   8.938  0.6273 -0.2174  0.5296
30096SOL    HW195135   0.873   8.288   8.854  0.2404  0.7723  0.2331
30096SOL    HW295136   0.817   8.204   8.967  0.0743 -0.6181 -0.8690
30097SOL     OW95137   0.865   0.774   1.185  0.1977 -0.0183  0.1173
30097SOL    HW195138   0.837   0.777   1.093 -0.5133 -0.3474  0.3111
30097SOL    HW295139   0.792   0.813   1.233 -0.4499 -1.8818  0.7409
30098SOL     OW95140   1.101   0.380   1.851  0.1146  0.4586 -0.1700
30098SOL    HW195141   1.077   0.404   1.761  1.3154 -0.1206 -0.6675
30098SOL    HW295142   1.187   0.339   1.842  1.0125  1.8803  1.4513
30099SOL     OW95143   8.180   0.181   9.178  0.2111 -0.0826  0.3399
30099SOL    HW195144   8.250   0.242   9.202 -0.4461  0.5001  0.8285
30099SOL    HW295145   8.220   0.123   9.113  0.5211  1.6003 -1.0422
30100SOL     OW95146   2.590   8.107   9.518 -0.1110  0.5683  0.2556
30100SOL    HW195147   2.638   8.190   9.517  0.2785  0.4095  2.2715
30100SOL    HW295148   2.644   8.049   9.570 -1.7304 -0.0925  1.2721
30101SOL     OW95149   8.459   1.940   2.285 -0.0833 -0.0611 -0.4277
30101SOL    HW195150   8.528   1.964   2.223 -0.1419  0.0068 -0.4665
30101SOL    HW295151   8.506   1.921   2.366 -0.1255  1.5443  0.0231
30102SOL     OW95152   0.969   7.121   1.139  0.1258 -0.3537 -0.1540
30102SOL    HW195153   1.047   7.172   1.164  1.8269 -2.7366 -0.2850
30102SOL    HW295154   0.898   7.160   1.190  1.5248  1.4399  0.5477
30103SOL     OW95155   8.445   0.409   1.830 -0.1382 -1.0297 -0.1650
30103SOL    HW195156   8.469   0.438   1.742 -0.1356  1.3004  0.5350
30103SOL    HW295157   8.526   0.373   1.866  1.0705  1.8865  0.3022
30104SOL     OW95158   8.680   8.438   1.410  0.0925  0.1516  0.7062
30104SOL    HW195159   8.682   8.527   1.444 -1.3712  0.6034 -0.3041
30104SOL    HW295160   8.591   8.426   1.376  0.4890 -1.4079  0.0841
30105SOL     OW95161   7.533   0.459   2.628 -0.3000 -0.1184 -0.0749
30105SOL    HW195162   7.461   0.446   2.689 -0.0914  2.5629  0.8599
30105SOL    HW295163   7.580   0.535   2.662  1.1853  0.0676 -2.3356
30106SOL     OW95164   1.368   9.823   2.017  0.4318 -0.4714  1.4245
30106SOL    HW195165   1.320   9.778   2.087 -1.4535  1.1161  1.2326
30106SOL    HW295166   1.335   9.783   1.936 -2.2574  1.9421  1.1707
30107SOL     OW95167   7.282   2.193   1.848 -0.0303 -0.4801  0.2276
30107SOL    HW195168   7.247   2.175   1.936  0.6015 -1.0899  0.3704
30107SOL    HW295169   7.375   2.170   1.855 -0.1481 -1.3243 -0.8256
30108SOL     OW95170   8.067   9.731   1.406 -0.2790  0.0114  0.6511
30108SOL    HW195171   8.104   9.661   1.352 -0.5985 -0.5459  1.1469
30108SOL    HW295172   7.977   9.703   1.423 -1.1797  1.6861 -1.1186
30109SOL     OW95173   1.463   7.834   9.038 -0.7926  0.1019  0.2137
30109SOL    HW195174   1.411   7.801   8.964 -1.3270 -1.2551  1.1374
30109SOL    HW295175   1.445   7.927   9.041 -0.8860  0.1540 -1.2647
30110SOL     OW95176   7.625   0.701   2.763 -0.0436  0.5435  0.0408
30110SOL    HW195177   7.603   0.775   2.706 -0.4938  0.6232  0.3163
30110SOL    HW295178   7.642   0.741   2.848  1.9740  0.5852 -0.3202
30111SOL     OW95179   8.965   9.624   0.643 -0.2983 -0.5063 -0.2706
30111SOL    HW195180   9.058   9.603   0.654 -0.3498 -0.5778  0.0468
30111SOL    HW295181   8.919   9.558   0.696 -0.5410 -0.6090 -0.6038
30112SOL     OW95182   9.029   9.064   8.433 -1.0817  0.2815 -0.2848
30112SOL    HW195183   9.123   9.056   8.452 -0.7089 -0.9246 -2.3744
30112SOL    HW295184   8.986   9.041   8.516  0.4415 -0.6676  0.2749
30113SOL     OW95185   0.291   9.148   9.704  0.2731 -0.1210 -1.0812
30113SOL    HW195186   0.304   9.096   9.624 -0.0056  1.0470 -1.9130
30113SOL    HW295187   0.364   9.123   9.761  1.7697  0.5915 -2.5839
30114SOL     OW95188   6.843   6.541   0.034 -0.0812  0.6745  0.6861
30114SOL    HW195189   6.827   6.554   0.127  1.1593 -1.0957  1.2147
30114SOL    HW295190   6.756   6.543  -0.006 -0.6888  0.8398  1.9719
30115SOL     OW95191   7.444   9.216   2.830  0.5779  0.1840  0.4455
30115SOL    HW195192   7.510   9.274   2.792  1.8211 -1.1024  0.5650
30115SOL    HW295193   7.473   9.202   2.920 -0.3143  0.2335  0.7529
30116SOL     OW95194   8.772   0.164   2.124  0.9063 -0.2668 -0.0212
30116SOL    HW195195   8.796   0.255   2.102  2.7677 -0.7668 -0.2771
30116SOL    HW295196   8.701   0.143   2.063  0.9713  0.7797 -0.4869
30117SOL     OW95197   9.565   0.890   2.032 -0.5146  0.0810  0.1725
30117SOL    HW195198   9.574   0.834   2.109 -0.4199 -2.0128 -1.2921
30117SOL    HW295199   9.494   0.851   1.981 -1.0304  1.8134 -0.4976
30118SOL     OW95200   0.073   8.227   3.629  0.6242  0.8519 -0.0885
30118SOL    HW195201   0.145   8.288   3.641  0.3193  0.8727  2.2276
30118SOL    HW295202   0.020   8.237   3.708 -0.7882 -0.6290 -0.7850
30119SOL     OW95203   8.548   8.501   0.980 -0.2765 -0.1861  0.0847
30119SOL    HW195204   8.458   8.529   0.963 -0.8945 -0.5745  2.4536
30119SOL    HW295205   8.570   8.447   0.904 -1.2484  1.5864 -1.5564
30120SOL     OW95206   0.850   1.342   9.368 -0.0716  0.3195  0.1592
30120SOL    HW195207   0.823   1.340   9.460  0.7557  1.1128  0.4370
30120SOL    HW295208   0.768   1.350   9.319 -0.8699 -3.4165  0.5875
30121SOL     OW95209   8.555   9.534   3.568 -0.2314  0.6158 -0.0432
30121SOL    HW195210   8.553   9.572   3.656  2.2021  0.6213  0.0577
30121SOL    HW295211   8.592   9.447   3.581 -0.0405  0.5424 -1.0576
30122SOL     OW95212   8.324   9.069   4.481  0.2320  0.4405 -0.1961
30122SOL    HW195213   8.328   8.974   4.488 -0.8674  0.4404  0.7426
30122SOL    HW295214   8.320   9.086   4.387 -0.6353 -0.5028 -0.3520
30123SOL     OW95215   0.238   9.594   2.369  0.0674 -0.0738 -0.2256
30123SOL    HW195216   0.223   9.649   2.291 -0.1436 -0.5681 -0.5402
30123SOL    HW295217   0.177   9.522   2.359 -0.6663  0.3602  0.9098
30124SOL     OW95218   1.396   0.524   8.339 -0.5027 -0.6579  0.0323
30124SOL    HW195219   1.448   0.536   8.260  0.0840 -1.4307  0.2841
30124SOL    HW295220   1.313   0.567   8.320 -0.3160 -0.7027 -0.9510
30125SOL     OW95221   0.310   0.326   2.289  0.0695  0.5704 -0.3516
30125SOL    HW195222   0.278   0.400   2.341  3.3683  2.3613 -0.6033
30125SOL    HW295223   0.398   0.309   2.323  0.8177 -0.7973 -2.7581
30126SOL     OW95224   9.844   8.447   2.710 -0.1453 -0.1893  0.2203
30126SOL    HW195225   9.763   8.497   2.708 -0.9292 -1.3821  0.7973
30126SOL    HW295226   9.818   8.361   2.743  1.2958 -0.7103  0.0698
30127SOL     OW95227   8.642   0.016   2.655 -0.4112 -0.0871 -0.4308
30127SOL    HW195228   8.581   0.031   2.584  0.3909 -0.0521 -1.1274
30127SOL    HW295229   8.633   0.093   2.712 -0.1213  0.5099 -1.1843
30128SOL     OW95230   9.266   0.474   0.947  0.1926 -0.0662 -0.1869
30128SOL    HW195231   9.291   0.566   0.938  0.2659 -0.0927 -0.2550
30128SOL    HW295232   9.225   0.452   0.864  1.2033 -0.4156 -0.6102
30129SOL     OW95233   9.439   0.490   3.767 -0.1414  0.1311  0.2109
30129SOL    HW195234   9.353   0.481   3.727 -1.2576 -0.9526  2.6606
30129SOL    HW295235   9.473   0.400   3.770  1.3993  0.6093 -1.2655
30130SOL     OW95236   8.358   9.565   3.780 -0.1674 -0.4922  0.0889
30130SOL    HW195237   8.349   9.507   3.704 -2.3227  1.9559 -1.7180
30130SOL    HW295238   8.285   9.541   3.837 -0.1874 -0.5221  0.0516
30131SOL     OW95239   9.836   1.246   3.379  0.1699  0.2283  0.7505
30131SOL    HW195240   9.912   1.220   3.328  0.2293  0.3693  0.7669
30131SOL    HW295241   9.872   1.295   3.452  0.1188 -0.3207  1.1550
30132SOL     OW95242   9.531   0.649   1.059 -0.6706  0.0827 -0.2332
30132SOL    HW195243   9.603   0.684   1.113 -1.6812  2.4893 -0.3093
30132SOL    HW295244   9.461   0.630   1.122 -0.3494 -1.2798 -0.2692
30133SOL     OW95245   8.331   9.823   2.388  0.2174 -0.5292  0.5793
30133SOL    HW195246   8.291   9.853   2.470 -1.3466  1.5245 -0.8265
30133SOL    HW295247   8.256   9.801   2.332  1.0563  1.3719 -1.4274
30134SOL     OW95248   8.865   1.002   3.945 -0.2430 -0.0838 -0.3244
30134SOL    HW195249   8.786   1.024   3.896 -0.7122  1.2886  0.9505
30134SOL    HW295250   8.917   0.949   3.885 -2.2255 -1.2374 -1.1166
30135SOL     OW95251   9.569   8.657   3.546 -0.4249 -0.1202 -0.1620
30135SOL    HW195252   9.649   8.674   3.595  0.3790 -1.1571 -1.0492
30135SOL    HW295253   9.541   8.742   3.514  0.0360  0.3199  0.5929
30136SOL     OW95254   8.656   1.784   3.100 -0.9309 -0.0056 -0.3175
30136SOL    HW195255   8.706   1.721   3.152 -0.5662 -0.3575 -1.0716
30136SOL    HW295256   8.569   1.746   3.094 -0.6958 -0.4824 -0.8186
30137SOL     OW95257   9.181   2.287   3.944  0.4391 -0.1528  0.0785
30137SOL    HW195258   9.249   2.256   3.885  0.3955 -1.3525  0.6187
30137SOL    HW295259   9.113   2.321   3.887  1.8603  1.9791 -0.4583
30138SOL     OW95260   9.475   0.288   2.739 -0.7811 -0.3261 -0.3792
30138SOL    HW195261   9.553   0.248   2.703 -2.0283 -0.7796 -2.7665
30138SOL    HW295262   9.455   0.236   2.817  1.0221 -0.4252  0.0620
30139SOL     OW95263   9.008   8.733   1.393  0.5768 -0.1185  0.2153
30139SOL    HW195264   9.018   8.714   1.486 -1.1106  0.3883  0.5356
30139SOL    HW295265   8.919   8.767   1.385  0.8537  0.2977 -1.5157
30140SOL     OW95266   0.794   0.952   3.237 -1.1711  0.6979 -0.7781
30140SOL    HW195267   0.745   1.024   3.197  1.6461  3.1793 -0.0829
30140SOL    HW295268   0.859   0.928   3.172  1.0740  2.2784  0.7066
30141SOL     OW95269   0.120   7.512   5.580  0.4704 -0.1087 -0.6289
30141SOL    HW195270   0.057   7.478   5.643  0.2724 -0.5593 -1.0681
30141SOL    HW295271   0.198   7.532   5.632  0.0015  0.3789 -0.0960
30142SOL     OW95272   1.065   9.250   5.487  0.4969 -0.0785 -0.6342
30142SOL    HW195273   1.079   9.326   5.544  1.2206 -0.2087 -0.6257
30142SOL    HW295274   1.044   9.288   5.401 -2.4883  0.1393  0.0823
30143SOL     OW95275   9.332   9.293   6.403  0.6251 -0.1461 -0.2066
30143SOL    HW195276   9.384   9.222   6.439 -0.6782 -1.1713 -0.2515
30143SOL    HW295277   9.372   9.373   6.437  0.7311 -0.9937  1.7603
30144SOL     OW95278   9.486   9.236   3.766 -0.1665  0.2446 -0.3429
30144SOL    HW195279   9.550   9.263   3.701 -0.4482  1.4333 -0.1456
30144SOL    HW295280   9.402   9.268   3.733 -0.2630  1.2454  0.7734
30145SOL     OW95281   1.096   8.626   6.042  0.8148 -0.0080 -0.4182
30145SOL    HW195282   1.076   8.704   5.991  1.2895 -0.0695 -0.6947
30145SOL    HW295283   1.047   8.639   6.124  1.7046  1.0645 -0.0304
30146SOL     OW95284   0.209   8.579   7.608  0.0958 -0.1190  0.1695
30146SOL    HW195285   0.139   8.543   7.663  0.7386 -0.0783  1.0377
30146SOL    HW295286   0.220   8.514   7.538  0.8690 -1.3852  1.4084
30147SOL     OW95287   0.276   8.483   3.540  0.0582  0.2122  0.0657
30147SOL    HW195288   0.231   8.533   3.472  0.8751  1.6339  0.5042
30147SOL    HW295289   0.211   8.470   3.609  0.5584  3.6025  1.3929
30148SOL     OW95290   8.253   0.682   4.910  0.2498  0.5006 -0.6613
30148SOL    HW195291   8.291   0.732   4.982  0.2958  1.3283 -1.2381
30148SOL    HW295292   8.287   0.593   4.921 -0.6064  0.3440  0.9478
30149SOL     OW95293   0.077   8.983   3.989 -0.0974  0.7660  0.0588
30149SOL    HW195294   0.162   9.023   4.007 -0.8927  2.1558  0.9768
30149SOL    HW295295   0.045   8.956   4.075  0.1085 -1.2959 -0.4680
30150SOL     OW95296   9.758   9.220   3.328 -0.1677  0.1586 -0.5643
30150SOL    HW195297   9.827   9.261   3.276  0.0695  0.3701 -0.0905
30150SOL    HW295298   9.803   9.190   3.407 -0.4215 -0.6372 -0.7167
30151SOL     OW95299   0.990   9.184   4.471  0.3354  0.1677 -0.3232
30151SOL    HW195300   1.031   9.112   4.422 -0.3308 -0.4755  0.0314
30151SOL    HW295301   1.043   9.260   4.451  1.4292 -0.5483 -0.2213
30152SOL     OW95302   7.117   8.323   4.797 -0.4269 -0.2796 -0.2834
30152SOL    HW195303   7.042   8.367   4.758 -0.6340  0.2657  0.6960
30152SOL    HW295304   7.097   8.230   4.790 -0.5417 -0.1841 -1.2862
30153SOL     OW95305   9.440   9.859   4.686  0.4606  0.4566 -0.0236
30153SOL    HW195306   9.513   9.802   4.662 -0.6728 -1.5671  1.0590
30153SOL    HW295307   9.381   9.854   4.610  0.9185  1.2348 -0.4477
30154SOL     OW95308   9.724   9.575   3.735  0.7541  0.6492  0.0430
30154SOL    HW195309   9.748   9.495   3.690 -1.2758  0.4843 -0.8580
30154SOL    HW295310   9.754   9.646   3.678  1.1433  0.5109  0.0745
30155SOL     OW95311   0.172   0.537   5.161 -0.0988  0.1215  0.1304
30155SOL    HW195312   0.175   0.589   5.081 -0.3320  2.1640  1.3559
30155SOL    HW295313   0.099   0.574   5.210  0.3207 -0.7587  1.4760
30156SOL     OW95314   9.265   7.756   7.628 -0.1217 -0.1440  0.0237
30156SOL    HW195315   9.225   7.680   7.671  1.4003 -1.9961 -1.6240
30156SOL    HW295316   9.356   7.729   7.612  0.4548  2.0287 -0.6943
30157SOL     OW95317   8.416   9.504   5.967 -0.1874 -0.0275  0.3545
30157SOL    HW195318   8.378   9.581   6.008 -0.1863 -1.3589  3.1008
30157SOL    HW295319   8.504   9.531   5.941 -0.5965  1.1894  0.1840
30158SOL     OW95320   2.100   0.234   4.955  0.8438 -0.3317  0.2560
30158SOL    HW195321   2.118   0.326   4.971  4.4246 -0.8369  0.0164
30158SOL    HW295322   2.052   0.205   5.033  0.0739  1.5908  0.5451
30159SOL     OW95323   7.810   7.160   6.013 -0.6064  0.2127  0.5382
30159SOL    HW195324   7.884   7.130   6.066 -0.1043 -0.0729 -0.3025
30159SOL    HW295325   7.746   7.192   6.076  0.3251  0.6598  1.2731
30160SOL     OW95326   8.328   0.275   5.638 -0.5313 -0.7240  0.4665
30160SOL    HW195327   8.359   0.230   5.716  0.9860 -1.0325 -0.2738
30160SOL    HW295328   8.323   0.367   5.664  1.3376 -0.6140  0.5664
30161SOL     OW95329   9.165   1.024   5.031 -0.0232 -0.2007  0.2639
30161SOL    HW195330   9.145   0.931   5.018 -0.5929 -0.0878  0.2875
30161SOL    HW295331   9.260   1.028   5.037  0.0264 -0.7399 -0.0802
30162SOL     OW95332   9.498   8.324   3.377 -0.1416  0.1656 -0.3716
30162SOL    HW195333   9.482   8.280   3.294 -0.1642  2.3121 -1.5894
30162SOL    HW295334   9.594   8.333   3.380 -0.1356  0.0138 -0.1145
30163SOL     OW95335   8.064   8.353   4.750  0.1123  0.0549  0.0567
30163SOL    HW195336   8.066   8.301   4.670  1.0366  1.8322 -1.1545
30163SOL    HW295337   8.072   8.289   4.820 -0.3325 -1.5360 -1.2792
30164SOL     OW95338   0.883   0.133   7.548 -0.3712  0.3035 -0.2392
30164SOL    HW195339   0.912   0.041   7.545 -2.3782 -0.3808 -0.3442
30164SOL    HW295340   0.892   0.164   7.458 -0.6136 -0.1056 -0.4071
30165SOL     OW95341   8.651   8.155   3.523  0.0331  0.1518 -0.5609
30165SOL    HW195342   8.698   8.177   3.603  0.2267  0.1186 -0.6650
30165SOL    HW295343   8.577   8.216   3.521 -0.2608 -0.1820 -0.0982
30166SOL     OW95344   7.529   9.195   3.092  0.1978  0.9601  0.7341
30166SOL    HW195345   7.556   9.266   3.150  0.8981 -0.0863  1.7266
30166SOL    HW295346   7.605   9.137   3.088 -1.1024 -0.9363  1.8413
30167SOL     OW95347   0.945   1.082   4.364 -0.0411 -0.0876 -0.1658
30167SOL    HW195348   0.855   1.084   4.330 -0.2734  2.7129  0.3943
30167SOL    HW295349   0.989   1.015   4.312 -1.4326  1.1681 -3.1858
30168SOL     OW95350   0.145   9.614   5.437  0.3349 -0.1994 -0.4755
30168SOL    HW195351   0.194   9.646   5.362  0.0285 -0.8488 -0.9627
30168SOL    HW295352   0.198   9.637   5.513  1.8032 -1.6146 -1.0302
30169SOL     OW95353   8.929   8.666   6.898  0.4048  0.5108 -0.1465
30169SOL    HW195354   8.986   8.592   6.875  1.6121  0.9602  1.2303
30169SOL    HW295355   8.844   8.643   6.861  0.5909 -1.8710  0.7122
30170SOL     OW95356   9.337   1.630   7.441  0.6699 -0.1869 -0.5447
30170SOL    HW195357   9.358   1.674   7.523 -0.0362 -1.2169  0.2151
30170SOL    HW295358   9.241   1.622   7.442  0.8222 -2.5022 -0.2251
30171SOL     OW95359   8.964   7.405   7.928 -0.2705 -0.0103 -0.1796
30171SOL    HW195360   8.888   7.351   7.948 -0.2421  0.3502  0.9606
30171SOL    HW295361   8.972   7.465   8.002  0.5011  0.6647 -0.7790
30172SOL     OW95362   9.780   0.437   6.716  1.1374  0.1395 -0.5985
30172SOL    HW195363   9.756   0.344   6.716  2.2413 -0.1663  0.5686
30172SOL    HW295364   9.716   0.478   6.774  1.0984 -0.0306 -0.5191
30173SOL     OW95365   2.180   8.639   5.821  0.1773  1.0349  0.3557
30173SOL    HW195366   2.202   8.551   5.792 -0.1512  1.0017  0.2037
30173SOL    HW295367   2.099   8.661   5.774 -0.0457  1.2007  0.8063
30174SOL     OW95368   0.940   7.738   6.476 -0.3339 -0.4761 -0.4028
30174SOL    HW195369   0.908   7.770   6.391  0.4803  0.3148 -0.4317
30174SOL    HW295370   1.019   7.790   6.493  0.8960 -2.2916 -0.2901
30175SOL     OW95371   2.966   9.683   6.462 -0.1473 -0.5325  0.5610
30175SOL    HW195372   2.986   9.774   6.441 -1.3847  0.1034  1.9653
30175SOL    HW295373   3.032   9.658   6.527  0.4299 -0.7831 -0.1085
30176SOL     OW95374   0.838   8.442   6.536  0.0956  0.0681  0.0789
30176SOL    HW195375   0.895   8.401   6.601  1.3459 -0.0421 -1.0327
30176SOL    HW295376   0.757   8.391   6.539  0.5220 -0.5913  0.8002
30177SOL     OW95377   8.225   0.135   6.484 -0.0421  0.1561  0.2154
30177SOL    HW195378   8.166   0.199   6.524  0.3805  0.3971  0.4647
30177SOL    HW295379   8.312   0.173   6.495  0.3025 -0.8293  1.1259
30178SOL     OW95380   9.086   0.482   4.764 -0.0675 -0.0234  0.1663
30178SOL    HW195381   9.058   0.570   4.740 -1.9545 -0.6691 -0.1052
30178SOL    HW295382   9.162   0.496   4.821 -0.0834  1.7478 -0.2009
30179SOL     OW95383   0.152   9.632   4.431  0.7133 -0.9218 -0.1606
30179SOL    HW195384   0.082   9.601   4.488  0.4133 -0.9174 -0.5215
30179SOL    HW295385   0.231   9.630   4.486  0.6365 -1.9719 -0.0656
30180SOL     OW95386   0.519   0.746   6.447  0.0060 -0.1787  0.2145
30180SOL    HW195387   0.509   0.834   6.412  0.5222  0.2831  1.2243
30180SOL    HW295388   0.463   0.692   6.391  2.1946  0.1871 -2.5863
30181SOL     OW95389   9.040   7.007   6.030  0.4317  0.0885  0.6136
30181SOL    HW195390   9.063   7.100   6.019  2.4443 -0.2824  1.3118
30181SOL    HW295391   9.116   6.960   5.995  0.2213 -1.2690  1.9240
30182SOL     OW95392   9.242   7.353   7.518 -0.0121 -0.6330 -0.7202
30182SOL    HW195393   9.337   7.348   7.503  0.1882 -2.1564  0.7459
30182SOL    HW295394   9.203   7.320   7.437  0.7164 -0.7047 -1.0527
30183SOL     OW95395   8.372   9.677   5.169  0.1588 -0.5500  0.0862
30183SOL    HW195396   8.398   9.605   5.226  2.1144 -0.8043 -1.0288
30183SOL    HW295397   8.374   9.754   5.225 -0.8618 -1.1735  1.0300
30184SOL     OW95398   8.493   8.463   6.931  0.3540  0.6277 -0.0552
30184SOL    HW195399   8.428   8.426   6.872  0.8619 -0.6846  0.1756
30184SOL    HW295400   8.480   8.416   7.014  2.2607 -0.4612 -0.3053
30185SOL     OW95401   0.474   0.633   5.574  0.2705  0.0009 -0.0859
30185SOL    HW195402   0.569   0.623   5.573  0.4968  1.5596  1.5261
30185SOL    HW295403   0.440   0.544   5.566  1.8285 -0.5567 -0.9875
30186SOL     OW95404   2.411   8.938   6.492  0.3820 -0.1686 -0.6623
30186SOL    HW195405   2.491   8.937   6.544 -0.4272  1.7286  0.7286
30186SOL    HW295406   2.438   8.904   6.406  2.5490  0.0068 -0.1131
30187SOL     OW95407   9.507   0.122   2.973  0.0714 -0.5177 -0.0994
30187SOL    HW195408   9.591   0.077   2.971 -0.3370 -1.4035  1.2423
30187SOL    HW295409   9.442   0.055   2.954 -0.3092  0.3671 -2.1872
30188SOL     OW95410   9.768   9.540   5.578  0.4808 -0.2656 -0.0401
30188SOL    HW195411   9.838   9.538   5.513 -0.7475  1.4974 -1.5503
30188SOL    HW295412   9.805   9.585   5.653  1.1665  0.0640 -0.5689
30189SOL     OW95413   7.337   2.823   8.157 -0.1381  0.5127  0.4674
30189SOL    HW195414   7.286   2.859   8.230 -0.8709  1.7910 -0.6334
30189SOL    HW295415   7.355   2.733   8.183 -2.3096  0.2492  1.2386
30190SOL     OW95416   9.572   1.159   4.880 -0.4625 -0.5492  0.9172
30190SOL    HW195417   9.504   1.106   4.921 -0.0436 -0.5716  1.6181
30190SOL    HW295418   9.652   1.107   4.891 -0.4073 -0.7298 -0.3011
30191SOL     OW95419   9.753   1.471   4.541  0.3716  0.2319 -0.0714
30191SOL    HW195420   9.842   1.500   4.524  0.4048 -0.5599 -1.3442
30191SOL    HW295421   9.717   1.538   4.599  1.3170  1.3485 -0.7395
30192SOL     OW95422   9.697   8.752   4.769  0.1690  0.4526 -0.5229
30192SOL    HW195423   9.695   8.806   4.690  0.4829 -1.7956 -2.1305
30192SOL    HW295424   9.618   8.778   4.817 -1.3195  0.2243 -2.7329
30193SOL     OW95425   0.350   9.133   5.675  0.5733 -0.6970  0.2467
30193SOL    HW195426   0.432   9.175   5.648 -0.1961  1.2473  0.7377
30193SOL    HW295427   0.377   9.060   5.730  2.0325 -1.7841 -1.7777
30194SOL     OW95428   0.486   0.379   5.910  0.6040  0.3640 -0.1798
30194SOL    HW195429   0.496   0.470   5.884  0.4557  0.3998 -0.1132
30194SOL    HW295430   0.452   0.335   5.832 -0.1396  0.5326  0.0498
30195SOL     OW95431   0.193   9.601   8.102  0.3403  0.3329  0.0060
30195SOL    HW195432   0.131   9.610   8.029  0.4291  0.8476 -0.0105
30195SOL    HW295433   0.138   9.596   8.180  0.2164 -0.9579 -0.1525
30196SOL     OW95434   0.084   1.015   7.808 -0.4975 -0.5547  0.1296
30196SOL    HW195435   0.025   1.090   7.799 -0.2373 -0.3718 -0.0632
30196SOL    HW295436   0.112   0.995   7.718  0.0371 -0.3928  0.2528
30197SOL     OW95437   9.212   9.017   7.921 -0.5208 -0.0303 -0.2139
30197SOL    HW195438   9.276   8.990   7.988 -0.7767  0.5297  0.2666
30197SOL    HW295439   9.168   9.093   7.960 -1.0852 -0.0655 -0.7801
30198SOL     OW95440   8.431   6.741   9.294 -0.5662  0.0928 -0.5133
30198SOL    HW195441   8.414   6.741   9.389 -1.0879 -1.8040 -0.5757
30198SOL    HW295442   8.367   6.803   9.259 -1.6557 -0.5890  0.2061
30199SOL     OW95443   0.027   8.278   1.798 -1.0244  0.3140 -0.1546
30199SOL    HW195444   0.055   8.309   1.711  1.0614  1.6453  0.9068
30199SOL    HW295445  -0.054   8.326   1.815 -1.6527 -0.2170 -1.4724
30200SOL     OW95446   1.230   9.229   5.060  0.0058 -0.1932  0.0513
30200SOL    HW195447   1.321   9.260   5.057 -0.5139  1.3361 -0.8763
30200SOL    HW295448   1.177   9.307   5.042 -1.5239 -0.9827  0.9137
30201SOL     OW95449   9.731   7.386   4.831 -0.2084 -0.6632  0.3328
30201SOL    HW195450   9.672   7.311   4.841 -0.8037 -0.1416  0.8252
30201SOL    HW295451   9.748   7.415   4.920 -0.2815  0.0180  0.1279
30202SOL     OW95452   9.586   7.420   1.074  0.2319  0.4809 -0.1146
30202SOL    HW195453   9.662   7.472   1.100  1.1651 -0.6894 -0.4068
30202SOL    HW295454   9.570   7.445   0.983  0.5284  0.4328 -0.1798
30203SOL     OW95455   8.627   0.154   8.782 -0.1540 -0.3663  0.2592
30203SOL    HW195456   8.638   0.245   8.808 -0.2681 -0.4171  0.4927
30203SOL    HW295457   8.677   0.146   8.701 -1.3665  0.2740 -0.5756
30204SOL     OW95458   0.498   0.108   9.039 -0.1150  0.1678  0.7414
30204SOL    HW195459   0.594   0.104   9.038 -0.0686  1.1738  0.4925
30204SOL    HW295460   0.471   0.054   8.966  0.2692  0.0117  0.7111
30205SOL     OW95461   9.717   9.415   0.510  0.7596  0.3423  0.3539
30205SOL    HW195462   9.784   9.355   0.477  0.0549 -0.5716  0.5253
30205SOL    HW295463   9.719   9.405   0.605  1.5028  1.5621  0.4815
30206SOL     OW95464   0.397   8.541   6.690 -0.4427  0.6666  0.8155
30206SOL    HW195465   0.330   8.576   6.630  0.1212  0.9460  0.3455
30206SOL    HW295466   0.400   8.448   6.670  1.4847  1.1221 -1.3630
30207SOL     OW95467   9.094   0.864   6.273 -0.2282 -1.1567 -0.1641
30207SOL    HW195468   9.150   0.924   6.323 -1.1397 -0.4760  0.0614
30207SOL    HW295469   9.150   0.788   6.256  0.9254 -0.3010 -0.3585
30208SOL     OW95470   0.494   8.408   9.582 -0.1874 -0.5189 -0.4550
30208SOL    HW195471   0.499   8.502   9.597  1.0646 -0.4974 -0.8619
30208SOL    HW295472   0.400   8.390   9.571 -0.3290  0.9354 -1.9648
30209SOL     OW95473   9.354   2.775   8.415  0.1441  0.5773 -0.0836
30209SOL    HW195474   9.304   2.762   8.334 -0.1733 -0.7387  0.2978
30209SOL    HW295475   9.418   2.703   8.416  0.0670  0.5025  0.8724
30210SOL     OW95476   9.271   0.352   6.176 -0.3514 -0.0223  0.6077
30210SOL    HW195477   9.265   0.352   6.080 -0.7123  0.8844  0.6188
30210SOL    HW295478   9.344   0.411   6.195 -1.5995  1.5085  0.9226
30211SOL     OW95479   0.423   9.020   8.546  0.2708  0.1611 -0.1214
30211SOL    HW195480   0.468   8.972   8.616  2.1768  1.6317 -0.2541
30211SOL    HW295481   0.454   8.979   8.465 -0.4753 -0.3236 -0.1712
30212SOL     OW95482   9.174   9.404   8.438 -0.0672 -0.3287 -0.3118
30212SOL    HW195483   9.119   9.447   8.372 -1.4950 -0.3627  0.8042
30212SOL    HW295484   9.257   9.389   8.393 -0.3742  1.2723 -1.5423
30213SOL     OW95485   8.908   8.854   9.679  0.0003 -0.2191 -0.2545
30213SOL    HW195486   8.852   8.814   9.745  0.0419  0.2869  0.0905
30213SOL    HW295487   8.852   8.864   9.602  0.1208 -1.3920 -0.5238
30214SOL     OW95488   8.841   9.491   0.865  0.1774  0.4412  0.2894
30214SOL    HW195489   8.869   9.529   0.948 -0.8561  0.6784  0.5406
30214SOL    HW295490   8.749   9.515   0.857 -0.2035 -1.0511 -0.1062
30215SOL     OW95491   9.547   6.366   6.001 -0.3587  0.4338 -0.1664
30215SOL    HW195492   9.632   6.409   5.990  0.0728 -0.6799 -1.4340
30215SOL    HW295493   9.493   6.405   5.932 -0.9723  1.3092  0.7840
30216SOL     OW95494   1.427   8.506   6.237 -1.1893 -0.2706 -0.7164
30216SOL    HW195495   1.365   8.433   6.248 -1.4545  0.1404  0.7376
30216SOL    HW295496   1.372   8.584   6.242 -0.5842  0.0909  0.3844
30217SOL     OW95497   9.048   0.628   8.899  0.2522 -0.1326  0.7662
30217SOL    HW195498   9.143   0.615   8.909  0.7096  1.1390 -1.3363
30217SOL    HW295499   9.016   0.546   8.861  0.6976 -0.2031  0.5353
30218SOL     OW95500   0.068   9.427   8.718  0.8524 -0.3457  0.2767
30218SOL    HW195501  -0.019   9.413   8.680  1.4713 -1.9759 -0.6686
30218SOL    HW295502   0.083   9.521   8.712 -0.9101 -0.0074  0.6374
30219SOL     OW95503   9.663   0.926   0.377  0.4174 -0.0769  0.9483
30219SOL    HW195504   9.607   1.003   0.367  0.6060  0.0185  0.5723
30219SOL    HW295505   9.604   0.856   0.406  0.1184  0.0357  0.6186
30220SOL     OW95506   1.169   1.148   7.211 -0.8770  0.0919 -0.0514
30220SOL    HW195507   1.113   1.093   7.266  1.1491 -0.0692  1.9673
30220SOL    HW295508   1.236   1.088   7.177 -1.1500  0.5177 -1.3949
30221SOL     OW95509   1.401   8.744   0.049 -0.7365  0.5786 -0.0804
30221SOL    HW195510   1.330   8.800   0.080 -0.7111  1.1824 -1.0568
30221SOL    HW295511   1.473   8.804   0.029  0.7571 -0.1460  2.5508
30222SOL     OW95512   9.577   7.279   5.149 -0.1108 -0.0174  0.0123
30222SOL    HW195513   9.562   7.185   5.151 -1.6206  0.2035  0.7349
30222SOL    HW295514   9.513   7.313   5.086  1.2662  0.4138 -1.1980
30223SOL     OW95515   1.794   9.389   5.945 -0.4458 -0.2728  0.2908
30223SOL    HW195516   1.838   9.474   5.946 -3.3192  1.3437 -0.7154
30223SOL    HW295517   1.724   9.397   6.010 -0.9021 -1.8020  0.0307
30224SOL     OW95518   9.146   1.889   7.094 -0.3328  0.1456 -0.0628
30224SOL    HW195519   9.120   1.866   7.183  1.1109  2.3797  1.0167
30224SOL    HW295520   9.235   1.922   7.102  0.2769 -0.6294 -2.5511
30225SOL     OW95521   0.390   0.528   7.715  0.3121 -0.0212  0.0617
30225SOL    HW195522   0.428   0.460   7.659  0.9051  0.8531 -0.6277
30225SOL    HW295523   0.327   0.482   7.770  0.0321 -0.9858 -1.0284
30226SOL     OW95524   9.153   2.877   9.500  0.1234 -0.1680 -0.0662
30226SOL    HW195525   9.170   2.838   9.585  0.1179 -1.2370 -0.5324
30226SOL    HW295526   9.070   2.837   9.471  0.5675 -0.5019 -0.9400
30227SOL     OW95527   1.676   0.859   2.101  0.9732 -0.2743  0.1794
30227SOL    HW195528   1.650   0.789   2.041 -1.4078  0.2465  0.5075
30227SOL    HW295529   1.655   0.940   2.054  3.3045  0.2896 -0.0274
30228SOL     OW95530   7.186   8.712   0.071 -0.0916  0.1345  0.9069
30228SOL    HW195531   7.175   8.721   0.166 -0.7972 -1.7774  1.0486
30228SOL    HW295532   7.129   8.639   0.047  0.9995 -0.2182 -0.8108
30229SOL     OW95533   7.276   9.109   1.163  0.0382 -0.2511  0.8045
30229SOL    HW195534   7.361   9.087   1.201  0.4198  1.8325  1.2860
30229SOL    HW295535   7.292   9.191   1.115 -1.6934  0.1810  0.9148
30230SOL     OW95536   1.067   0.067   0.431 -0.1415  0.1962 -0.2446
30230SOL    HW195537   1.107   0.032   0.511  0.7329 -0.4395 -0.9277
30230SOL    HW295538   1.075  -0.005   0.368  0.3200  1.1125 -1.2514
30231SOL     OW95539   8.571   8.534   9.292  0.1512 -0.0105 -0.2173
30231SOL    HW195540   8.524   8.460   9.329  1.0938 -0.8685 -0.6695
30231SOL    HW295541   8.533   8.611   9.334 -0.1295 -0.8171  1.0505
30232SOL     OW95542   1.504   0.558   2.302  0.0230 -0.5172 -0.1081
30232SOL    HW195543   1.597   0.534   2.299 -0.1985 -1.4569  0.0423
30232SOL    HW295544   1.488   0.584   2.392  0.1777 -0.2146 -0.1697
30233SOL     OW95545   9.198   9.566   9.539 -0.2455 -0.5505 -0.5010
30233SOL    HW195546   9.162   9.522   9.616  0.6394 -1.9496 -0.8675
30233SOL    HW295547   9.153   9.651   9.538 -0.0364 -0.3343  1.7368
30234SOL     OW95548   0.625   8.971   9.680 -0.3064 -0.0952  0.2858
30234SOL    HW195549   0.685   9.023   9.626  0.3722 -1.2815 -0.1303
30234SOL    HW295550   0.544   8.967   9.629 -0.2500  0.2604  0.1642
30235SOL     OW95551   9.656   1.299   0.547  0.5223  0.0911  0.0156
30235SOL    HW195552   9.695   1.373   0.594  0.0503  0.4028 -0.0812
30235SOL    HW295553   9.689   1.309   0.457 -1.9487  1.9894 -0.7873
30236SOL     OW95554   8.429   0.382   9.174  0.4984  0.5084  0.0762
30236SOL    HW195555   8.417   0.387   9.269 -1.5560  0.6865 -0.1353
30236SOL    HW295556   8.510   0.333   9.163  0.8835  0.6303  1.9212
30237SOL     OW95557   0.017   3.399   2.029  0.0999  0.4316  0.5628
30237SOL    HW195558   0.111   3.404   2.047  0.1932  0.3457  0.1158
30237SOL    HW295559  -0.024   3.428   2.110  0.4996 -0.2309  1.0052
30238SOL     OW95560   8.490   9.756   0.595 -0.5196 -0.4728  0.3576
30238SOL    HW195561   8.470   9.848   0.582  1.7547  0.1365  0.7371
30238SOL    HW295562   8.406   9.711   0.581 -1.9293  1.7024  1.1886
30239SOL     OW95563   8.175   9.735   8.792 -0.3805 -0.0990 -0.0957
30239SOL    HW195564   8.241   9.686   8.743  0.5373  1.2711 -0.2893
30239SOL    HW295565   8.098   9.679   8.791 -0.1096 -0.5001 -2.3347
30240SOD    SOD95566   8.941   1.755   0.913 -0.0109 -0.3191  0.4301
30241SOD    SOD95567   0.898   1.032   3.436 -0.0565 -0.3630  0.0228
30242SOD    SOD95568   1.982   0.809   7.025 -0.4734  0.5063  0.1979
30243SOD    SOD95569   9.091   0.859   9.445  0.2427 -0.4664  0.3065
30244SOD    SOD95570   9.719   8.505   8.649 -0.0645  0.0495  0.0293
30245SOD    SOD95571   1.173   0.783   0.664 -0.4042 -0.2229 -0.0414
30246SOD    SOD95572   9.605   1.698   6.775  0.4032 -0.6366  0.0241
30247SOD    SOD95573   9.190   1.284   7.787  0.3151  0.1507 -0.0889
30248SOD    SOD95574   0.383   1.500   0.045 -0.2662 -0.3860 -0.5179
30249SOD    SOD95575   1.882   1.758   9.815 -0.0368 -0.2556 -0.3531
30250SOD    SOD95576   9.804   5.567   9.776 -0.2406 -0.5523 -0.1747
30251SOD    SOD95577   0.822   3.472   1.943  0.1022 -0.0025 -0.0783
30252SOD    SOD95578   0.946   6.058   0.246  0.5142 -0.2333 -0.2889
30253SOD    SOD95579   8.990   4.689   2.083 -0.2398 -0.6129 -0.0800
30254SOD    SOD95580   0.417   4.207   7.841  0.1246 -0.2003 -0.1251
30255SOD    SOD95581   0.384   7.401   9.595  0.2633 -0.3433 -0.0252
30256SOD    SOD95582   0.394   4.751   2.819 -0.0718  0.0558 -0.3480
30257SOD    SOD95583   0.097   7.862   4.629 -0.2947 -0.3295 -0.2945
30258SOD    SOD95584   1.115   7.233   2.430  0.7689  0.0487 -0.1704
30259SOD    SOD95585   0.071   5.969   4.224  0.5180 -0.2825 -0.1274
30260SOD    SOD95586   0.278   7.844   5.203  0.1233  0.1977 -0.2934
30261SOD    SOD95587   9.082   8.103   7.979  0.2517  0.0260 -0.0876
30262SOD    SOD95588   0.164   4.777   5.829  0.0514  0.1236 -0.2100
30263SOD    SOD95589   0.876   6.761   6.308  0.1931  0.0530 -0.7628
30264SOD    SOD95590   0.082   6.891   7.239  0.1085  0.2138  0.4270
30265SOD    SOD95591   0.446   6.500   8.386 -0.1184  0.3995 -0.4500
30266SOD    SOD95592   0.885   6.559   7.956 -0.1642 -0.1476  0.2397
30267SOD    SOD95593   1.525   8.692   1.867  0.4824  0.7425  0.0894
30268SOD    SOD95594   1.650   8.225   4.247  0.3195  0.1953 -0.3424
30269SOD    SOD95595   0.728   9.017   3.736 -0.2702 -0.4211 -0.3012
30270SOD    SOD95596   0.769   8.098   5.284 -0.3697  0.2027  0.1349
30271SOD    SOD95597   1.477   8.899   8.112  0.5621 -0.1342  0.1943
30272SOD    SOD95598   0.407   6.183   6.415 -0.0856  0.1289  0.1843
30273SOD    SOD95599   1.144   0.268   0.495 -0.5194 -0.2261 -0.0079
30274SOD    SOD95600   1.129   0.887   8.690  0.0981  0.3298 -0.3162
30275SOD    SOD95601   2.777   0.057   3.063  0.5331  0.0297  0.2722
30276SOD    SOD95602   2.073   0.456   2.044 -0.3042  0.3438  0.2859
30277SOD    SOD95603   1.225   0.659   5.503 -0.0165  0.0802 -0.0359
30278SOD    SOD95604   1.632   9.712   4.479  0.1080 -0.2693 -0.6688
30279SOD    SOD95605   3.100   0.239   3.933  0.0026  0.0117 -0.0604
30280SOD    SOD95606   0.590   9.279   2.353 -0.3371  0.0711 -0.4422
30281SOD    SOD95607   2.278   0.298   5.494 -0.1781 -0.3377 -0.3918
30282SOD    SOD95608   2.719   0.389   3.597  0.6615  0.6418  0.2116
30283SOD    SOD95609   0.717   0.884   5.810  0.3808 -0.4171 -0.1158
30284SOD    SOD95610   3.033   0.153   6.233 -0.2239  0.0630 -0.5294
30285SOD    SOD95611   2.610   0.451   8.078  0.2883  0.1967 -0.1410
30286SOD    SOD95612   1.977   0.785   9.468 -0.4144  0.3574 -0.1976
30287SOD    SOD95613   2.619   0.855   1.653  0.5132 -0.6020 -0.5632
30288SOD    SOD95614   1.516   2.143   0.185  0.1966  0.0552  0.1923
30289SOD    SOD95615   0.784   2.934   2.116  0.3980  0.2666 -0.0467
30290SOD    SOD95616   0.468   0.982   2.105 -0.3470 -0.1830  0.1772
30291SOD    SOD95617   1.119   1.352   5.487 -0.0468 -0.2270 -0.2906
30292SOD    SOD95618   4.033   0.526   5.644  0.7126  0.4421  0.0825
30293SOD    SOD95619   0.771   1.783   2.955 -0.0551 -0.1281 -0.0789
30294SOD    SOD95620   1.770   3.442   4.294  0.1682  0.4896  0.2677
30295SOD    SOD95621   1.167   3.493   4.140 -0.1806  0.0462  0.3912
30296SOD    SOD95622   3.318   2.064   4.935  0.0550 -0.3004  0.3674
30297SOD    SOD95623   1.992   1.668   6.711  0.4550  0.1836  0.3798
30298SOD    SOD95624   0.771   1.254   6.709  0.0520 -0.4988 -0.2280
30299SOD    SOD95625   1.409   1.817   5.606  0.5368 -0.0076 -0.3322
30300SOD    SOD95626   1.258   2.122   8.183  0.0031  0.4162  0.2964
30301SOD    SOD95627   0.609   1.966   7.956 -0.2241  0.0710 -0.4007
30302SOD    SOD95628   2.924   1.559   8.072  0.5593  0.1115  0.2307
30303SOD    SOD95629   1.094   3.003   8.851  0.2893  0.0627  0.0877
30304SOD    SOD95630   1.493   1.459   0.465 -0.1186  0.3954  0.1957
30305SOD    SOD95631   1.323   5.291   9.796 -0.0383  0.1532  0.1153
30306SOD    SOD95632   2.569   3.583   2.261 -0.1980  0.3252 -0.0825
30307SOD    SOD95633   1.783   2.934   0.456  0.1168 -0.2154  0.3183
30308SOD    SOD95634   0.809   3.971   2.165 -0.1092  0.1415  0.3034
30309SOD    SOD95635   1.853   5.598   1.140 -0.4185 -0.3829  0.7199
30310SOD    SOD95636   0.582   4.277   1.567  0.4842  0.4332  0.2090
30311SOD    SOD95637   1.501   4.657   3.220 -0.1994  0.1585 -0.0297
30312SOD    SOD95638   0.665   2.686   2.873 -0.4937 -0.0613  0.2763
30313SOD    SOD95639   1.548   2.837   1.655  0.4056  0.0141  0.1051
30314SOD    SOD95640   1.483   5.329   1.880  0.1308 -0.3891 -0.0953
30315SOD    SOD95641   0.821   5.715   3.999 -0.2639  0.5596 -0.1218
30316SOD    SOD95642   1.913   4.704   4.546 -0.0300 -0.3626 -0.2442
30317SOD    SOD95643   0.932   2.687   5.513  0.2159  0.3094 -0.3561
30318SOD    SOD95644   0.959   4.122   3.357  0.2875 -0.4832  0.0122
30319SOD    SOD95645   0.632   4.603   3.675 -0.1725 -0.2894 -0.9949
30320SOD    SOD95646   2.340   1.120   4.897 -0.2578  0.1872 -0.1525
30321SOD    SOD95647   2.832   5.243   6.737  0.4691 -0.2759  0.4730
30322SOD    SOD95648   1.262   3.842   6.372 -0.0747  0.0879 -0.5463
30323SOD    SOD95649   1.047   3.566   7.167 -0.2050 -0.1227  0.8249
30324SOD    SOD95650   2.327   5.136   6.386  0.2713 -0.6984 -0.2051
30325SOD    SOD95651   0.450   3.895   7.257 -0.0840 -0.3283  0.0342
30326SOD    SOD95652   1.814   2.298   0.005 -0.2826  0.0588 -0.2161
30327SOD    SOD95653   1.925   3.735   9.286  0.3754 -0.0204  0.0385
30328SOD    SOD95654   1.284   3.125   0.266  0.3469 -0.2989  0.2200
30329SOD    SOD95655   1.783   2.783   8.953  0.3324 -0.4040 -0.2236
30330SOD    SOD95656   1.175   7.055   0.640 -0.1066  0.1116  0.5346
30331SOD    SOD95657   1.443   6.238   2.533  0.0765 -0.0531  0.2705
30332SOD    SOD95658   2.562   8.003   0.740  0.0593  0.3741  0.6203
30333SOD    SOD95659   2.472   7.651   2.128  0.2012  0.0733 -0.4248
30334SOD    SOD95660   2.431   6.686   1.811  0.3566 -0.0852  0.1198
30335SOD    SOD95661   2.873   8.894   3.489  0.5432 -0.2255  0.5106
30336SOD    SOD95662   9.672   6.278   2.256  0.0807 -0.4234 -0.2521
30337SOD    SOD95663   1.923   7.619   3.674 -0.6345 -0.1058  0.4302
30338SOD    SOD95664   1.560   6.775   2.875 -0.7768 -0.2599 -0.5621
30339SOD    SOD95665   1.426   7.538   4.067  0.2635 -0.4032 -0.0037
30340SOD    SOD95666   2.512   4.987   4.907 -0.4141 -0.1896 -0.5208
30341SOD    SOD95667   2.775   8.301   3.989 -0.2813 -0.0293 -0.0295
30342SOD    SOD95668   1.915   9.063   7.589  0.2422 -0.2417 -0.2602
30343SOD    SOD95669   2.717   7.334   4.643 -0.2081  0.1058 -0.0979
30344SOD    SOD95670   1.816   7.321   6.907  0.2920 -0.0042 -0.0639
30345SOD    SOD95671   0.793   5.642   4.585  0.2618  0.3117  0.4795
30346SOD    SOD95672   2.122   5.449   7.225  0.1627 -0.4480  0.3301
30347SOD    SOD95673   3.601   5.777   8.224 -0.4838  0.1306 -0.0044
30348SOD    SOD95674   0.789   6.493   6.950 -0.2497  0.3837  0.6903
30349SOD    SOD95675   3.928   7.132   0.317  0.3193  0.0801  0.4222
30350SOD    SOD95676   2.223   9.113   9.686 -0.2897 -0.6379 -0.1106
30351SOD    SOD95677   3.854   8.784   9.211 -0.1164  0.4743  0.0224
30352SOD    SOD95678   3.777   6.307   9.134  0.8459  0.1420  0.1376
30353SOD    SOD95679   2.158   8.102   9.060 -0.1545  0.1924  0.0784
30354SOD    SOD95680   3.611   0.266   0.592  0.8062 -0.2252 -0.3836
30355SOD    SOD95681   0.950   0.303   2.006  0.1218  0.3222 -0.3098
30356SOD    SOD95682   1.855   9.396   2.492 -0.0995  0.0510 -0.7074
30357SOD    SOD95683   3.164   0.082   1.354 -0.4555  0.3064  0.0673
30358SOD    SOD95684   0.199   8.745   2.952  0.3524  0.4798 -0.3650
30359SOD    SOD95685   2.008   8.971   4.846 -0.0119 -0.3459 -0.2428
30360SOD    SOD95686   0.891   8.259   4.656  0.3302  0.0917 -0.5691
30361SOD    SOD95687   2.535   9.159   7.052 -0.4622 -0.0185  0.2684
30362SOD    SOD95688   1.848   9.041   5.826 -0.4819  0.3472 -0.4675
30363SOD    SOD95689   3.120   9.366   7.322 -0.4993  0.2259 -0.5396
30364SOD    SOD95690   2.575   8.087   6.980  0.5069 -0.6759  0.2355
30365SOD    SOD95691   3.236   8.144   8.819  0.3122  0.0831  0.4606
30366SOD    SOD95692   3.590   8.525   0.402  0.4142 -0.2227  0.1988
30367SOD    SOD95693   2.512   9.641   8.787 -0.2364 -0.1580  0.0513
30368SOD    SOD95694   5.580   9.493   3.838 -0.1134 -0.2869 -0.2920
30369SOD    SOD95695   5.017   0.249   4.684 -0.9212 -0.1035  0.4001
30370SOD    SOD95696   2.199   0.966   7.413  0.5445  0.8112  0.5244
30371SOD    SOD95697   5.831   2.178   0.483  0.3106 -0.2230  0.2399
30372SOD    SOD95698   4.458   1.053   0.117  0.5017 -0.0751 -0.3131
30373SOD    SOD95699   5.506   1.363   0.662  0.1386 -0.2138  0.1491
30374SOD    SOD95700   4.548   2.460   1.070  0.7412  0.2679 -0.0848
30375SOD    SOD95701   4.982   1.552   2.377  0.0450 -0.6883 -0.0167
30376SOD    SOD95702   3.866   2.579   1.077 -0.0907 -0.0825  0.5366
30377SOD    SOD95703   3.941   1.910   2.534 -0.0146 -0.0844 -0.6830
30378SOD    SOD95704   4.845   0.859   3.425 -0.4244  0.3424  0.4696
30379SOD    SOD95705   4.385   0.507   5.406 -0.2753 -0.6112  0.0925
30380SOD    SOD95706   4.248   2.508   5.795 -0.1895  0.2461  0.5785
30381SOD    SOD95707   4.809   0.855   4.107 -0.2334 -0.0517  0.4924
30382SOD    SOD95708   2.432   3.670   7.909  0.1189  0.7563 -0.2664
30383SOD    SOD95709   3.973   3.465   8.472 -0.3011 -0.0106 -0.0255
30384SOD    SOD95710   5.258   1.375   6.902  0.6648 -0.0812  0.5821
30385SOD    SOD95711   3.930   3.196   5.181  0.1674 -0.2742  0.0606
30386SOD    SOD95712   4.510   2.213   9.373 -0.0412 -0.1740 -0.0474
30387SOD    SOD95713   3.461   1.908   8.913  0.0750 -0.0108  0.0954
30388SOD    SOD95714   5.177   1.384   8.688 -0.2301  0.2937  0.5519
30389SOD    SOD95715   5.810   1.750   0.027  0.1273 -0.1590 -0.3353
30390SOD    SOD95716   5.267   1.017   6.914 -0.4979 -0.1817 -0.4946
30391SOD    SOD95717   4.911   2.356   8.152  0.2736  0.0307 -0.4123
30392SOD    SOD95718   3.115   1.389   8.505  0.1746 -0.2807 -0.2230
30393SOD    SOD95719   4.228   1.649   9.400 -0.2134  0.2444  0.2313
30394SOD    SOD95720   4.332   4.334   9.633 -0.4853  0.5801 -0.1148
30395SOD    SOD95721   3.963   6.093   1.477 -0.1505  0.1196 -0.4164
30396SOD    SOD95722   2.396   2.927   1.088 -0.6128 -0.1365 -0.1908
30397SOD    SOD95723   2.350   3.948   9.597  0.3631  0.5925  0.1758
30398SOD    SOD95724   3.895   4.501   2.236  0.2280 -0.1869 -0.6329
30399SOD    SOD95725   2.482   3.740   1.366  0.3124 -0.1515  0.2697
30400SOD    SOD95726   4.955   3.467   2.039  0.4785 -0.2151  0.3076
30401SOD    SOD95727   5.733   3.009   0.378 -0.0503 -0.3273  0.2554
30402SOD    SOD95728   2.126   4.656   3.071 -0.1163 -0.8059 -0.7254
30403SOD    SOD95729   3.839   2.254   1.643 -0.5229  0.2981 -0.9596
30404SOD    SOD95730   3.522   3.689   4.996  0.1564  0.3691  0.2762
30405SOD    SOD95731   5.686   2.461   1.434 -0.0880  0.5471 -0.6136
30406SOD    SOD95732   4.703   4.463   2.776 -0.2990 -0.3012  0.8742
30407SOD    SOD95733   3.441   4.045   1.561  0.0816  0.6730 -0.1485
30408SOD    SOD95734   5.445   5.462   0.407 -0.3908  0.2520  0.2410
30409SOD    SOD95735   5.062   7.188   8.906 -0.1301 -0.1682 -0.4751
30410SOD    SOD95736   5.543   1.945   8.720 -0.1767 -0.0927 -0.1319
30411SOD    SOD95737   6.985   5.003   8.384  0.2339 -0.3330 -0.2929
30412SOD    SOD95738   1.256   2.343   6.918  0.0493  0.0766  0.3211
30413SOD    SOD95739   2.278   2.678   5.272  0.3202  0.4460 -0.3772
30414SOD    SOD95740   3.306   4.002   6.344  0.0724  0.4856  0.2474
30415SOD    SOD95741   6.997   5.520   6.900  0.1184  0.0689  0.0286
30416SOD    SOD95742   1.706   4.340   6.835 -0.2109 -0.2663  0.1552
30417SOD    SOD95743   4.322   2.760   9.305  0.5253  0.8960 -0.0980
30418SOD    SOD95744   4.429   5.518   1.004 -0.1486  0.1123  0.0431
30419SOD    SOD95745   2.228   4.147   7.047 -0.4603 -0.2154 -0.2516
30420SOD    SOD95746   2.641   6.381   0.013 -0.5700  0.2451 -0.4061
30421SOD    SOD95747   2.514   5.669   1.004  0.8212  0.3868 -0.3334
30422SOD    SOD95748   2.226   6.658   0.662 -0.2057 -0.1937  0.2240
30423SOD    SOD95749   4.247   9.793   0.594 -0.2218 -0.1137 -0.0812
30424SOD    SOD95750   4.282   8.685   2.524  0.0334 -0.0391 -0.1722
30425SOD    SOD95751   6.838   6.693   0.588 -0.0473  0.1318  0.1560
30426SOD    SOD95752   5.294   6.439   3.243 -0.1161 -0.0636  0.2014
30427SOD    SOD95753   6.524   6.470   4.561  0.2360 -0.5228  0.1789
30428SOD    SOD95754   6.272   6.375   1.970 -0.4056  0.1336  0.0798
30429SOD    SOD95755   4.178   6.966   4.355 -0.2810 -0.0621 -0.4651
30430SOD    SOD95756   3.990   7.347   1.178  0.0710  0.5520 -0.1709
30431SOD    SOD95757   3.143   7.719   7.119 -0.1775 -0.3265 -0.0248
30432SOD    SOD95758   8.465   5.352   5.419  0.1519 -0.6332 -0.6500
30433SOD    SOD95759   3.260   6.010   4.286  0.3313 -0.1929 -0.0082
30434SOD    SOD95760   7.314   4.092   3.306 -0.5065 -0.0856  0.6654
30435SOD    SOD95761   3.008   4.854   3.921  0.1632  0.0017  0.5763
30436SOD    SOD95762   1.929   6.192   7.813 -0.3593 -0.2933 -0.0522
30437SOD    SOD95763   2.128   7.565   5.972  0.2666  0.3548  0.0381
30438SOD    SOD95764   3.359   5.933   9.399 -0.0312 -0.0767  0.2890
30439SOD    SOD95765   5.464   6.671   6.996 -0.4713 -0.2483  0.1039
30440SOD    SOD95766   7.527   7.690   5.548  0.1739  0.0999  0.3255
30441SOD    SOD95767   4.180   8.625   7.905 -0.1872 -0.0364  0.5016
30442SOD    SOD95768   1.572   5.280   8.809 -0.0950  0.1206 -0.2985
30443SOD    SOD95769   5.352   6.175   6.983 -0.4005  0.2725 -0.0942
30444SOD    SOD95770   4.060   7.774   9.237 -0.1104 -0.1831  0.3537
30445SOD    SOD95771   3.736   7.399   9.020 -0.3231 -0.1659 -0.0187
30446SOD    SOD95772   4.766   7.905   8.840  0.2238  0.0565  0.0023
30447SOD    SOD95773   4.777   7.856   7.240  0.8064 -0.5243  0.4462
30448SOD    SOD95774   4.769   7.011   9.520  0.7515 -0.0438  0.1099
30449SOD    SOD95775   4.715   9.296   0.273 -0.0281 -0.3051  0.2073
30450SOD    SOD95776   4.572   8.069   0.089  0.5471  0.2023  0.6524
30451SOD    SOD95777   2.817   1.902   3.147  0.0760 -0.3280  0.2632
30452SOD    SOD95778   3.023   8.505   2.156 -0.3026  0.0987 -0.4303
30453SOD    SOD95779   6.791   9.295   3.075  0.1913  0.4955  0.0259
30454SOD    SOD95780   5.068   8.691   1.784 -0.4591  0.1542  0.3017
30455SOD    SOD95781   2.928   9.278   4.119  0.2686 -0.0205  0.4596
30456SOD    SOD95782   4.118   7.625   5.557 -0.3339 -0.2798  0.2172
30457SOD    SOD95783   3.170   9.484   4.985  0.6050  0.3111 -0.6189
30458SOD    SOD95784   5.665   8.735   4.105  0.1626 -0.5025  0.5489
30459SOD    SOD95785   4.285   9.260   5.333  0.3066  0.2431  0.0264
30460SOD    SOD95786   7.466   0.073   5.750 -0.2407  0.0458  0.0044
30461SOD    SOD95787   4.150   0.817   6.478 -0.0954 -0.4108 -0.1496
30462SOD    SOD95788   2.825   0.230   8.601 -0.1221 -0.2268  0.0324
30463SOD    SOD95789   4.653   8.190   9.148  0.0848 -0.6046  0.2911
30464SOD    SOD95790   3.693   0.113   7.663  0.1686  0.2724 -0.0945
30465SOD    SOD95791   5.997   0.847   7.995  0.2846  0.3660  0.5377
30466SOD    SOD95792   4.714   9.153   8.707 -0.1481  0.0974 -0.2453
30467SOD    SOD95793   5.060   0.068   9.666  0.3916 -0.1825  0.1992
30468SOD    SOD95794   6.907   0.343   0.804  0.0389 -0.2117  0.3511
30469SOD    SOD95795   8.247   0.285   0.567  0.0609  0.2115  0.7185
30470SOD    SOD95796   7.533   1.150   0.635  0.4391  0.0447  0.1683
30471SOD    SOD95797   5.654   1.060   1.769  0.2123 -0.2883  0.3759
30472SOD    SOD95798   6.546   0.798   4.214 -0.3913  0.1315 -0.3738
30473SOD    SOD95799   7.971   0.989   4.755  0.3894 -0.2478  0.1935
30474SOD    SOD95800   5.504   1.030   5.776  0.0642  0.0062 -0.1627
30475SOD    SOD95801   4.963   0.473   7.597  0.1666 -0.4249 -0.4242
30476SOD    SOD95802   5.988   0.357   9.451  0.5555 -0.0405 -0.0897
30477SOD    SOD95803   5.805   1.051   9.079 -0.0770 -0.4351 -0.4230
30478SOD    SOD95804   7.146   2.196   1.001  0.1883 -0.1398 -0.1729
30479SOD    SOD95805   7.395   1.622   0.437  0.1869  0.2302 -0.1945
30480SOD    SOD95806   7.150   0.355   2.538  0.0978  0.3530 -0.2994
30481SOD    SOD95807   8.221   2.781   2.844 -0.0203  0.3249 -0.2539
30482SOD    SOD95808   7.310   1.755   3.091 -0.2012  0.1762 -0.2413
30483SOD    SOD95809   7.781   2.540   1.543 -0.0944  0.0370 -0.2642
30484SOD    SOD95810   8.813   0.918   2.982  0.4206  0.1900  0.5871
30485SOD    SOD95811   6.354   1.814   3.429  0.1592  0.5294  0.4690
30486SOD    SOD95812   8.817   0.780   4.308  0.3016 -0.9486  0.1519
30487SOD    SOD95813   7.080   0.846   3.871 -0.3627 -0.3008 -0.3753
30488SOD    SOD95814   7.678   1.361   4.325 -0.6582 -0.0771  0.2530
30489SOD    SOD95815   5.281   0.225   5.595  0.1917 -0.0025  0.8558
30490SOD    SOD95816   8.044   2.972   5.895  0.0817  0.3070  0.2486
30491SOD    SOD95817   7.937   2.036   5.284  0.6094 -0.1657 -0.7039
30492SOD    SOD95818   6.456   1.510   6.846  0.2826  0.2284  0.2362
30493SOD    SOD95819   6.956   1.722   5.184  0.7543  0.3520 -0.4191
30494SOD    SOD95820   6.918   1.810   6.243 -0.2653 -0.0310  0.2038
30495SOD    SOD95821   6.979   1.955   9.144  0.5401  0.3526 -0.0789
30496SOD    SOD95822   7.169   1.374   8.928  0.2797 -0.0912 -0.1183
30497SOD    SOD95823   6.610   3.160   9.336  0.4882  0.1897 -0.2639
30498SOD    SOD95824   5.927   0.443   8.686  0.4282  0.0462  0.0380
30499SOD    SOD95825   5.806   1.984   7.198 -0.4350  0.3478  0.1131
30500SOD    SOD95826   6.936   2.201   0.499  0.3354 -0.1906 -0.1190
30501SOD    SOD95827   6.654   2.830   9.341 -0.1631  0.1145 -0.0370
30502SOD    SOD95828   5.940   3.720   9.704  0.9093  0.0131 -0.1197
30503SOD    SOD95829   7.823   3.307   1.294 -0.2321 -0.4316 -0.0171
30504SOD    SOD95830   8.752   2.833   3.663  0.3531  0.2377 -0.2510
30505SOD    SOD95831   7.429   5.237   3.904  0.6858 -0.0293  0.0346
30506SOD    SOD95832   6.748   5.110   3.217  0.3829  0.3245 -0.0451
30507SOD    SOD95833   6.967   3.921   1.597  0.1201 -0.1561 -0.2283
30508SOD    SOD95834   8.643   5.126   4.757  0.6626  0.2499  0.3729
30509SOD    SOD95835   7.989   4.802   5.721  0.3420 -0.0262 -0.1246
30510SOD    SOD95836   5.902   5.301   2.780  0.2182 -0.5949 -0.3283
30511SOD    SOD95837   8.457   4.497   3.645 -0.1043 -0.5947 -0.2490
30512SOD    SOD95838   6.898   3.727   4.459  0.9349 -0.1561 -0.2767
30513SOD    SOD95839   6.679   2.024   5.459 -0.4907 -0.3766 -0.3615
30514SOD    SOD95840   8.582   4.462   5.847 -0.1311 -0.1364 -0.0410
30515SOD    SOD95841   8.585   2.883   8.589  0.3405 -0.1765  0.2038
30516SOD    SOD95842   5.413   3.003   6.678 -0.3836  0.3762  0.0311
30517SOD    SOD95843   6.616   5.118   6.606  0.2873  0.4453  0.3665
30518SOD    SOD95844   8.244   3.663   5.085 -0.4915 -0.1025  0.2051
30519SOD    SOD95845   7.687   5.625   8.253 -0.5244  0.0958 -0.0978
30520SOD    SOD95846   8.300   5.226   9.691  0.3490  0.2261  0.8200
30521SOD    SOD95847   7.972   2.251   9.141 -0.0278  0.6431 -0.8280
30522SOD    SOD95848   7.835   3.921   0.582 -0.3882  0.0427 -0.2945
30523SOD    SOD95849   5.814   3.091   8.723  0.3137 -0.0813 -0.0421
30524SOD    SOD95850   7.902   5.276   8.871 -0.2953 -0.6152  0.2718
30525SOD    SOD95851   8.995   4.420   8.481 -0.4588  0.0314  0.1355
30526SOD    SOD95852   7.583   3.493   1.009 -0.0140  0.4386 -0.2496
30527SOD    SOD95853   7.211   6.599   0.170 -0.0459  0.3098 -0.1672
30528SOD    SOD95854   5.838   8.822   0.676 -0.1091  0.1722 -0.4144
30529SOD    SOD95855   5.964   7.497   9.858 -0.0545  0.3516  0.1098
30530SOD    SOD95856   5.308   6.691   0.342  0.7571 -0.6097  0.3204
30531SOD    SOD95857   7.649   7.993   0.869  0.0449 -0.1947 -0.0515
30532SOD    SOD95858   8.982   4.406   1.542 -0.0936  0.5815 -0.4804
30533SOD    SOD95859   7.656   7.148   1.322  0.2370 -0.2027  0.2572
30534SOD    SOD95860   8.018   7.604   3.083  0.0077 -0.7028 -0.5218
30535SOD    SOD95861   6.567   7.423   3.536  0.0682 -0.2123 -0.7051
30536SOD    SOD95862   6.219   8.256   1.462 -0.1309 -0.5102 -0.0296
30537SOD    SOD95863   7.766   8.126   3.340 -0.6023  0.0388  0.2170
30538SOD    SOD95864   6.964   7.885   1.710  0.0740  0.2586 -0.4201
30539SOD    SOD95865   6.445   7.386   5.260  0.0258  0.4028  0.0712
30540SOD    SOD95866   9.172   8.225   4.780  0.1636  0.0072  0.3065
30541SOD    SOD95867   8.446   7.825   7.776  0.4401  0.0310  0.3093
30542SOD    SOD95868   6.427   9.215   7.564  0.0671 -0.0941  0.0357
30543SOD    SOD95869   7.627   9.565   5.225 -0.2512  0.6929  0.0315
30544SOD    SOD95870   6.644   6.037   8.259  0.2227 -0.6769  0.0615
30545SOD    SOD95871   6.331   5.859   0.150  0.1171  0.0578  0.5088
30546SOD    SOD95872   7.630   6.614   7.621 -0.0890 -0.1307 -0.1286
30547SOD    SOD95873   7.826   7.186   9.649  0.5040  0.4961 -0.0154
30548SOD    SOD95874   5.734   9.132   8.437  0.3368 -0.1075 -0.0216
30549SOD    SOD95875   7.192   9.041   7.947  0.5951  0.0787  0.0805
30550SOD    SOD95876   5.093   7.213   8.237 -0.0937  0.2406  0.1810
30551SOD    SOD95877   8.569   0.037   8.972 -0.0541  0.0070  0.1631
30552SOD    SOD95878   6.248   8.545   9.765  0.4435 -0.2719  0.0100
30553SOD    SOD95879   8.703   8.127   3.288 -0.2084 -0.1491 -0.3847
30554SOD    SOD95880   8.407   7.908   3.295  0.1050 -0.0402 -0.1651
30555SOD    SOD95881   8.253   8.845   2.876 -0.5243  0.0304  0.0259
30556SOD    SOD95882   6.150   8.910   1.345 -0.1954 -0.3448 -0.1209
30557SOD    SOD95883   5.750   7.137   5.388 -0.0720 -0.0028  0.0220
30558SOD    SOD95884   6.479   9.530   5.113  0.2620  0.8879 -0.0221
30559SOD    SOD95885   4.445   9.678   3.570 -0.1052 -0.1910  0.1456
30560SOD    SOD95886   6.360   7.964   6.384  0.1945  0.3351  0.2741
30561SOD    SOD95887   5.928   9.830   7.447  0.5193 -0.1345  0.0452
30562SOD    SOD95888   7.700   8.327   7.067 -0.1980  0.3622 -0.0942
30563SOD    SOD95889   7.803   0.227   5.125 -0.1320 -0.0608  0.1755
30564SOD    SOD95890   7.898   0.171   8.123 -0.3925 -0.3620 -0.5464
30565SOD    SOD95891   5.799   8.530   7.024  0.0245 -0.0533 -0.0685
30566SOD    SOD95892   7.398   9.828   6.430 -0.3826  0.1136 -0.0458
30567SOD    SOD95893   6.922   9.065   9.787 -0.1993  0.1211  0.4324
30568SOD    SOD95894   7.033   0.290   1.588 -0.1300 -0.2278  0.5891
30569SOD    SOD95895   7.386   0.054   2.112  0.0652  0.1881 -0.0128
30570SOD    SOD95896   8.383   8.863   5.239  0.8858  0.4755  0.2939
30571SOD    SOD95897   7.909   0.635   5.236 -0.2279 -0.1532  0.6320
30572SOD    SOD95898   6.620   9.084   9.615  0.7334  0.1346 -0.3135
30573SOD    SOD95899   9.392   0.540   2.977 -0.5727 -0.4174 -0.3134
30574SOD    SOD95900   9.236   1.213   3.790  0.7556  0.0283  0.8328
30575SOD    SOD95901   9.142   0.031   3.725  0.2601  0.0803 -0.3147
30576SOD    SOD95902   1.225   9.401   8.040  0.1181  0.0877  0.5217
30577SOD    SOD95903   8.219   0.579   0.316  0.1259  0.2320 -0.1245
30578SOD    SOD95904   8.463   1.164   8.557  0.2509  0.3694  0.8963
30579SOD    SOD95905   9.113   0.469   1.118 -0.2357  0.3300 -0.1669
30580SOD    SOD95906   9.846   2.196   1.571 -0.0655 -0.2434  0.0454
30581SOD    SOD95907   8.586   2.876   3.969  0.5263 -0.2070  0.1759
30582SOD    SOD95908   8.766   2.298   5.488  0.0885 -0.2641 -0.5871
30583SOD    SOD95909   0.025   3.358   7.135 -0.4486 -0.0257  0.1872
30584SOD    SOD95910   9.049   2.227   9.667 -0.2055  0.1510 -0.3090
30585SOD    SOD95911   9.435   3.215   0.232  0.5877  0.0103  0.4525
30586SOD    SOD95912   8.021   1.949   9.814 -0.0158  0.0912 -0.5051
30587SOD    SOD95913   8.248   2.222   0.389 -0.0881  0.0051  0.1068
30588SOD    SOD95914   8.975   3.690   0.696  0.0697  0.3312 -0.2296
30589SOD    SOD95915   8.574   5.087   0.741 -0.1331 -0.1581  0.3625
30590SOD    SOD95916   9.029   4.540   4.169  0.5378  0.3136 -0.3312
30591SOD    SOD95917   9.608   4.109   4.738 -0.0038 -1.0096  0.0656
30592SOD    SOD95918   9.236   3.741   3.108  0.3749  0.0010 -0.5135
30593SOD    SOD95919   8.470   4.172   7.096  0.3017  0.0281  0.1373
30594SOD    SOD95920   8.804   5.786   4.721 -0.2593 -0.2261 -0.3492
30595SOD    SOD95921   8.316   3.152   7.592  0.1575  0.3102 -0.2156
30596SOD    SOD95922   0.237   4.897   8.209 -0.1999 -0.1126 -0.4584
30597SOD    SOD95923   8.845   6.075   6.663  0.4262 -0.0018  0.1650
30598SOD    SOD95924   9.234   4.920   0.379 -0.3519  0.1668  0.4430
30599SOD    SOD95925   8.721   5.350   2.042  0.6081  0.1032  0.0883
30600SOD    SOD95926   8.759   6.390   2.110  0.4889 -0.6593  0.2530
30601SOD    SOD95927   8.856   6.702   1.213 -0.0955  0.5121  0.0236
30602SOD    SOD95928   9.386   5.826   2.189  0.0173  0.0726 -0.0227
30603SOD    SOD95929   8.596   5.508   3.059  0.5083  0.1707  0.3055
30604SOD    SOD95930   9.648   7.611   2.692 -0.3017 -0.2486  0.0105
30605SOD    SOD95931   8.654   6.835   4.201 -0.4743  0.3095  0.4516
30606SOD    SOD95932   8.965   6.908   6.219  0.1262 -0.7288  0.6467
30607SOD    SOD95933   8.084   7.182   4.861 -0.1776 -0.0345  0.2812
30608SOD    SOD95934   8.730   6.765   6.752 -0.0046  0.4289  0.8822
30609SOD    SOD95935   0.106   5.741   9.176 -0.7592 -0.0863 -0.1451
30610SOD    SOD95936   8.748   7.437   9.346 -0.1834 -0.6317  0.2491
30611SOD    SOD95937   8.827   8.271   1.441  0.1397  0.3807  0.6010
30612SOD    SOD95938   8.931   9.818   0.490 -0.2579  0.2517 -0.7657
30613SOD    SOD95939   9.469   7.241   1.148 -0.9480  0.1370  0.0122
30614SOD    SOD95940   8.439   7.738   2.174 -0.2078 -0.6945 -0.2162
30615SOD    SOD95941   9.563   9.329   3.411  0.2846  0.1304  0.1019
30616SOD    SOD95942   8.364   9.244   4.651  0.4421 -0.5692  0.1880
30617SOD    SOD95943   8.426   8.862   6.871  0.1815 -0.1838  0.1325
30618SOD    SOD95944   9.516   7.209   8.474  0.2082 -0.2055  0.1718
30619SOD    SOD95945   9.539   8.337   7.161  0.1734 -0.1116  0.7312
30620SOD    SOD95946   7.727   9.490   6.759 -0.0835  0.3739  0.3147
30621SOD    SOD95947   8.240   0.463   1.958 -0.0745 -0.1400  0.2860
30622SOD    SOD95948   9.446   9.582   2.965  0.8026  0.0555  0.2356
30623SOD    SOD95949   8.678   2.719   0.839 -0.0074 -0.5334  0.2475
30624SOD    SOD95950   9.618   2.498   4.702 -0.1064 -0.1051  0.2305
30625SOD    SOD95951   0.142   9.224   5.466 -0.2877 -0.0280 -0.0747
30626SOD    SOD95952   9.585   9.511   9.332  0.0065 -0.2063 -0.2819
30627SOD    SOD95953   8.613   0.574   9.631 -0.2075 -0.2897  0.1738
30628SOD    SOD95954   9.772   0.959   1.925  0.0082 -0.1593  0.1097
30629SOD    SOD95955   0.211   3.207   2.615 -0.2217 -0.0831 -0.7713
30630SOD    SOD95956   1.275   3.315   1.817  0.0680 -0.8017  0.5288
30631SOD    SOD95957   9.556   3.059   5.883 -0.3235 -0.2200 -0.0603
30632SOD    SOD95958   0.327   4.101   6.739 -0.0179  0.1065 -0.4719
30633SOD    SOD95959   9.088   3.605   1.275 -0.6090 -0.1438 -0.5866
30634SOD    SOD95960   9.778   6.376   3.550 -0.0795  0.0979 -0.5451
30635SOD    SOD95961   9.193   8.918   5.689 -0.5957  0.1947 -0.1121
30636SOD    SOD95962   8.346   7.666   6.248 -0.1203  0.3716  0.2717
30637SOD    SOD95963   1.025   5.586   8.712  0.0261  0.2480 -0.4515
30638SOD    SOD95964   0.354   9.351   1.740  0.2813  0.5365 -0.6309
30639SOD    SOD95965   0.039   8.884   5.024  0.0977  0.1854 -0.0936
30640SOD    SOD95966   8.895   0.676   6.430 -0.0188 -0.6009 -0.4017
30641SOD    SOD95967   8.954   8.687   8.148 -0.2012  0.3437  0.1411
30642SOD    SOD95968   9.407   8.688   1.206  0.2680  0.0259 -0.0391
30643SOD    SOD95969   0.622   0.202   8.008  0.0785 -0.3614 -0.4530
   9.85926   9.85926   9.85926
